Title
81331
    1CHL1    C3    1   3.437   4.737  10.250 -0.8551  0.6811 -0.1366
    1CHL1    H3    2   3.361   4.816  10.239 -0.8971  0.5339 -0.9941
    1CHL1    O3    3   3.475   4.719  10.390 -0.4809  0.6173  0.0904
    1CHL1   H3'    4   3.556   4.668  10.384 -1.3015 -0.8935  1.2970
    1CHL1    C4    5   3.373   4.598  10.208  0.6578 -0.3483 -0.0834
    1CHL1   H4A    6   3.449   4.526  10.247 -0.3231 -0.0580  2.5303
    1CHL1   H4B    7   3.281   4.569  10.263 -0.1560  1.0712 -0.6256
    1CHL1    C5    8   3.347   4.574  10.059 -1.1158 -0.7322  0.0077
    1CHL1    C6    9   3.233   4.536  10.015  0.3294 -0.1523  0.0481
    1CHL1    H6   10   3.148   4.527  10.084  0.2962  0.2050  0.0598
    1CHL1    C7   11   3.202   4.501   9.868  0.1354  0.1006  0.4699
    1CHL1   H7A   12   3.161   4.398   9.866 -2.5231  1.1036 -0.3992
    1CHL1   H7B   13   3.128   4.563   9.814  1.2762 -2.2690 -4.3063
    1CHL1    C8   14   3.329   4.509   9.778 -0.3004 -0.2583  0.4272
    1CHL1    H8   15   3.374   4.409   9.791 -1.1963 -0.6837  0.3528
    1CHL1   C14   16   3.292   4.515   9.627  0.1352  0.1290 -0.5124
    1CHL1   H14   17   3.238   4.611   9.620 -1.2033 -0.6831 -1.9854
    1CHL1   C15   18   3.207   4.413   9.563  0.3389  0.0543 -0.1440
    1CHL1  H15A   19   3.250   4.311   9.557  0.0345 -0.0947  0.1558
    1CHL1  H15B   20   3.107   4.397   9.610 -0.0465 -3.2631 -1.7949
    1CHL1   C16   21   3.201   4.464   9.418  0.3967  0.0509  0.1573
    1CHL1  H16A   22   3.194   4.382   9.343 -2.5031 -1.7310  2.1681
    1CHL1  H16B   23   3.116   4.534   9.406  1.3538  1.0141 -1.4896
    1CHL1   C17   24   3.329   4.551   9.395  0.4468  0.4274  0.3898
    1CHL1   H17   25   3.290   4.654   9.385 -1.3111 -0.1240  1.2155
    1CHL1   C13   26   3.406   4.545   9.525 -0.1907 -0.3801 -0.1654
    1CHL1   C18   27   3.500   4.430   9.510 -0.1364  0.2966 -0.6260
    1CHL1  H18A   28   3.452   4.344   9.459 -1.6463  0.3288  0.6481
    1CHL1  H18B   29   3.595   4.456   9.458  0.6950 -0.5603  0.4119
    1CHL1  H18C   30   3.514   4.391   9.613 -1.1339  1.8036  0.1079
    1CHL1   C12   31   3.477   4.678   9.577  0.0561  0.4787  0.1614
    1CHL1  H12A   32   3.570   4.694   9.519  1.6318  0.7840  2.6115
    1CHL1  H12B   33   3.406   4.759   9.551 -0.7344 -0.8123 -1.9484
    1CHL1   C11   34   3.528   4.662   9.715  0.0159  0.1444 -0.1351
    1CHL1  H11A   35   3.598   4.575   9.715 -0.8001 -0.5386  1.2512
    1CHL1  H11B   36   3.576   4.755   9.752 -0.1147  1.2252 -2.4723
    1CHL1    C9   37   3.418   4.628   9.815  0.3710  0.0096  0.1364
    1CHL1    H9   38   3.346   4.711   9.826 -1.7234 -1.8298  1.2266
    1CHL1   C10   39   3.462   4.621   9.969 -0.4264 -0.6150 -0.0513
    1CHL1   C19   40   3.587   4.520   9.973  0.1287 -0.3181  0.9347
    1CHL1  H19A   41   3.570   4.428   9.913 -0.9574 -0.7325  1.8509
    1CHL1  H19B   42   3.672   4.572   9.924 -0.5055 -1.7234 -1.8901
    1CHL1  H19C   43   3.606   4.491  10.078  2.2390  0.9443  0.9616
    1CHL1    C1   44   3.507   4.766  10.015 -0.4530 -1.4443  0.1973
    1CHL1   H1A   45   3.596   4.798   9.956 -1.4514  0.7805 -0.1828
    1CHL1   H1B   46   3.428   4.840   9.992  0.6289 -0.5799 -0.8829
    1CHL1    C2   47   3.554   4.779  10.162 -0.5366 -0.5931  0.8806
    1CHL1   H2A   48   3.592   4.880  10.190  0.4539 -0.3597 -1.1461
    1CHL1   H2B   49   3.634   4.704  10.182 -0.3333 -0.0333  2.2360
    1CHL1   C20   50   3.403   4.524   9.261 -0.5757 -0.3574  0.4963
    1CHL1   H20   51   3.457   4.427   9.268  0.4381  0.2569  1.7739
    1CHL1   C21   52   3.509   4.628   9.237 -0.2364 -0.2015  0.4018
    1CHL1  H21A   53   3.452   4.721   9.257 -2.3580 -1.2620 -0.3492
    1CHL1  H21B   54   3.564   4.618   9.141 -1.3564 -0.4141 -0.2302
    1CHL1  H21C   55   3.588   4.632   9.315 -0.8674  0.4150  1.0272
    1CHL1   C22   56   3.309   4.516   9.134 -0.4118  0.8182 -0.6098
    1CHL1  H22A   57   3.205   4.532   9.169 -0.2124  1.6055 -0.3604
    1CHL1  H22B   58   3.336   4.589   9.053  0.5392 -0.5556 -1.5794
    1CHL1   C23   59   3.303   4.382   9.070  0.0847 -0.1769 -0.1477
    1CHL1  H23A   60   3.405   4.341   9.051  1.2056  2.0311  0.7873
    1CHL1  H23B   61   3.261   4.301   9.134 -0.3182 -0.5652 -0.8904
    1CHL1   C24   62   3.241   4.377   8.925 -0.1246 -0.2028 -0.0146
    1CHL1  H24A   63   3.135   4.408   8.933  0.1094  0.4625  0.5907
    1CHL1  H24B   64   3.296   4.446   8.858  1.3325 -1.2611  0.0311
    1CHL1   C25   65   3.242   4.235   8.861  0.7426  0.3732 -0.9322
    1CHL1   H25   66   3.340   4.185   8.876 -0.7643 -2.4514  0.2479
    1CHL1   C26   67   3.135   4.136   8.915 -0.5252  0.3116  0.0901
    1CHL1  H26A   68   3.116   4.035   8.872  1.4947 -0.7291  1.4349
    1CHL1  H26B   69   3.143   4.119   9.025 -2.1127  0.6655  0.2805
    1CHL1  H26C   70   3.035   4.184   8.915 -0.4639  0.4425 -0.5548
    1CHL1   C27   71   3.221   4.251   8.703  0.7086 -0.1349 -0.5748
    1CHL1  H27A   72   3.305   4.313   8.668  0.9252 -0.2934 -0.3413
    1CHL1  H27B   73   3.218   4.153   8.651  1.1028 -0.1652 -0.5389
    1CHL1  H27C   74   3.125   4.303   8.685 -0.6695 -1.5124  2.0615
    2CHL1    C3   75   3.633   1.448   9.801  0.1186  0.5043 -0.6298
    2CHL1    H3   76   3.688   1.385   9.727  0.6217 -0.8305  0.8271
    2CHL1    O3   77   3.638   1.395   9.936  0.0222 -0.1717 -0.4591
    2CHL1   H3'   78   3.643   1.467   9.998 -1.4364 -1.0800  0.7932
    2CHL1    C4   79   3.692   1.591   9.799  0.3281 -1.3214 -0.0517
    2CHL1   H4A   80   3.630   1.639   9.878 -1.9120  0.2220 -2.5568
    2CHL1   H4B   81   3.795   1.587   9.841  1.4254 -1.1864 -2.5933
    2CHL1    C5   82   3.673   1.657   9.665  0.0747 -0.6550  0.5267
    2CHL1    C6   83   3.779   1.704   9.595 -0.5757 -0.6545  0.0408
    2CHL1    H6   84   3.878   1.698   9.641 -0.5939  0.4391  0.2397
    2CHL1    C7   85   3.781   1.758   9.457 -0.2683  0.0574  1.2187
    2CHL1   H7A   86   3.844   1.849   9.456 -0.5268  0.2619 -0.7816
    2CHL1   H7B   87   3.815   1.681   9.385 -0.5447 -0.8825  2.0715
    2CHL1    C8   88   3.636   1.789   9.412  0.4444 -0.2161  0.5782
    2CHL1    H8   89   3.603   1.885   9.458  1.2591  0.8083 -0.8948
    2CHL1   C14   90   3.632   1.811   9.256  0.5580 -0.3304 -0.5726
    2CHL1   H14   91   3.653   1.710   9.216  0.5390 -0.7951  0.5673
    2CHL1   C15   92   3.735   1.903   9.195 -1.4576  0.1599 -0.3028
    2CHL1  H15A   93   3.748   1.990   9.264 -1.2972 -2.4878  3.2598
    2CHL1  H15B   94   3.835   1.855   9.196 -1.8072 -0.5889  1.4442
    2CHL1   C16   95   3.689   1.935   9.053  0.7590  0.9985  0.2510
    2CHL1  H16A   96   3.691   2.044   9.032 -2.0659  1.1849  0.5019
    2CHL1  H16B   97   3.758   1.894   8.976 -0.8241  0.6875 -1.0666
    2CHL1   C17   98   3.547   1.870   9.046 -0.7575 -0.5275  0.3039
    2CHL1   H17   99   3.549   1.767   9.005 -1.6263 -0.3103 -0.3192
    2CHL1   C13  100   3.507   1.853   9.195  0.7182  0.1617  0.7465
    2CHL1   C18  101   3.456   1.987   9.244 -0.0920  0.5553  0.1006
    2CHL1  H18A  102   3.352   1.984   9.205 -0.2102 -1.7884  0.4305
    2CHL1  H18B  103   3.448   1.992   9.355  0.7187  0.1515  0.1882
    2CHL1  H18C  104   3.519   2.073   9.213  0.0098  0.3150 -0.3679
    2CHL1   C12  105   3.405   1.745   9.231  0.6429 -0.2333  0.2495
    2CHL1  H12A  106   3.302   1.774   9.201  0.4452  0.6896  1.7527
    2CHL1  H12B  107   3.424   1.651   9.174  0.7249 -1.1910  1.7833
    2CHL1   C11  108   3.400   1.710   9.386  0.7890  0.8144  0.1745
    2CHL1  H11A  109   3.364   1.807   9.428  0.0215  0.3725  0.5745
    2CHL1  H11B  110   3.323   1.638   9.421 -0.4925  2.6142  1.2285
    2CHL1    C9  111   3.531   1.686   9.456 -0.4286 -0.5392 -0.1932
    2CHL1    H9  112   3.581   1.597   9.413  3.2232  1.2604 -0.0603
    2CHL1   C10  113   3.534   1.657   9.609  0.8912  0.0700  0.7256
    2CHL1   C19  114   3.455   1.764   9.685 -0.3958 -0.4487  0.0173
    2CHL1  H19A  115   3.485   1.867   9.656 -1.6314  0.2165  1.0306
    2CHL1  H19B  116   3.350   1.742   9.655 -0.9102 -1.8990  2.6124
    2CHL1  H19C  117   3.462   1.750   9.795  2.1361  0.6646  0.0764
    2CHL1    C1  118   3.462   1.517   9.636 -0.1260 -0.9018 -0.5563
    2CHL1   H1A  119   3.352   1.525   9.622 -0.2348 -1.0252  0.1590
    2CHL1   H1B  120   3.488   1.441   9.559 -0.3524 -2.0233  0.4346
    2CHL1    C2  121   3.487   1.450   9.772  0.2560 -0.1516 -0.7340
    2CHL1   H2A  122   3.463   1.342   9.769 -3.2733  0.4899 -0.5308
    2CHL1   H2B  123   3.426   1.493   9.854 -1.5148 -0.9960 -1.5398
    2CHL1   C20  124   3.453   1.954   8.955  0.0990  0.0349  0.3931
    2CHL1   H20  125   3.442   2.051   9.008  0.1084  0.0512  0.3663
    2CHL1   C21  126   3.322   1.871   8.932  0.4044  0.0822 -0.0612
    2CHL1  H21A  127   3.340   1.768   8.894 -0.5415  0.0314 -0.4090
    2CHL1  H21B  128   3.265   1.918   8.849 -0.4683  0.6546  0.8389
    2CHL1  H21C  129   3.254   1.880   9.020  2.3155  3.0320  1.2708
    2CHL1   C22  130   3.523   1.983   8.816  0.3705  0.1530 -0.3000
    2CHL1  H22A  131   3.618   2.040   8.827  0.4759 -0.2748  1.1511
    2CHL1  H22B  132   3.560   1.890   8.767  1.3512  1.9362 -3.2499
    2CHL1   C23  133   3.438   2.053   8.708  0.3050 -0.0029 -0.1864
    2CHL1  H23A  134   3.363   1.989   8.656 -0.0863 -0.7555  1.2279
    2CHL1  H23B  135   3.380   2.133   8.760 -0.3349 -0.3277 -0.3822
    2CHL1   C24  136   3.524   2.111   8.597  0.2679 -0.3565  0.0340
    2CHL1  H24A  137   3.583   2.198   8.632  0.3049 -0.5880  0.5601
    2CHL1  H24B  138   3.583   2.023   8.562  0.2755 -0.8367  1.2017
    2CHL1   C25  139   3.449   2.160   8.478  0.6690 -0.1326 -0.2594
    2CHL1   H25  140   3.382   2.080   8.441 -0.4893 -0.8503  3.0967
    2CHL1   C26  141   3.346   2.273   8.519  0.5412  0.2536  0.5260
    2CHL1  H26A  142   3.276   2.233   8.596  0.4951  0.3613  0.5415
    2CHL1  H26B  143   3.402   2.355   8.567  2.0601 -1.0600  1.0926
    2CHL1  H26C  144   3.286   2.303   8.430 -0.3304 -1.4236  0.4997
    2CHL1   C27  145   3.543   2.210   8.370  0.2487 -0.0949  0.5090
    2CHL1  H27A  146   3.595   2.306   8.388  0.4075  0.5185 -2.6147
    2CHL1  H27B  147   3.628   2.140   8.352  0.0856 -0.2486  0.3258
    2CHL1  H27C  148   3.482   2.234   8.280  0.0220 -1.6500  0.2164
    3CHL1    C3  149   3.606   0.605  10.138  0.0303  0.3065  0.3578
    3CHL1    H3  150   3.526   0.537  10.103 -0.1370  0.7869 -0.2173
    3CHL1    O3  151   3.615   0.596  10.277 -0.5637  0.2879 -0.1078
    3CHL1   H3'  152   3.709   0.609  10.293 -0.3106 -1.3604 -0.1324
    3CHL1    C4  153   3.738   0.555  10.068  0.5472 -0.2620  0.0168
    3CHL1   H4A  154   3.815   0.623  10.110 -0.4212  1.0727 -0.3332
    3CHL1   H4B  155   3.764   0.451  10.101  1.3172  0.0370  0.3842
    3CHL1    C5  156   3.729   0.561   9.918 -0.3582 -0.6503  0.3871
    3CHL1    C6  157   3.717   0.447   9.844  0.7046 -0.9834  0.3752
    3CHL1    H6  158   3.705   0.351   9.896  0.0193 -0.8321  0.5051
    3CHL1    C7  159   3.699   0.446   9.694 -0.4175 -0.3062 -0.1298
    3CHL1   H7A  160   3.751   0.365   9.639  1.6338  2.3176 -2.3285
    3CHL1   H7B  161   3.590   0.425   9.680 -0.8057  0.6127  1.2508
    3CHL1    C8  162   3.734   0.587   9.627 -0.3114  0.9914  0.0513
    3CHL1    H8  163   3.845   0.592   9.628  0.0016 -2.5616 -1.4863
    3CHL1   C14  164   3.680   0.596   9.486  0.2096 -0.1320 -0.0721
    3CHL1   H14  165   3.573   0.568   9.498  0.1923  0.3675  1.0175
    3CHL1   C15  166   3.728   0.494   9.381 -0.1443 -0.0229 -0.2038
    3CHL1  H15A  167   3.838   0.478   9.385  0.0479  0.1360 -2.8468
    3CHL1  H15B  168   3.674   0.398   9.398 -4.0523  1.8512 -0.8647
    3CHL1   C16  169   3.693   0.547   9.243 -0.0153  0.2928 -0.1844
    3CHL1  H16A  170   3.780   0.546   9.174 -1.4242  0.2809 -2.0414
    3CHL1  H16B  171   3.617   0.481   9.198 -0.9768  1.4484 -0.3027
    3CHL1   C17  172   3.636   0.693   9.275  0.6082  0.4106  0.3240
    3CHL1   H17  173   3.526   0.686   9.291  0.8026 -1.9799  1.1750
    3CHL1   C13  174   3.698   0.731   9.414  0.6489  0.4799 -0.1613
    3CHL1   C18  175   3.849   0.761   9.409  0.0559 -0.1394 -0.2467
    3CHL1  H18A  176   3.900   0.685   9.345 -2.8022 -1.5464 -1.0218
    3CHL1  H18B  177   3.876   0.861   9.369  1.3551 -0.2748  0.2346
    3CHL1  H18C  178   3.893   0.769   9.510  1.0010  2.2496 -0.7853
    3CHL1   C12  179   3.622   0.836   9.488 -0.3162  0.5486  0.6246
    3CHL1  H12A  180   3.638   0.935   9.438 -0.2004 -0.2054 -0.9046
    3CHL1  H12B  181   3.513   0.816   9.486 -0.2747  0.3010 -0.8917
    3CHL1   C11  182   3.659   0.838   9.638 -0.8880  0.4338  0.0190
    3CHL1  H11A  183   3.762   0.879   9.639  0.2492 -2.2124  0.7609
    3CHL1  H11B  184   3.588   0.910   9.684 -0.5799  1.0828 -0.5100
    3CHL1    C9  185   3.663   0.702   9.710 -0.2587 -0.3184  0.9182
    3CHL1    H9  186   3.558   0.669   9.721 -0.6738 -0.7109 -3.0466
    3CHL1   C10  187   3.701   0.701   9.867 -0.2720 -0.1497 -0.4456
    3CHL1   C19  188   3.828   0.793   9.876  0.4042  0.4045  0.2361
    3CHL1  H19A  189   3.863   0.808   9.981  2.7291  2.4428 -0.7199
    3CHL1  H19B  190   3.911   0.753   9.814  0.2848  0.1173  0.2603
    3CHL1  H19C  191   3.801   0.894   9.840 -0.3545 -0.0650 -0.5515
    3CHL1    C1  192   3.581   0.766   9.942 -0.2130  0.1781 -0.1132
    3CHL1   H1A  193   3.578   0.871   9.905  0.6766  0.1278 -0.3485
    3CHL1   H1B  194   3.490   0.714   9.905  0.0271 -1.4856  1.4631
    3CHL1    C2  195   3.581   0.748  10.093  0.7163  0.5260 -0.2457
    3CHL1   H2A  196   3.486   0.783  10.140  0.2098 -0.5047 -0.4613
    3CHL1   H2B  197   3.659   0.818  10.130 -1.2201  5.6574 -4.4779
    3CHL1   C20  198   3.652   0.801   9.166 -0.5909 -0.0270  0.2647
    3CHL1   H20  199   3.648   0.900   9.217 -0.5377  0.2885 -0.3381
    3CHL1   C21  200   3.529   0.796   9.074 -0.9020  0.0894  0.3085
    3CHL1  H21A  201   3.525   0.869   8.991 -0.0302 -0.5083 -0.2798
    3CHL1  H21B  202   3.434   0.805   9.131 -2.1457  0.6558 -1.7596
    3CHL1  H21C  203   3.524   0.695   9.029  0.0232  0.5655 -0.9037
    3CHL1   C22  204   3.787   0.795   9.094 -0.9689  0.7314 -0.4610
    3CHL1  H22A  205   3.873   0.762   9.156 -0.4198 -1.9358 -2.4349
    3CHL1  H22B  206   3.775   0.702   9.033 -2.9672  0.2706  0.5683
    3CHL1   C23  207   3.821   0.913   8.998  0.3882 -0.7797  0.0191
    3CHL1  H23A  208   3.731   0.918   8.934 -0.3342 -1.8931  0.8950
    3CHL1  H23B  209   3.820   1.005   9.060  1.4256 -0.2013 -0.7886
    3CHL1   C24  210   3.947   0.888   8.921 -0.0401 -0.2158 -0.2512
    3CHL1  H24A  211   4.025   0.893   9.000  0.3288 -1.5293 -0.5161
    3CHL1  H24B  212   3.943   0.782   8.886  0.1351 -0.6352  0.9528
    3CHL1   C25  213   3.979   0.996   8.817 -0.0015  0.4623  0.2160
    3CHL1   H25  214   3.938   1.097   8.841 -0.0310  0.1164  1.7575
    3CHL1   C26  215   4.132   1.018   8.816 -0.3312 -0.1542 -0.1195
    3CHL1  H26A  216   4.166   1.097   8.745  0.3703 -0.5020 -0.1747
    3CHL1  H26B  217   4.169   1.060   8.912  2.5107 -0.5250 -0.9706
    3CHL1  H26C  218   4.189   0.926   8.790  1.5977  1.0396 -0.3416
    3CHL1   C27  219   3.929   0.958   8.682  0.4768 -0.2388  0.3026
    3CHL1  H27A  220   3.819   0.971   8.696  0.5547 -0.0592  0.7903
    3CHL1  H27B  221   3.954   1.028   8.600  1.0693 -0.3595  0.3796
    3CHL1  H27C  222   3.962   0.858   8.647 -1.4515  0.0551 -2.7135
    4CHL1    C3  223   3.185   4.249  10.352 -0.9080 -0.1354  0.1408
    4CHL1    H3  224   3.148   4.349  10.321 -1.2091  0.1882  1.4818
    4CHL1    O3  225   3.161   4.235  10.487 -0.3602  0.0661  0.5262
    4CHL1   H3'  226   3.241   4.186  10.508 -1.4130 -1.8374  0.3889
    4CHL1    C4  227   3.105   4.145  10.275 -0.1313 -0.2369 -0.2052
    4CHL1   H4A  228   3.098   4.051  10.334 -0.3752  0.6691  1.2729
    4CHL1   H4B  229   3.000   4.181  10.274 -0.0319  0.0577 -1.6693
    4CHL1    C5  230   3.148   4.119  10.135 -0.0046 -0.2565  0.2744
    4CHL1    C6  231   3.049   4.116  10.042 -1.0541 -0.0950  0.4519
    4CHL1    H6  232   2.944   4.132  10.074 -2.2895 -0.7785 -2.8862
    4CHL1    C7  233   3.069   4.093   9.899  0.3959  0.7692  0.1135
    4CHL1   H7A  234   2.994   4.022   9.858 -0.7757  1.7346  0.5239
    4CHL1   H7B  235   3.053   4.186   9.841  1.9500  1.5556  0.8762
    4CHL1    C8  236   3.208   4.029   9.867 -0.2249 -0.2090 -0.0263
    4CHL1    H8  237   3.206   3.924   9.903  2.8939  0.2335  1.8473
    4CHL1   C14  238   3.237   4.044   9.717 -0.7075  0.0724  0.2245
    4CHL1   H14  239   3.254   4.149   9.686 -0.8788 -0.3719 -1.5248
    4CHL1   C15  240   3.123   3.996   9.620 -0.4894 -0.2315  0.5381
    4CHL1  H15A  241   3.080   3.897   9.646 -2.5324  0.6272  0.6457
    4CHL1  H15B  242   3.045   4.073   9.604 -0.0365  0.1984  0.3846
    4CHL1   C16  243   3.198   3.991   9.487 -0.9254  0.3563  0.2780
    4CHL1  H16A  244   3.178   3.891   9.442  0.5617  0.2746 -0.2569
    4CHL1  H16B  245   3.163   4.066   9.413 -2.5236  1.5969  2.2079
    4CHL1   C17  246   3.352   3.990   9.521 -0.2945  0.1115  0.2910
    4CHL1   H17  247   3.388   4.095   9.510  0.8090 -0.1472  1.1367
    4CHL1   C13  248   3.368   3.965   9.673 -0.5449 -0.1913  0.3545
    4CHL1   C18  249   3.354   3.808   9.699 -0.2461 -0.2664  0.5235
    4CHL1  H18A  250   3.321   3.795   9.805  0.1693  1.6220  0.9236
    4CHL1  H18B  251   3.273   3.764   9.636 -1.6225 -1.2819  2.8471
    4CHL1  H18C  252   3.456   3.770   9.678  0.1395  0.3985  1.1424
    4CHL1   C12  253   3.486   4.027   9.751 -0.5738  0.2977  0.3820
    4CHL1  H12A  254   3.580   3.972   9.727 -0.4492  1.0947 -1.0411
    4CHL1  H12B  255   3.506   4.132   9.720  0.0181  1.1213  3.2076
    4CHL1   C11  256   3.459   4.031   9.902  1.0358  0.3767 -0.1045
    4CHL1  H11A  257   3.466   3.925   9.933  0.2458 -0.1511 -1.6104
    4CHL1  H11B  258   3.544   4.085   9.948  1.2855 -1.9389  2.3623
    4CHL1    C9  259   3.328   4.094   9.942  0.5843 -0.6034  0.8827
    4CHL1    H9  260   3.336   4.198   9.903 -0.0837 -1.5246 -1.9208
    4CHL1   C10  261   3.296   4.099  10.096 -0.6747 -0.2750  0.5799
    4CHL1   C19  262   3.337   3.966  10.159  0.4577 -0.2960  0.3674
    4CHL1  H19A  263   3.295   3.965  10.262 -0.9296 -3.7460 -0.0739
    4CHL1  H19B  264   3.291   3.878  10.109 -0.2715 -0.0278  0.5458
    4CHL1  H19C  265   3.447   3.957  10.162  0.6967  2.0422  2.7269
    4CHL1    C1  266   3.365   4.220  10.169  0.1355  0.0223 -0.2491
    4CHL1   H1A  267   3.471   4.189  10.159  0.4149  1.0987 -0.7973
    4CHL1   H1B  268   3.347   4.312  10.109  3.1534  0.5372 -0.4895
    4CHL1    C2  269   3.336   4.237  10.318 -0.3224  0.2420 -0.0820
    4CHL1   H2A  270   3.373   4.335  10.354 -2.0313  1.2691 -1.0076
    4CHL1   H2B  271   3.396   4.158  10.368  1.1701  1.3302 -0.0900
    4CHL1   C20  272   3.434   3.902   9.415 -0.5753 -0.4286 -0.5972
    4CHL1   H20  273   3.397   3.799   9.435  0.6499 -0.4251  2.2086
    4CHL1   C21  274   3.578   3.913   9.467 -0.7344 -0.1307 -0.0493
    4CHL1  H21A  275   3.592   3.857   9.562 -2.2409 -0.9737 -0.2913
    4CHL1  H21B  276   3.611   4.017   9.487  0.5263 -1.0619  3.5122
    4CHL1  H21C  277   3.647   3.879   9.387  1.7140  1.9473  1.0463
    4CHL1   C22  278   3.414   3.959   9.272  0.1584  0.7998  0.4493
    4CHL1  H22A  279   3.305   3.952   9.255 -0.4762  1.2174  3.6944
    4CHL1  H22B  280   3.445   4.065   9.266  0.7621  0.6406  0.6082
    4CHL1   C23  281   3.496   3.886   9.163 -0.1011  0.1676  0.4517
    4CHL1  H23A  282   3.603   3.911   9.179 -0.5163  1.9527  0.6333
    4CHL1  H23B  283   3.496   3.776   9.180  0.0973 -0.2590 -1.9737
    4CHL1   C24  284   3.446   3.928   9.022  0.3919  0.4368  0.0552
    4CHL1  H24A  285   3.340   3.902   9.005 -0.0804  2.2548  0.0749
    4CHL1  H24B  286   3.459   4.037   9.002 -1.0591  0.8213  1.0846
    4CHL1   C25  287   3.525   3.850   8.905 -0.2770 -0.1171 -0.6101
    4CHL1   H25  288   3.512   3.741   8.923  1.6558 -0.0784  1.4671
    4CHL1   C26  289   3.465   3.896   8.771 -0.3244  0.5329 -0.1677
    4CHL1  H26A  290   3.517   3.833   8.696 -1.9267 -1.8486  0.5912
    4CHL1  H26B  291   3.357   3.871   8.770 -0.0796 -0.6431  0.8460
    4CHL1  H26C  292   3.492   4.002   8.752 -0.7354  0.2107 -3.0048
    4CHL1   C27  293   3.684   3.867   8.897  0.5857 -0.9767 -0.0021
    4CHL1  H27A  294   3.729   3.799   8.972 -0.0993 -0.5182  0.8436
    4CHL1  H27B  295   3.722   3.837   8.797  0.0522 -1.3725 -0.0930
    4CHL1  H27C  296   3.724   3.969   8.916  1.5472 -1.5804  1.3644
    5CHL1    C3  297   6.444   4.747  10.260 -0.2743  0.4048  0.2583
    5CHL1    H3  298   6.511   4.834  10.243  0.8926 -0.9641 -2.9143
    5CHL1    O3  299   6.455   4.722  10.403  0.7885  0.4269 -0.0988
    5CHL1   H3'  300   6.370   4.690  10.434  0.8095  2.3550  2.2202
    5CHL1    C4  301   6.295   4.754  10.219 -0.2377 -0.0711 -0.1845
    5CHL1   H4A  302   6.235   4.662  10.234  0.8797 -0.5275  1.9174
    5CHL1   H4B  303   6.248   4.836  10.279  0.1477 -0.3744  0.5440
    5CHL1    C5  304   6.291   4.783  10.076  0.0017  0.6963 -0.5278
    5CHL1    C6  305   6.234   4.901  10.028  0.1194  0.3936  0.1875
    5CHL1    H6  306   6.184   4.970  10.097 -1.0603  1.0620 -1.2851
    5CHL1    C7  307   6.215   4.930   9.880 -0.0539  1.4772 -1.0007
    5CHL1   H7A  308   6.109   4.960   9.864 -0.5949  0.7471  1.0059
    5CHL1   H7B  309   6.280   5.015   9.850  0.8816  1.2083  0.1840
    5CHL1    C8  310   6.241   4.806   9.792  0.2671  0.2258  0.5991
    5CHL1    H8  311   6.155   4.738   9.778  1.1598 -0.7203 -0.5242
    5CHL1   C14  312   6.285   4.857   9.651 -0.2982  0.6017 -0.2422
    5CHL1   H14  313   6.385   4.905   9.662  0.7375 -1.5381  0.2016
    5CHL1   C15  314   6.194   4.956   9.585 -0.5306 -0.2786  0.2956
    5CHL1  H15A  315   6.089   4.919   9.581 -0.6533 -0.2562  2.3377
    5CHL1  H15B  316   6.199   5.058   9.629 -0.4411  0.3270 -1.0752
    5CHL1   C16  317   6.255   4.961   9.445  0.2751  0.5867  0.1064
    5CHL1  H16A  318   6.181   4.964   9.363 -0.4977 -0.5421  0.7504
    5CHL1  H16B  319   6.320   5.052   9.446 -1.3984  1.8284  1.0730
    5CHL1   C17  320   6.347   4.838   9.424  0.0510  0.6655  0.4923
    5CHL1   H17  321   6.449   4.881   9.435 -0.6535  2.2352  1.3317
    5CHL1   C13  322   6.318   4.748   9.547 -0.2502  0.9778 -0.3643
    5CHL1   C18  323   6.192   4.660   9.518  0.0679  0.3393  0.5466
    5CHL1  H18A  324   6.150   4.596   9.599  0.4302 -0.6672 -0.0318
    5CHL1  H18B  325   6.116   4.729   9.476  1.3867 -0.1009 -2.9849
    5CHL1  H18C  326   6.225   4.579   9.449  0.5373  0.7989  0.2262
    5CHL1   C12  327   6.445   4.675   9.601  0.4809  0.6227  0.0558
    5CHL1  H12A  328   6.475   4.586   9.542 -0.7565 -2.1253  3.2526
    5CHL1  H12B  329   6.530   4.747   9.605 -0.2502  1.5749 -0.9990
    5CHL1   C11  330   6.415   4.630   9.741 -0.2502  0.8843 -0.7479
    5CHL1  H11A  331   6.332   4.559   9.722  1.1931 -0.2003 -3.6734
    5CHL1  H11B  332   6.503   4.573   9.779 -1.0005  1.7950  2.7991
    5CHL1    C9  333   6.363   4.733   9.843 -0.2403 -0.1251 -0.2860
    5CHL1    H9  334   6.447   4.804   9.850  0.9583 -1.5703  0.7282
    5CHL1   C10  335   6.359   4.674   9.989  0.1597 -0.7354  0.3333
    5CHL1   C19  336   6.264   4.548   9.982 -0.3118 -0.2510 -0.1204
    5CHL1  H19A  337   6.268   4.502  10.084  3.4201  0.4184  0.2063
    5CHL1  H19B  338   6.165   4.582   9.947  0.0122  0.0713 -0.7343
    5CHL1  H19C  339   6.318   4.473   9.919 -1.9702 -1.9484  0.3727
    5CHL1    C1  340   6.500   4.631  10.042  1.5147 -0.0227  0.2282
    5CHL1   H1A  341   6.527   4.538   9.987 -2.6305  0.4974 -3.2025
    5CHL1   H1B  342   6.571   4.707  10.001  0.1882 -0.1505 -2.5896
    5CHL1    C2  343   6.510   4.628  10.195  0.1616  0.4572 -1.0375
    5CHL1   H2A  344   6.610   4.611  10.240  0.0780 -0.6998 -1.2726
    5CHL1   H2B  345   6.447   4.538  10.211  0.5468  0.4518  0.7046
    5CHL1   C20  346   6.340   4.778   9.279  0.0397 -0.1761  0.0567
    5CHL1   H20  347   6.239   4.732   9.268 -0.5710  1.0638  0.2580
    5CHL1   C21  348   6.442   4.667   9.261 -0.3099 -0.2505  0.0929
    5CHL1  H21A  349   6.541   4.710   9.234 -1.5400  1.7683 -1.4370
    5CHL1  H21B  350   6.419   4.606   9.171  0.0082  1.2635 -1.0591
    5CHL1  H21C  351   6.427   4.596   9.346 -2.4142  0.7800  0.6469
    5CHL1   C22  352   6.352   4.881   9.164 -0.1626 -0.3255 -0.3574
    5CHL1  H22A  353   6.292   4.972   9.185 -1.0868 -0.8290 -0.7405
    5CHL1  H22B  354   6.458   4.911   9.168 -0.5529  1.1282 -0.4969
    5CHL1   C23  355   6.327   4.833   9.019  0.0581  0.5997 -0.4892
    5CHL1  H23A  356   6.329   4.916   8.946 -1.1596  1.2339  0.1519
    5CHL1  H23B  357   6.410   4.766   8.991  0.1095 -0.4666  1.9337
    5CHL1   C24  358   6.186   4.767   8.990 -0.1789 -0.1113 -0.3787
    5CHL1  H24A  359   6.174   4.672   9.048  0.3699  1.5647  2.7101
    5CHL1  H24B  360   6.116   4.835   9.043  0.5798  0.8085 -0.5260
    5CHL1   C25  361   6.131   4.751   8.849 -0.0131  0.1516  0.6084
    5CHL1   H25  362   6.046   4.682   8.867 -2.4038  2.3456 -1.3765
    5CHL1   C26  363   6.079   4.877   8.790 -0.0812  0.1029 -0.9763
    5CHL1  H26A  364   6.056   4.859   8.683 -0.6784  1.1951 -1.0468
    5CHL1  H26B  365   5.997   4.924   8.850  1.0995  2.8847 -1.3602
    5CHL1  H26C  366   6.165   4.948   8.789  0.1649 -0.1645 -0.0924
    5CHL1   C27  367   6.226   4.684   8.752  0.0726 -0.3316  0.6766
    5CHL1  H27A  368   6.320   4.740   8.732 -1.2933  1.8078 -0.0576
    5CHL1  H27B  369   6.253   4.581   8.784 -0.3918 -0.9444 -0.7959
    5CHL1  H27C  370   6.181   4.680   8.651 -0.3608 -4.2245  0.8807
    6CHL1    C3  371   3.202   0.566  10.176 -0.2189 -0.0953  0.0428
    6CHL1    H3  372   3.294   0.624  10.154 -0.5611  0.1326 -0.7934
    6CHL1    O3  373   3.175   0.585  10.317 -0.5805 -0.1067 -0.2183
    6CHL1   H3'  374   3.118   0.662  10.313 -0.0891  0.2409 -3.2595
    6CHL1    C4  375   3.083   0.623  10.095  0.0203  0.0124  0.2282
    6CHL1   H4A  376   2.991   0.567  10.124  1.3056 -0.9667  2.7436
    6CHL1   H4B  377   3.060   0.727  10.125  1.2557  0.5261 -0.5516
    6CHL1    C5  378   3.116   0.620   9.948  0.4844  0.0149 -0.5289
    6CHL1    C6  379   3.121   0.727   9.871  0.1656 -0.9502 -0.0062
    6CHL1    H6  380   3.103   0.822   9.924 -0.9326 -0.9692 -0.3354
    6CHL1    C7  381   3.153   0.720   9.727  0.5018  0.1483  0.3730
    6CHL1   H7A  382   3.081   0.788   9.677  1.0579  0.0996 -0.5123
    6CHL1   H7B  383   3.252   0.764   9.702 -0.0861  0.3302 -1.8274
    6CHL1    C8  384   3.140   0.579   9.669  0.6368  0.2646 -0.5747
    6CHL1    H8  385   3.032   0.558   9.649  0.7819 -0.5148 -0.5660
    6CHL1   C14  386   3.199   0.577   9.527  0.2833  0.3181  0.4108
    6CHL1   H14  387   3.303   0.613   9.548  0.2375 -0.0811  1.3869
    6CHL1   C15  388   3.145   0.676   9.431 -0.6237 -0.4478  0.5197
    6CHL1  H15A  389   3.034   0.671   9.429 -0.6338 -0.1444 -1.0410
    6CHL1  H15B  390   3.186   0.777   9.450 -1.1351  0.0658 -0.9408
    6CHL1   C16  391   3.193   0.626   9.292 -0.9753  0.4186 -0.4019
    6CHL1  H16A  392   3.108   0.632   9.219 -1.8109  2.4680  0.6521
    6CHL1  H16B  393   3.261   0.700   9.245 -1.3944  1.4108  0.5144
    6CHL1   C17  394   3.242   0.481   9.308  0.0098  0.7993  0.9478
    6CHL1   H17  395   3.353   0.494   9.307  0.0579  0.6389 -1.3697
    6CHL1   C13  396   3.194   0.442   9.453 -0.3068  0.1573 -0.4247
    6CHL1   C18  397   3.055   0.390   9.442 -0.1099 -0.5315 -0.2737
    6CHL1  H18A  398   3.045   0.285   9.410 -1.1688  0.6845 -4.5940
    6CHL1  H18B  399   3.001   0.387   9.540 -3.0338  1.6600 -1.6543
    6CHL1  H18C  400   3.002   0.450   9.365  0.2561  1.2203  0.7665
    6CHL1   C12  401   3.283   0.349   9.540  0.2503  0.3998 -0.4342
    6CHL1  H12A  402   3.283   0.243   9.506  0.7318 -0.9568  3.2762
    6CHL1  H12B  403   3.387   0.388   9.545 -0.2446  1.6587  0.4349
    6CHL1   C11  404   3.228   0.339   9.687  0.1654 -0.4336 -0.1905
    6CHL1  H11A  405   3.131   0.285   9.682  0.5004 -0.9640 -1.2628
    6CHL1  H11B  406   3.302   0.278   9.743  0.7048 -0.8528 -1.3231
    6CHL1    C9  407   3.218   0.480   9.752  0.3153 -0.4789 -0.0924
    6CHL1    H9  408   3.322   0.516   9.769 -0.0039  1.3365 -1.6161
    6CHL1   C10  409   3.154   0.479   9.896 -0.3495  0.1277  1.1726
    6CHL1   C19  410   3.024   0.399   9.899  0.1083 -0.1957 -0.0132
    6CHL1  H19A  411   3.040   0.294   9.865  0.1832  0.4209 -2.0543
    6CHL1  H19B  412   2.991   0.392  10.005 -1.7347  2.3266 -0.3327
    6CHL1  H19C  413   2.947   0.443   9.832 -0.4576  2.7174  2.3303
    6CHL1    C1  414   3.254   0.404   9.988  0.3774 -0.9767 -0.5587
    6CHL1   H1A  415   3.224   0.299   9.967  0.2255 -0.6212 -2.2695
    6CHL1   H1B  416   3.357   0.432   9.960  0.9104 -1.3704  0.9316
    6CHL1    C2  417   3.230   0.421  10.145  0.0010 -0.7022 -0.0253
    6CHL1   H2A  418   3.318   0.380  10.198  0.4297 -0.7353 -0.7487
    6CHL1   H2B  419   3.132   0.370  10.163 -0.5503  0.3180 -0.0677
    6CHL1   C20  420   3.214   0.389   9.179  0.5934  0.1616 -0.0270
    6CHL1   H20  421   3.104   0.384   9.164  0.6934 -2.3920 -0.3465
    6CHL1   C21  422   3.269   0.252   9.212 -0.2648  0.4405  0.2164
    6CHL1  H21A  423   3.237   0.200   9.305 -2.3663  0.5573 -0.3716
    6CHL1  H21B  424   3.378   0.242   9.198 -0.6296 -1.3334 -1.9351
    6CHL1  H21C  425   3.229   0.181   9.136 -0.9087  2.1347 -1.0814
    6CHL1   C22  426   3.270   0.451   9.048  0.4831 -0.4213 -0.4771
    6CHL1  H22A  427   3.236   0.557   9.038 -1.8477 -1.2359 -1.8509
    6CHL1  H22B  428   3.380   0.464   9.064  0.3231 -2.1635  2.6411
    6CHL1   C23  429   3.240   0.387   8.915  0.1956  0.0700  0.5908
    6CHL1  H23A  430   3.289   0.287   8.916 -0.8771 -0.4679  1.1105
    6CHL1  H23B  431   3.130   0.370   8.906  0.3861 -0.8704 -0.1149
    6CHL1   C24  432   3.306   0.462   8.797 -0.5494 -0.4536 -0.2996
    6CHL1  H24A  433   3.260   0.563   8.791 -0.1626 -0.2203  0.4956
    6CHL1  H24B  434   3.417   0.470   8.807 -0.3608 -0.0084 -2.2969
    6CHL1   C25  435   3.290   0.406   8.651 -0.7223 -0.3370 -0.0987
    6CHL1   H25  436   3.184   0.394   8.621 -1.3831  4.5103 -0.4648
    6CHL1   C26  437   3.354   0.502   8.548 -0.1214 -0.2230 -0.0658
    6CHL1  H26A  438   3.319   0.607   8.557 -0.7133 -0.2414 -1.7261
    6CHL1  H26B  439   3.462   0.512   8.568 -0.3518 -0.1166  1.2147
    6CHL1  H26C  440   3.343   0.477   8.440  0.5479  1.5023 -0.5595
    6CHL1   C27  441   3.375   0.274   8.628 -0.2807  0.1489  0.2908
    6CHL1  H27A  442   3.325   0.183   8.665  2.1016 -2.0012 -1.4262
    6CHL1  H27B  443   3.408   0.264   8.522  0.6039 -0.8373  0.6438
    6CHL1  H27C  444   3.470   0.274   8.685 -0.3345 -1.8829  0.4545
    7CHL1    C3  445   5.507   3.052  10.460  0.1230 -0.4889 -0.2912
    7CHL1    H3  446   5.604   3.072  10.509  0.2765 -0.4656 -0.5997
    7CHL1    O3  447   5.423   3.008  10.565 -0.4326  0.4279 -0.5375
    7CHL1   H3'  448   5.450   2.918  10.584 -4.4686 -0.9942 -0.6522
    7CHL1    C4  449   5.457   3.182  10.383  0.1402  0.5902 -0.3698
    7CHL1   H4A  450   5.353   3.160  10.355 -0.1703  1.3443  0.1395
    7CHL1   H4B  451   5.449   3.267  10.455  0.0862  1.1771 -1.0617
    7CHL1    C5  452   5.543   3.217  10.264  0.1737 -0.3810  0.5941
    7CHL1    C6  453   5.611   3.333  10.253  0.0225  0.3005 -0.0705
    7CHL1    H6  454   5.606   3.402  10.338 -2.2522 -2.5506  2.3397
    7CHL1    C7  455   5.701   3.359  10.133 -0.4360  0.3438  0.3708
    7CHL1   H7A  456   5.686   3.469  10.119 -1.6656  0.1751  0.2357
    7CHL1   H7B  457   5.810   3.355  10.153  0.0020 -0.1665 -1.8633
    7CHL1    C8  458   5.660   3.272  10.010  0.1498  0.1329  0.1908
    7CHL1    H8  459   5.560   3.305   9.975 -0.8926 -2.9615 -0.1318
    7CHL1   C14  460   5.755   3.290   9.893  0.2094 -0.0028 -0.1661
    7CHL1   H14  461   5.852   3.272   9.943  0.3725  2.0699  0.3482
    7CHL1   C15  462   5.776   3.424   9.844 -0.5966 -0.4636 -0.1641
    7CHL1  H15A  463   5.682   3.474   9.813 -1.1777 -1.2663  0.2419
    7CHL1  H15B  464   5.848   3.479   9.909  1.5167 -0.8276 -2.0725
    7CHL1   C16  465   5.855   3.410   9.709  0.1637  0.2646 -1.0458
    7CHL1  H16A  466   5.817   3.477   9.628  0.5032  0.5215 -0.9931
    7CHL1  H16B  467   5.958   3.443   9.733  0.2119 -0.5565 -0.0823
    7CHL1   C17  468   5.857   3.260   9.681 -0.0796  0.2392  0.3366
    7CHL1   H17  469   5.952   3.217   9.720  0.3438  2.0519  1.4087
    7CHL1   C13  470   5.739   3.203   9.767 -0.7977 -0.0411 -0.6549
    7CHL1   C18  471   5.607   3.228   9.680 -0.6906 -0.0559 -0.2675
    7CHL1  H18A  472   5.584   3.159   9.597 -0.1014  1.1802 -1.5017
    7CHL1  H18B  473   5.519   3.216   9.746  0.1160  1.4380  1.1553
    7CHL1  H18C  474   5.612   3.332   9.641  1.4653 -0.3416 -0.8910
    7CHL1   C12  475   5.752   3.059   9.819 -0.2974 -0.3705  0.1066
    7CHL1  H12A  476   5.736   2.983   9.740 -0.4932 -0.6500  0.4126
    7CHL1  H12B  477   5.856   3.032   9.848  0.0159 -1.6994 -2.0284
    7CHL1   C11  478   5.647   3.036   9.927 -0.1967  0.0980  0.1401
    7CHL1  H11A  479   5.552   3.044   9.871 -0.6016 -1.4450  0.5380
    7CHL1  H11B  480   5.652   2.931   9.964  1.5725  0.1844  0.2251
    7CHL1    C9  481   5.651   3.123  10.053 -0.1478 -0.7893  0.3316
    7CHL1    H9  482   5.748   3.105  10.104  0.5881  0.1053 -0.6791
    7CHL1   C10  483   5.546   3.099  10.160 -0.4276  1.1284  0.4162
    7CHL1   C19  484   5.407   3.082  10.092  0.7835  0.6519  0.0086
    7CHL1  H19A  485   5.379   3.171  10.031  0.9377  1.0964  0.5723
    7CHL1  H19B  486   5.412   2.990  10.030 -0.3208  0.3461  0.3557
    7CHL1  H19C  487   5.331   3.058  10.169  0.3594  0.1329 -0.5558
    7CHL1    C1  488   5.588   2.964  10.235  0.5370  0.1481  0.4905
    7CHL1   H1A  489   5.586   2.876  10.167  3.6566 -0.9106  1.5683
    7CHL1   H1B  490   5.696   2.981  10.255  0.7694  0.5200 -0.9835
    7CHL1    C2  491   5.513   2.931  10.364 -0.1079 -0.0422  0.2751
    7CHL1   H2A  492   5.534   2.830  10.405 -0.6188  0.4094  1.6880
    7CHL1   H2B  493   5.406   2.917  10.339 -0.7000  1.1771  1.9384
    7CHL1   C20  494   5.853   3.231   9.527  0.3254  0.0334 -0.0120
    7CHL1   H20  495   5.764   3.269   9.473  0.3086  0.9024  0.6149
    7CHL1   C21  496   5.855   3.079   9.480  0.6202 -0.6022  0.7858
    7CHL1  H21A  497   5.959   3.038   9.488  0.8928 -0.2321 -0.6842
    7CHL1  H21B  498   5.825   3.090   9.374  0.5261 -0.1535  0.8590
    7CHL1  H21C  499   5.781   3.018   9.536  1.2004  0.6908  3.1196
    7CHL1   C22  500   5.973   3.306   9.464 -1.8340 -0.2240 -1.1463
    7CHL1  H22A  501   5.947   3.414   9.469 -1.2586 -0.1550  2.2205
    7CHL1  H22B  502   6.059   3.279   9.528 -2.7687  0.8615  0.6513
    7CHL1   C23  503   6.008   3.268   9.317 -0.7093 -0.2464 -0.2402
    7CHL1  H23A  504   6.032   3.160   9.307 -1.6887 -0.7362  2.0112
    7CHL1  H23B  505   5.913   3.275   9.261 -1.1861 -2.5046  0.1891
    7CHL1   C24  506   6.120   3.358   9.262  0.0544 -0.0295  0.5010
    7CHL1  H24A  507   6.108   3.458   9.308 -0.6449 -1.2188  3.0322
    7CHL1  H24B  508   6.222   3.324   9.289  0.6576 -0.8949 -2.4351
    7CHL1   C25  509   6.128   3.350   9.108  0.3733  0.5796  0.0662
    7CHL1   H25  510   6.022   3.359   9.076  0.0830  3.6932  1.5281
    7CHL1   C26  511   6.212   3.462   9.044 -0.3137  0.3992 -0.0249
    7CHL1  H26A  512   6.184   3.449   8.937  2.7597 -4.0660 -0.5567
    7CHL1  H26B  513   6.189   3.567   9.070 -0.1588  0.7244 -1.1592
    7CHL1  H26C  514   6.319   3.442   9.064 -0.6096 -0.8648  0.4197
    7CHL1   C27  515   6.198   3.217   9.057  0.2283  0.0380  0.6035
    7CHL1  H27A  516   6.305   3.218   9.085 -0.3545 -2.2637  3.2973
    7CHL1  H27B  517   6.160   3.122   9.101  0.9616  0.5272  2.3532
    7CHL1  H27C  518   6.179   3.205   8.948 -0.0994 -0.0504  0.6693
    8CHL1    C3  519   4.882   3.938  10.181  0.0630  0.3459  0.0255
    8CHL1    H3  520   4.871   4.037  10.132 -0.0735  0.0885 -0.4729
    8CHL1    O3  521   4.928   3.942  10.315 -0.2558  0.0654  0.8770
    8CHL1   H3'  522   4.867   3.995  10.367 -0.4789  0.3657  0.3255
    8CHL1    C4  523   4.758   3.854  10.175 -0.2371  1.1616  0.3768
    8CHL1   H4A  524   4.790   3.755  10.213 -1.1473  0.9137  0.5269
    8CHL1   H4B  525   4.669   3.883  10.235 -0.9398  0.9389 -0.5242
    8CHL1    C5  526   4.716   3.840  10.027  0.3368  0.4553  0.0861
    8CHL1    C6  527   4.598   3.892   9.977 -0.1763 -0.0459  0.5864
    8CHL1    H6  528   4.531   3.952  10.040 -0.7033 -1.6595  1.6162
    8CHL1    C7  529   4.559   3.892   9.832  0.2595  0.3661 -0.4023
    8CHL1   H7A  530   4.454   3.859   9.819  0.2392 -0.1584  0.9387
    8CHL1   H7B  531   4.559   3.993   9.786  0.0524 -0.3725 -2.1222
    8CHL1    C8  532   4.645   3.790   9.749  0.2319  0.3002 -0.2430
    8CHL1    H8  533   4.602   3.689   9.763 -2.2866  0.7540 -3.4820
    8CHL1   C14  534   4.632   3.826   9.596 -0.0049  0.5838 -0.6472
    8CHL1   H14  535   4.667   3.931   9.599  1.0271  0.2593 -0.8570
    8CHL1   C15  536   4.495   3.821   9.535  0.2910  0.4796 -0.4477
    8CHL1  H15A  537   4.439   3.730   9.569 -0.5778  0.3336 -2.1655
    8CHL1  H15B  538   4.429   3.905   9.566 -0.6406 -0.9824  1.8547
    8CHL1   C16  539   4.523   3.823   9.382 -0.6534 -0.2279  0.1236
    8CHL1  H16A  540   4.466   3.741   9.333 -0.9610 -0.6197  1.1168
    8CHL1  H16B  541   4.506   3.924   9.340  3.0587  0.2190 -0.6807
    8CHL1   C17  542   4.681   3.807   9.365  0.0494  0.0686 -0.4809
    8CHL1   H17  543   4.723   3.910   9.361  1.7956 -0.2992  3.4374
    8CHL1   C13  544   4.724   3.741   9.502 -0.5086 -0.8293  0.3475
    8CHL1   C18  545   4.687   3.595   9.510  0.2347  0.4105 -0.3756
    8CHL1  H18A  546   4.690   3.563   9.616 -0.8279  0.3797 -0.3385
    8CHL1  H18B  547   4.580   3.576   9.488 -0.2286  0.0540  1.9036
    8CHL1  H18C  548   4.758   3.526   9.460 -0.7524 -1.1348  0.2909
    8CHL1   C12  549   4.873   3.771   9.539  0.7627 -0.5924 -0.1889
    8CHL1  H12A  550   4.933   3.704   9.474 -0.6854 -1.2346 -0.8972
    8CHL1  H12B  551   4.903   3.877   9.520  0.4294 -0.3215  0.7404
    8CHL1   C11  552   4.889   3.736   9.688 -0.0533 -0.4104 -0.0732
    8CHL1  H11A  553   4.873   3.627   9.701  1.7367 -0.5517  1.3115
    8CHL1  H11B  554   4.994   3.763   9.716 -0.3621 -0.2800  0.9783
    8CHL1    C9  555   4.793   3.808   9.783 -0.3134  0.2754 -0.6398
    8CHL1    H9  556   4.802   3.917   9.764 -0.4822  0.8472  2.1254
    8CHL1   C10  557   4.824   3.780   9.928 -0.3595 -0.0490 -0.2250
    8CHL1   C19  558   4.830   3.632   9.956 -0.5579  0.7352  0.3152
    8CHL1  H19A  559   4.864   3.622  10.061 -1.4349  0.4908  0.5887
    8CHL1  H19B  560   4.737   3.573   9.945  1.0972 -1.9298 -0.2099
    8CHL1  H19C  561   4.910   3.576   9.903  2.2255  3.2848  1.5000
    8CHL1    C1  562   4.955   3.850   9.962 -0.1622 -0.1545 -1.0307
    8CHL1   H1A  563   5.045   3.798   9.921 -0.3948  1.2645 -3.4935
    8CHL1   H1B  564   4.970   3.952   9.921  0.2862 -0.0860 -0.7045
    8CHL1    C2  565   4.992   3.855  10.111 -0.3211 -0.4761 -0.5708
    8CHL1   H2A  566   5.095   3.895  10.116 -0.2191 -0.7573 -0.4009
    8CHL1   H2B  567   4.996   3.755  10.159  0.4247 -0.2900 -0.2427
    8CHL1   C20  568   4.727   3.732   9.236  0.0906 -0.4911  0.1323
    8CHL1   H20  569   4.699   3.625   9.247 -2.1589  0.0141 -0.1506
    8CHL1   C21  570   4.879   3.751   9.218  0.1353 -0.7291  0.0754
    8CHL1  H21A  571   4.943   3.682   9.279  2.2721  1.3502  0.3304
    8CHL1  H21B  572   4.910   3.856   9.235 -0.5999 -0.4587 -0.2062
    8CHL1  H21C  573   4.893   3.734   9.109 -0.8984  1.1923 -0.3974
    8CHL1   C22  574   4.645   3.784   9.112  0.0852  0.1398 -0.1835
    8CHL1  H22A  575   4.537   3.775   9.136 -0.2802 -0.2137 -1.8367
    8CHL1  H22B  576   4.657   3.889   9.078 -0.1057  0.2818  0.1780
    8CHL1   C23  577   4.672   3.700   8.987 -0.9293 -0.8291  0.1979
    8CHL1  H23A  578   4.766   3.736   8.940 -0.3249 -0.6038  1.5368
    8CHL1  H23B  579   4.679   3.593   9.018 -1.2809 -0.8043  0.3677
    8CHL1   C24  580   4.554   3.706   8.886 -0.0191  0.0469  0.2339
    8CHL1  H24A  581   4.458   3.682   8.936 -1.5435 -0.3205 -2.6431
    8CHL1  H24B  582   4.545   3.811   8.853 -2.7790 -0.4465 -0.8585
    8CHL1   C25  583   4.576   3.618   8.767 -0.2914 -0.7465 -0.4480
    8CHL1   H25  584   4.621   3.521   8.797  1.8992  0.2170 -0.4864
    8CHL1   C26  585   4.433   3.603   8.701 -0.6119  0.0097  1.0043
    8CHL1  H26A  586   4.351   3.572   8.770 -1.3654 -0.6817 -0.1574
    8CHL1  H26B  587   4.414   3.698   8.648  0.0935 -0.2230  0.3136
    8CHL1  H26C  588   4.420   3.532   8.616 -2.0165  1.3797  0.0193
    8CHL1   C27  589   4.685   3.675   8.677 -0.2825 -0.2300 -0.4167
    8CHL1  H27A  590   4.712   3.612   8.589  2.8389 -1.5453  1.3323
    8CHL1  H27B  591   4.640   3.767   8.635 -0.5931 -1.0014 -1.8353
    8CHL1  H27C  592   4.779   3.699   8.730 -0.3876  0.8928 -0.7186
    9CHL1    C3  593   2.667   1.426   9.921  0.1058  0.0826  0.4326
    9CHL1    H3  594   2.708   1.328   9.887  0.8238  0.0974  1.2295
    9CHL1    O3  595   2.637   1.421  10.060  0.8580  0.6130 -0.3928
    9CHL1   H3'  596   2.557   1.471  10.080  1.0206  0.7960 -0.2000
    9CHL1    C4  597   2.765   1.534   9.904  0.6634  1.2036  0.2339
    9CHL1   H4A  598   2.722   1.630   9.939  0.3776  0.9883  0.4864
    9CHL1   H4B  599   2.845   1.500   9.973  0.3619 -2.1456 -0.8848
    9CHL1    C5  600   2.812   1.542   9.759 -0.1742  0.9695 -0.2961
    9CHL1    C6  601   2.945   1.519   9.729  0.1737 -0.7085  1.1513
    9CHL1    H6  602   3.019   1.514   9.810  1.9422  2.9130 -0.0224
    9CHL1    C7  603   2.998   1.526   9.596  0.4763  0.7084  0.5202
    9CHL1   H7A  604   3.094   1.582   9.590  1.3657 -0.8901 -1.2914
    9CHL1   H7B  605   3.028   1.424   9.563 -2.1129 -0.3208  1.1111
    9CHL1    C8  606   2.895   1.566   9.484  0.9970  0.3952  0.0528
    9CHL1    H8  607   2.896   1.676   9.469 -0.6518  0.3789 -0.3766
    9CHL1   C14  608   2.925   1.500   9.353  0.4328 -0.2301  0.7242
    9CHL1   H14  609   2.915   1.390   9.359 -1.7926 -0.2015 -1.0579
    9CHL1   C15  610   3.067   1.532   9.296 -0.1674  0.0632 -0.7639
    9CHL1  H15A  611   3.094   1.637   9.321 -0.8069 -0.3138  1.8066
    9CHL1  H15B  612   3.140   1.472   9.354 -1.1081 -1.4099 -1.0396
    9CHL1   C16  613   3.069   1.498   9.148  0.2706 -0.1577  0.1404
    9CHL1  H16A  614   3.111   1.578   9.083  1.7488 -1.4098 -0.4878
    9CHL1  H16B  615   3.130   1.407   9.131 -2.5837 -1.8676 -1.6444
    9CHL1   C17  616   2.917   1.472   9.109 -0.3599  0.0122 -0.2923
    9CHL1   H17  617   2.901   1.362   9.114 -0.9377  0.0738 -0.6850
    9CHL1   C13  618   2.835   1.540   9.230 -0.2416 -0.2899 -1.3193
    9CHL1   C18  619   2.832   1.687   9.208  0.0850 -0.1962 -0.3064
    9CHL1  H18A  620   2.790   1.744   9.293  3.1138  1.9170 -0.0215
    9CHL1  H18B  621   2.936   1.725   9.189  0.4202 -0.8805  0.1432
    9CHL1  H18C  622   2.777   1.710   9.114 -1.0471 -1.0188  0.1476
    9CHL1   C12  623   2.691   1.494   9.258  0.1481 -0.2339 -0.0801
    9CHL1  H12A  624   2.617   1.540   9.188 -0.2563 -2.6177 -1.3096
    9CHL1  H12B  625   2.695   1.384   9.246  0.3217 -0.0703 -1.7701
    9CHL1   C11  626   2.646   1.539   9.402 -0.1363  0.5087  0.0906
    9CHL1  H11A  627   2.641   1.650   9.402  0.9538  0.5678  0.5229
    9CHL1  H11B  628   2.543   1.499   9.412 -0.7810  2.3653  1.5435
    9CHL1    C9  629   2.752   1.510   9.512 -0.4930  0.0792 -0.2655
    9CHL1    H9  630   2.776   1.401   9.510  0.5377  0.3033 -1.4935
    9CHL1   C10  631   2.697   1.550   9.659  0.2213  0.0873  0.1114
    9CHL1   C19  632   2.651   1.696   9.665  0.3188  0.9737  0.0085
    9CHL1  H19A  633   2.739   1.760   9.642 -0.2889  1.5851 -0.6780
    9CHL1  H19B  634   2.564   1.708   9.597 -1.0543 -2.3689  1.0087
    9CHL1  H19C  635   2.607   1.716   9.764 -0.7249 -1.1144  0.0167
    9CHL1    C1  636   2.576   1.460   9.697  0.9143  0.1561 -0.2665
    9CHL1   H1A  637   2.491   1.494   9.634 -0.2862 -0.4742  0.9320
    9CHL1   H1B  638   2.596   1.358   9.658 -3.5806 -0.9636 -0.2287
    9CHL1    C2  639   2.543   1.459   9.847 -1.3813 -0.2714  0.4880
    9CHL1   H2A  640   2.459   1.390   9.869 -0.8523 -0.8069  0.8748
    9CHL1   H2B  641   2.502   1.556   9.883  2.4994  1.1482  1.5752
    9CHL1   C20  642   2.882   1.521   8.967 -0.6401 -0.5101  0.2959
    9CHL1   H20  643   2.879   1.632   8.963 -1.4176 -0.5521 -2.2919
    9CHL1   C21  644   2.737   1.476   8.938  0.2741  0.0734  0.4185
    9CHL1  H21A  645   2.716   1.498   8.831 -0.0364 -1.3653  0.1603
    9CHL1  H21B  646   2.662   1.533   8.997  0.5391  1.1990 -0.3110
    9CHL1  H21C  647   2.721   1.366   8.943 -0.5802  0.0034 -2.1744
    9CHL1   C22  648   2.979   1.472   8.856  0.0722  0.3011 -0.6950
    9CHL1  H22A  649   2.963   1.546   8.774  1.5186  0.0415 -1.2403
    9CHL1  H22B  650   3.085   1.482   8.886 -0.7038  1.2495  2.0104
    9CHL1   C23  651   2.963   1.330   8.797  0.1142 -0.3005 -0.0585
    9CHL1  H23A  652   3.062   1.316   8.747 -0.5444 -0.7951 -1.2849
    9CHL1  H23B  653   2.962   1.252   8.877 -0.8568 -0.9212 -0.6532
    9CHL1   C24  654   2.859   1.318   8.681 -0.0530  0.1119  0.3809
    9CHL1  H24A  655   2.755   1.304   8.716 -0.1197 -0.2789  0.0332
    9CHL1  H24B  656   2.862   1.413   8.624  0.5493  0.1413  0.4462
    9CHL1   C25  657   2.891   1.203   8.587 -0.0652  0.1168  0.2730
    9CHL1   H25  658   2.822   1.212   8.501 -2.7290  0.1557  2.2878
    9CHL1   C26  659   3.031   1.199   8.517 -0.3544  0.4483  0.0818
    9CHL1  H26A  660   3.115   1.186   8.589  0.4822 -5.3423 -1.4900
    9CHL1  H26B  661   3.046   1.105   8.460  0.8975  0.0814  0.9644
    9CHL1  H26C  662   3.046   1.299   8.469 -1.0652 -0.3749 -1.9605
    9CHL1   C27  663   2.853   1.074   8.655 -0.8955  0.2973  0.0323
    9CHL1  H27A  664   2.859   0.988   8.584 -1.9445  0.9518 -0.8996
    9CHL1  H27B  665   2.919   1.051   8.740 -0.6991 -0.2302 -0.2557
    9CHL1  H27C  666   2.749   1.089   8.692 -0.4306  2.8544  0.4689
   10CHL1    C3  667   0.935   5.981  10.031 -0.3016 -0.8234 -0.3589
   10CHL1    H3  668   1.037   6.008  10.065 -0.5828 -0.4290  0.1853
   10CHL1    O3  669   0.872   5.926  10.141 -0.1537  0.5859 -0.2822
   10CHL1   H3'  670   0.929   5.855  10.171 -0.9883  0.2828  0.6225
   10CHL1    C4  671   0.860   6.111   9.993  0.0573  0.2792 -0.3296
   10CHL1   H4A  672   0.750   6.094   9.987 -0.0278  0.8065 -0.3046
   10CHL1   H4B  673   0.877   6.191  10.068  1.1442 -0.0518 -0.1957
   10CHL1    C5  674   0.911   6.162   9.858  0.2690 -0.3031 -0.8585
   10CHL1    C6  675   0.959   6.288   9.857  0.6813 -0.0353  0.6398
   10CHL1    H6  676   0.943   6.345   9.949 -0.6371  0.0300  0.3802
   10CHL1    C7  677   1.010   6.358   9.728  0.8279  0.4936  0.2270
   10CHL1   H7A  678   0.969   6.459   9.707 -0.5256 -0.0916 -0.0694
   10CHL1   H7B  679   1.121   6.357   9.739  1.0763  1.4703 -1.7453
   10CHL1    C8  680   0.983   6.271   9.600 -0.4132 -0.4492 -0.5243
   10CHL1    H8  681   0.880   6.288   9.563  0.2189 -0.2559 -2.3326
   10CHL1   C14  682   1.071   6.321   9.486  0.1661 -0.5592  0.1058
   10CHL1   H14  683   1.175   6.301   9.518  0.3900 -2.3450 -1.5631
   10CHL1   C15  684   1.055   6.470   9.457  0.0462 -0.3664  0.5194
   10CHL1  H15A  685   0.950   6.506   9.444  0.1103 -0.5751 -0.6638
   10CHL1  H15B  686   1.112   6.526   9.534  3.0591 -1.3511 -0.8342
   10CHL1   C16  687   1.116   6.487   9.316  0.4197  0.5181 -0.1211
   10CHL1  H16A  688   1.044   6.538   9.249 -0.7776  0.7032  1.2464
   10CHL1  H16B  689   1.213   6.539   9.329  0.2397  0.9886 -0.6631
   10CHL1   C17  690   1.146   6.347   9.260  0.4321 -0.2611  0.4658
   10CHL1   H17  691   1.249   6.313   9.288  0.9528  1.6126  0.9608
   10CHL1   C13  692   1.057   6.254   9.352  0.4230 -0.1031  0.2776
   10CHL1   C18  693   0.920   6.263   9.289 -0.0173  0.5188  0.1516
   10CHL1  H18A  694   0.891   6.365   9.254 -0.0247  0.8338  1.0628
   10CHL1  H18B  695   0.909   6.183   9.213 -1.5460  0.0267  0.8623
   10CHL1  H18C  696   0.848   6.241   9.370 -0.3295 -0.8234 -0.4624
   10CHL1   C12  697   1.090   6.101   9.372  0.5592  0.8668 -0.3396
   10CHL1  H12A  698   1.082   6.051   9.273  0.9726  3.4652 -1.8086
   10CHL1  H12B  699   1.193   6.101   9.412  0.0574 -1.7165  1.1408
   10CHL1   C11  700   1.002   6.036   9.486  0.6387 -0.6150  0.2059
   10CHL1  H11A  701   0.899   6.028   9.445  0.7499 -0.2078 -0.1641
   10CHL1  H11B  702   1.026   5.929   9.500 -2.0263 -1.4059 -0.6299
   10CHL1    C9  703   1.002   6.121   9.622 -0.1405  0.4576 -0.5857
   10CHL1    H9  704   1.110   6.124   9.649 -0.3785  0.6087  0.3665
   10CHL1   C10  705   0.921   6.061   9.744 -0.5270 -1.1912 -0.7389
   10CHL1   C19  706   0.780   6.034   9.686  0.3271  0.1482  0.5562
   10CHL1  H19A  707   0.789   5.945   9.620  1.4063 -0.7466  1.8439
   10CHL1  H19B  708   0.711   5.995   9.764  2.6122  0.2123  2.7586
   10CHL1  H19C  709   0.733   6.124   9.640 -1.0070 -0.2998  1.0053
   10CHL1    C1  710   0.997   5.941   9.795 -0.3087 -0.4323 -0.4977
   10CHL1   H1A  711   0.998   5.865   9.714 -0.0557  0.2098 -1.1096
   10CHL1   H1B  712   1.104   5.969   9.809 -0.0690 -0.0634 -2.6420
   10CHL1    C2  713   0.942   5.877   9.922  0.7935 -0.0008 -0.2120
   10CHL1   H2A  714   0.999   5.791   9.963 -0.2488 -0.2529  0.7725
   10CHL1   H2B  715   0.842   5.832   9.902  0.8366 -2.0112  3.2485
   10CHL1   C20  716   1.143   6.337   9.108 -0.0342 -0.3923  0.4189
   10CHL1   H20  717   1.057   6.389   9.061  0.8244 -0.3813 -1.2409
   10CHL1   C21  718   1.159   6.194   9.057 -0.2608  0.7193  0.5252
   10CHL1  H21A  719   1.056   6.151   9.058 -0.3791  0.9584 -0.4294
   10CHL1  H21B  720   1.239   6.130   9.101  0.5074  0.3934 -1.2566
   10CHL1  H21C  721   1.180   6.192   8.948 -2.0752  3.3882  0.0252
   10CHL1   C22  722   1.260   6.414   9.048 -0.6573 -1.0039  0.7101
   10CHL1  H22A  723   1.284   6.498   9.117  0.8246 -0.2143 -0.7053
   10CHL1  H22B  724   1.334   6.333   9.065 -1.4326 -1.3315  2.8214
   10CHL1   C23  725   1.243   6.459   8.899 -0.1916 -0.0934 -0.3910
   10CHL1  H23A  726   1.226   6.375   8.828  1.4462  0.5011 -1.5634
   10CHL1  H23B  727   1.154   6.525   8.898  0.0182  0.1976 -1.5252
   10CHL1   C24  728   1.358   6.546   8.837  0.2572 -0.2749 -0.1178
   10CHL1  H24A  729   1.347   6.647   8.882  0.7348  0.0809 -0.7755
   10CHL1  H24B  730   1.458   6.508   8.867 -0.2424 -0.6192  1.1429
   10CHL1   C25  731   1.352   6.541   8.676 -0.3285  0.6942 -0.1245
   10CHL1   H25  732   1.352   6.437   8.638  0.6631  0.8478 -0.5677
   10CHL1   C26  733   1.237   6.629   8.625  0.5205 -0.4127 -0.5564
   10CHL1  H26A  734   1.239   6.728   8.676  0.4443 -0.2854 -0.7968
   10CHL1  H26B  735   1.229   6.626   8.514 -2.0454 -1.1926 -0.4140
   10CHL1  H26C  736   1.139   6.590   8.661  1.5885 -1.2555  1.5911
   10CHL1   C27  737   1.473   6.609   8.623 -0.8932 -0.5591 -0.3227
   10CHL1  H27A  738   1.569   6.561   8.649 -0.3231 -0.1642 -1.6215
   10CHL1  H27B  739   1.463   6.611   8.512 -0.0603  2.7104 -0.4300
   10CHL1  H27C  740   1.480   6.712   8.663 -4.2682  0.0685 -1.0083
   11CHL1    C3  741   5.431   0.841  10.156  0.3577  0.1550 -0.1251
   11CHL1    H3  742   5.426   0.731  10.139 -0.1410  0.2655 -0.6982
   11CHL1    O3  743   5.495   0.865  10.280  0.1022  0.3715  0.0372
   11CHL1   H3'  744   5.429   0.920  10.323 -0.2642  0.7789 -1.0396
   11CHL1    C4  745   5.500   0.912  10.040  0.2006 -0.1969  1.0705
   11CHL1   H4A  746   5.505   1.020  10.067 -1.5733 -0.0201  0.7751
   11CHL1   H4B  747   5.605   0.874  10.043  0.6299  0.8530  0.3229
   11CHL1    C5  748   5.430   0.883   9.909 -0.3012  0.2391  1.1708
   11CHL1    C6  749   5.492   0.829   9.809 -0.5900  0.6076 -0.2133
   11CHL1    H6  750   5.602   0.819   9.814 -0.6480  0.4820  2.4237
   11CHL1    C7  751   5.435   0.794   9.679  0.7828  0.1042 -1.0691
   11CHL1   H7A  752   5.505   0.844   9.609  0.8982 -2.2580 -2.7863
   11CHL1   H7B  753   5.432   0.683   9.664  1.2958 -0.1287  0.3860
   11CHL1    C8  754   5.283   0.837   9.659 -0.0352  0.8930 -0.1291
   11CHL1    H8  755   5.291   0.946   9.639 -0.5225  0.8462 -0.6089
   11CHL1   C14  756   5.220   0.761   9.551  0.8312  0.2390 -0.0391
   11CHL1   H14  757   5.217   0.659   9.595 -2.0533 -0.9445 -2.5514
   11CHL1   C15  758   5.285   0.750   9.407 -0.6477  0.3001 -0.7042
   11CHL1  H15A  759   5.340   0.842   9.376  0.0712 -0.6358 -2.3245
   11CHL1  H15B  760   5.364   0.672   9.409  0.6084  1.5247 -1.0648
   11CHL1   C16  761   5.173   0.703   9.316  0.2927 -0.5576 -0.0853
   11CHL1  H16A  762   5.170   0.769   9.226 -1.2140  1.1851  1.1685
   11CHL1  H16B  763   5.181   0.605   9.265  1.6757  1.2917 -3.8803
   11CHL1   C17  764   5.043   0.714   9.399 -0.4346 -0.4097 -0.6541
   11CHL1   H17  765   5.032   0.612   9.443  1.2675  0.0780  1.0497
   11CHL1   C13  766   5.079   0.808   9.523 -0.5767 -0.1035 -0.2536
   11CHL1   C18  767   5.083   0.962   9.486 -0.0464  0.2147 -0.1659
   11CHL1  H18A  768   5.159   0.970   9.406  0.3896  1.8695  0.3933
   11CHL1  H18B  769   4.981   1.000   9.462 -1.8019 -2.3435  2.5014
   11CHL1  H18C  770   5.121   1.019   9.573  0.1175 -0.0109 -0.0901
   11CHL1   C12  771   4.995   0.783   9.638 -0.1332  0.1741  0.2810
   11CHL1  H12A  772   4.902   0.841   9.621 -0.4327 -0.6675 -1.0377
   11CHL1  H12B  773   4.969   0.675   9.647 -1.1235  0.3730 -0.0585
   11CHL1   C11  774   5.059   0.841   9.769  0.2278 -0.5038  0.6889
   11CHL1  H11A  775   5.042   0.951   9.762 -2.1366 -0.4879  4.0718
   11CHL1  H11B  776   5.004   0.812   9.862  2.2932 -2.8970  1.2640
   11CHL1    C9  777   5.207   0.814   9.789  0.3916  0.5536  0.7882
   11CHL1    H9  778   5.215   0.710   9.825  0.1400 -0.2281 -1.2730
   11CHL1   C10  779   5.276   0.898   9.899 -0.4319 -0.1725 -0.1238
   11CHL1   C19  780   5.248   1.052   9.877 -0.1198 -0.4939 -0.0733
   11CHL1  H19A  781   5.305   1.105   9.798  0.6871 -1.0881  0.1069
   11CHL1  H19B  782   5.140   1.079   9.886  0.4749  1.4298  2.5653
   11CHL1  H19C  783   5.292   1.099   9.968 -0.1637 -0.2917 -0.1562
   11CHL1    C1  784   5.211   0.845  10.036  0.6555 -0.3335  0.0651
   11CHL1   H1A  785   5.103   0.871  10.045  0.7659 -0.1356  0.9350
   11CHL1   H1B  786   5.197   0.735  10.038 -3.4436 -0.0004 -1.0842
   11CHL1    C2  787   5.286   0.887  10.162  0.0743  0.3868  0.2582
   11CHL1   H2A  788   5.234   0.846  10.251  0.2618  1.0773  0.6975
   11CHL1   H2B  789   5.277   0.998  10.167 -0.5361  0.4074 -1.0659
   11CHL1   C20  790   4.924   0.743   9.313  0.6227 -0.0311 -0.2876
   11CHL1   H20  791   4.931   0.850   9.286 -3.6564  0.2608 -0.8804
   11CHL1   C21  792   4.795   0.716   9.386  0.0404  0.0630  0.7365
   11CHL1  H21A  793   4.768   0.608   9.383 -0.2105  0.0445  2.7229
   11CHL1  H21B  794   4.710   0.761   9.330 -0.5946 -3.3370 -1.3402
   11CHL1  H21C  795   4.789   0.762   9.487  2.6387  0.1082  0.9428
   11CHL1   C22  796   4.919   0.666   9.186 -0.5177 -0.5326  1.3506
   11CHL1  H22A  797   5.012   0.692   9.132  1.0733 -3.1210  2.6247
   11CHL1  H22B  798   4.919   0.556   9.202 -0.3367 -0.5855  0.9907
   11CHL1   C23  799   4.809   0.703   9.086  0.4662 -0.4129  0.9395
   11CHL1  H23A  800   4.835   0.644   8.995  1.3070 -0.5585  1.2588
   11CHL1  H23B  801   4.708   0.667   9.114 -1.3293  1.4962 -2.4378
   11CHL1   C24  802   4.776   0.845   9.049 -0.7819 -0.2034 -0.1597
   11CHL1  H24A  803   4.727   0.897   9.134 -0.7985 -1.5189  0.6719
   11CHL1  H24B  804   4.875   0.894   9.036 -0.4539 -0.9962 -0.7006
   11CHL1   C25  805   4.687   0.862   8.925 -0.0182 -0.1009 -0.0981
   11CHL1   H25  806   4.613   0.783   8.951  1.8855 -2.0234 -0.2517
   11CHL1   C26  807   4.623   0.998   8.925  0.7172 -0.3309 -0.9699
   11CHL1  H26A  808   4.537   1.003   8.856  0.2156 -0.9452 -0.4044
   11CHL1  H26B  809   4.582   1.021   9.026  1.1919  4.0677 -1.5878
   11CHL1  H26C  810   4.703   1.073   8.911  1.6080 -0.6231  1.8586
   11CHL1   C27  811   4.743   0.823   8.791  0.1269 -0.3003 -0.1744
   11CHL1  H27A  812   4.839   0.872   8.764 -0.2221 -0.9497 -2.8811
   11CHL1  H27B  813   4.759   0.714   8.780 -0.3452 -0.3159 -0.7677
   11CHL1  H27C  814   4.663   0.853   8.720 -1.0909 -0.3908  1.1188
   12CHL1    C3  815   5.836   4.879  10.360  0.2309  0.2427 -0.0595
   12CHL1    H3  816   5.885   4.973  10.325  1.0679  0.2452  1.0622
   12CHL1    O3  817   5.822   4.871  10.502 -0.3757  0.2230  0.3612
   12CHL1   H3'  818   5.732   4.843  10.517  0.0711 -2.7221 -1.5364
   12CHL1    C4  819   5.694   4.866  10.292 -0.0997  0.0465 -0.4363
   12CHL1   H4A  820   5.639   4.783  10.341 -0.7519  1.0324  0.5477
   12CHL1   H4B  821   5.633   4.951  10.328 -1.4544 -1.3077  0.6148
   12CHL1    C5  822   5.692   4.875  10.143 -0.6056  0.1790  0.0462
   12CHL1    C6  823   5.633   4.971  10.075  0.2479 -0.6476 -0.3638
   12CHL1    H6  824   5.562   5.038  10.125  0.6751 -0.3380 -0.1600
   12CHL1    C7  825   5.621   4.971   9.925 -0.2160 -0.3507 -0.3453
   12CHL1   H7A  826   5.516   4.995   9.894 -0.2805  1.4288  1.0586
   12CHL1   H7B  827   5.678   5.059   9.888 -0.4208 -1.0689 -2.5699
   12CHL1    C8  828   5.668   4.839   9.861 -0.2557 -0.3220 -0.0982
   12CHL1    H8  829   5.593   4.758   9.873 -0.2097 -0.3553 -0.0262
   12CHL1   C14  830   5.698   4.870   9.713  0.4853 -0.4843  0.1684
   12CHL1   H14  831   5.783   4.941   9.711  0.4833 -0.4688  0.5299
   12CHL1   C15  832   5.591   4.946   9.627  0.2631 -0.0880 -0.9759
   12CHL1  H15A  833   5.494   4.895   9.644  0.0644  0.5752 -0.0499
   12CHL1  H15B  834   5.588   5.057   9.629  0.1555 -0.0208  3.3441
   12CHL1   C16  835   5.638   4.905   9.487  0.0367 -0.6156  0.2728
   12CHL1  H16A  836   5.545   4.864   9.441  0.2588 -0.0031 -0.7561
   12CHL1  H16B  837   5.666   4.995   9.428 -1.1393 -0.3767  0.0588
   12CHL1   C17  838   5.751   4.801   9.501  0.5497 -0.6200 -0.0381
   12CHL1   H17  839   5.841   4.866   9.489 -0.0486 -0.0045 -1.5535
   12CHL1   C13  840   5.745   4.740   9.637  1.3231  0.0247  0.9301
   12CHL1   C18  841   5.641   4.625   9.631  0.2168  0.2431 -0.2266
   12CHL1  H18A  842   5.558   4.645   9.560  0.0303 -0.7509 -0.2980
   12CHL1  H18B  843   5.687   4.530   9.595  0.7568 -0.4788  2.2289
   12CHL1  H18C  844   5.596   4.588   9.725 -1.3150  1.1544 -0.5655
   12CHL1   C12  845   5.871   4.696   9.700  0.0909 -0.5818 -0.4325
   12CHL1  H12A  846   5.908   4.600   9.658  1.4103 -1.1225  1.8194
   12CHL1  H12B  847   5.952   4.770   9.685  0.3562 -0.8898 -0.5473
   12CHL1   C11  848   5.850   4.666   9.852  0.0088 -0.0374 -0.1028
   12CHL1  H11A  849   5.778   4.582   9.866  0.1651 -0.1325  0.1348
   12CHL1  H11B  850   5.949   4.633   9.891  0.2420  0.9045  0.1134
   12CHL1    C9  851   5.790   4.785   9.931 -0.2119 -1.3445 -0.4712
   12CHL1    H9  852   5.874   4.857   9.919  1.6337 -3.1647  0.7443
   12CHL1   C10  853   5.778   4.767  10.088 -0.4807 -0.3746 -0.2105
   12CHL1   C19  854   5.710   4.632  10.107 -0.0597 -0.1369  0.3376
   12CHL1  H19A  855   5.777   4.552  10.069 -0.4574 -0.0128 -0.6547
   12CHL1  H19B  856   5.678   4.621  10.214  3.2893 -2.0346  1.2880
   12CHL1  H19C  857   5.619   4.627  10.043  0.7467 -3.4557 -0.7447
   12CHL1    C1  858   5.923   4.770  10.156  0.5563 -0.2788  0.8243
   12CHL1   H1A  859   5.976   4.681  10.116 -0.5002 -0.3991 -0.3610
   12CHL1   H1B  860   5.981   4.860  10.127  0.7032 -1.0830 -1.6114
   12CHL1    C2  861   5.924   4.764  10.306  0.0448  0.7252 -0.4018
   12CHL1   H2A  862   6.032   4.772  10.335  1.0295 -0.3911 -3.3854
   12CHL1   H2B  863   5.878   4.675  10.353  0.0405  2.3553  3.0098
   12CHL1   C20  864   5.753   4.709   9.378  0.0292  0.9136 -0.3687
   12CHL1   H20  865   5.672   4.635   9.394 -0.4976  0.5481 -4.0072
   12CHL1   C21  866   5.884   4.633   9.363 -0.6278  0.0261 -0.2200
   12CHL1  H21A  867   5.873   4.552   9.287  0.9435  1.4758 -2.0858
   12CHL1  H21B  868   5.923   4.594   9.460  2.4010  2.9903 -0.0587
   12CHL1  H21C  869   5.963   4.704   9.332  1.0264 -1.3780  0.5777
   12CHL1   C22  870   5.731   4.775   9.238 -0.4258  0.7989  0.0212
   12CHL1  H22A  871   5.636   4.833   9.245 -0.5008  0.6285  0.4461
   12CHL1  H22B  872   5.816   4.845   9.227  1.8805 -1.5014  1.9023
   12CHL1   C23  873   5.731   4.680   9.118 -0.2854  0.4772 -0.1916
   12CHL1  H23A  874   5.838   4.661   9.095 -0.2793  1.7201 -1.2360
   12CHL1  H23B  875   5.678   4.583   9.133 -0.6020  0.5032 -1.0812
   12CHL1   C24  876   5.665   4.736   8.985 -0.0815 -0.5462  0.6195
   12CHL1  H24A  877   5.555   4.725   8.994 -0.7578  1.2802 -3.5468
   12CHL1  H24B  878   5.675   4.846   8.987  1.2807 -0.6219 -0.3338
   12CHL1   C25  879   5.711   4.685   8.842  0.0428  0.7949 -0.6278
   12CHL1   H25  880   5.812   4.724   8.820  0.6171 -0.6323 -0.6115
   12CHL1   C26  881   5.726   4.534   8.835 -0.1943  0.2728  0.3311
   12CHL1  H26A  882   5.627   4.484   8.831  0.5005 -1.4578  2.4511
   12CHL1  H26B  883   5.777   4.505   8.740  0.2425 -1.5944  1.0913
   12CHL1  H26C  884   5.782   4.488   8.919 -0.5865 -0.6395  0.1081
   12CHL1   C27  885   5.613   4.725   8.735  0.4288  0.2393 -0.1864
   12CHL1  H27A  886   5.604   4.836   8.737  3.5247  0.5672 -0.5570
   12CHL1  H27B  887   5.642   4.696   8.632 -1.5968 -1.2844 -0.4111
   12CHL1  H27C  888   5.513   4.677   8.751  0.7600 -0.1007  0.9285
   13CHL1    C3  889   5.093   4.490   9.962 -0.3034  0.4003  0.8334
   13CHL1    H3  890   5.042   4.394   9.935  1.5259 -0.8153  1.4891
   13CHL1    O3  891   5.096   4.484  10.106  0.3838 -0.1167  1.1204
   13CHL1   H3'  892   5.164   4.547  10.132  2.6089 -1.7120 -0.4780
   13CHL1    C4  893   5.233   4.504   9.905  0.1918 -0.0331 -0.4835
   13CHL1   H4A  894   5.281   4.596   9.944 -1.1100 -0.2761  1.8494
   13CHL1   H4B  895   5.290   4.416   9.939  1.9849  0.6454 -1.5822
   13CHL1    C5  896   5.240   4.514   9.755  0.3279  0.6199 -1.0152
   13CHL1    C6  897   5.307   4.427   9.683  0.1962  0.4680  0.0474
   13CHL1    H6  898   5.373   4.351   9.727  0.4546  0.6332 -0.0535
   13CHL1    C7  899   5.310   4.435   9.538 -0.7012  1.2163  0.3478
   13CHL1   H7A  900   5.407   4.413   9.488 -1.2224 -2.3136  0.6737
   13CHL1   H7B  901   5.234   4.361   9.506  0.8376 -0.0446 -0.5570
   13CHL1    C8  902   5.270   4.569   9.470 -0.3744  0.2705  0.0032
   13CHL1    H8  903   5.352   4.641   9.490  0.6853 -0.8266 -0.2516
   13CHL1   C14  904   5.241   4.546   9.321 -0.2497  0.3909 -0.0750
   13CHL1   H14  905   5.160   4.471   9.318 -1.1941  1.4279 -1.3502
   13CHL1   C15  906   5.348   4.474   9.232 -0.4636  0.7916 -0.1006
   13CHL1  H15A  907   5.445   4.520   9.258 -0.9249  1.2013  0.9253
   13CHL1  H15B  908   5.344   4.366   9.259 -0.2299  0.3616 -1.6786
   13CHL1   C16  909   5.304   4.506   9.088 -0.0882 -0.1757  0.1962
   13CHL1  H16A  910   5.391   4.558   9.043 -1.2316  0.9937 -0.7357
   13CHL1  H16B  911   5.279   4.422   9.019  2.2216 -0.0516 -0.8971
   13CHL1   C17  912   5.181   4.609   9.093 -0.1182 -0.2043  0.0444
   13CHL1   H17  913   5.092   4.545   9.079 -0.7732  0.7772 -0.4005
   13CHL1   C13  914   5.187   4.668   9.241  1.0333 -0.1982  0.2146
   13CHL1   C18  915   5.295   4.778   9.237 -0.0546 -0.8254  0.3024
   13CHL1  H18A  916   5.254   4.866   9.182  1.1399 -1.8201 -2.3499
   13CHL1  H18B  917   5.329   4.799   9.340  0.5610  1.6608 -0.3272
   13CHL1  H18C  918   5.385   4.740   9.183  0.6578  1.1536 -0.0140
   13CHL1   C12  919   5.060   4.709   9.310  1.0069  0.0267  0.6875
   13CHL1  H12A  920   5.017   4.803   9.269  0.5481  0.0656  1.2377
   13CHL1  H12B  921   4.989   4.624   9.322 -1.3428  1.7340 -0.3188
   13CHL1   C11  922   5.079   4.744   9.457  0.1945  0.0142  0.6071
   13CHL1  H11A  923   5.144   4.834   9.465 -1.5440  1.3144  0.5758
   13CHL1  H11B  924   4.985   4.774   9.508  0.2087 -0.1434  0.7265
   13CHL1    C9  925   5.138   4.621   9.531 -0.1751 -0.0680 -0.1934
   13CHL1    H9  926   5.067   4.537   9.516 -0.1358 -0.8774  3.3385
   13CHL1   C10  927   5.149   4.627   9.694  0.4955 -0.1844 -0.1865
   13CHL1   C19  928   5.214   4.768   9.730  0.3019 -0.0534  0.3844
   13CHL1  H19A  929   5.315   4.775   9.685  0.4757  1.6868  0.9786
   13CHL1  H19B  930   5.148   4.846   9.684  0.5163 -0.0109  0.1506
   13CHL1  H19C  931   5.226   4.793   9.838  2.3349 -0.5843  0.3157
   13CHL1    C1  932   4.999   4.615   9.755 -0.6032  0.0258 -0.1818
   13CHL1   H1A  933   4.942   4.705   9.724 -2.2142 -0.4498  1.2315
   13CHL1   H1B  934   4.936   4.532   9.718 -0.7068  0.6514 -1.4538
   13CHL1    C2  935   5.002   4.607   9.911  0.3012  0.4343  0.4333
   13CHL1   H2A  936   4.898   4.587   9.946 -0.4730  2.0626 -0.8085
   13CHL1   H2B  937   5.036   4.702   9.957 -4.1500  2.3926  0.2587
   13CHL1   C20  938   5.176   4.712   8.979  0.4412 -0.2982  0.5339
   13CHL1   H20  939   5.244   4.799   8.992  1.4645 -1.0070  0.0396
   13CHL1   C21  940   5.029   4.768   8.974  0.5149 -0.0495  0.5872
   13CHL1  H21A  941   4.959   4.681   8.980  0.6378 -0.3923 -1.8730
   13CHL1  H21B  942   5.005   4.813   8.875 -3.4208 -1.9780  0.4659
   13CHL1  H21C  943   5.018   4.855   9.042 -2.7916 -0.1967  0.3960
   13CHL1   C22  944   5.218   4.643   8.841 -0.8031 -0.7221  0.2071
   13CHL1  H22A  945   5.321   4.602   8.849 -0.4065  0.1486 -0.3499
   13CHL1  H22B  946   5.153   4.554   8.832  1.9797 -3.1620  2.2541
   13CHL1   C23  947   5.221   4.732   8.717  0.2311 -0.4003 -0.0166
   13CHL1  H23A  948   5.118   4.772   8.703  1.0203  2.4315  1.5246
   13CHL1  H23B  949   5.291   4.818   8.727  0.9210 -0.7320 -1.6271
   13CHL1   C24  950   5.260   4.660   8.583 -0.4633 -0.2442  0.6940
   13CHL1  H24A  951   5.351   4.598   8.595  0.0017  0.0225 -1.0792
   13CHL1  H24B  952   5.188   4.581   8.553 -0.1247  0.1705 -1.3444
   13CHL1   C25  953   5.274   4.746   8.454 -0.5123  0.4018 -0.7151
   13CHL1   H25  954   5.372   4.795   8.471 -0.3549 -0.7561  2.5023
   13CHL1   C26  955   5.287   4.651   8.327 -0.2412 -0.3490  0.3562
   13CHL1  H26A  956   5.185   4.607   8.319 -0.2787 -0.3641  0.8540
   13CHL1  H26B  957   5.317   4.715   8.241 -1.9135 -0.1537 -0.1117
   13CHL1  H26C  958   5.360   4.569   8.346  2.0824  1.4847 -0.1561
   13CHL1   C27  959   5.172   4.852   8.418  0.1658  0.5174 -0.7304
   13CHL1  H27A  960   5.197   4.904   8.323 -1.1525 -1.7844 -2.4255
   13CHL1  H27B  961   5.077   4.796   8.402  1.1495 -2.4966  2.6646
   13CHL1  H27C  962   5.163   4.928   8.499 -2.6208  0.2080 -0.6450
   14CHL1    C3  963   6.441   2.500  10.051  0.5516  0.1267 -0.4984
   14CHL1    H3  964   6.450   2.597   9.999  1.2749  0.8416  0.9015
   14CHL1    O3  965   6.420   2.524  10.191 -0.2043 -0.4943 -0.2302
   14CHL1   H3'  966   6.386   2.442  10.228 -1.4194  0.3861  0.6645
   14CHL1    C4  967   6.313   2.428   9.995 -0.0635  0.0047  0.4990
   14CHL1   H4A  968   6.287   2.340  10.057 -1.2074 -0.3539 -0.4590
   14CHL1   H4B  969   6.222   2.489  10.011  0.9570  1.4657  1.0069
   14CHL1    C5  970   6.335   2.380   9.851  0.0919  0.3084  0.2797
   14CHL1    C6  971   6.251   2.410   9.755 -0.3793  0.2311 -0.6068
   14CHL1    H6  972   6.156   2.464   9.767  0.0272  1.1892 -1.5275
   14CHL1    C7  973   6.276   2.361   9.619 -0.2921  0.0771  0.0035
   14CHL1   H7A  974   6.180   2.327   9.574 -0.4016 -1.6011  1.4141
   14CHL1   H7B  975   6.304   2.444   9.551 -1.6928 -0.0371 -0.7534
   14CHL1    C8  976   6.375   2.243   9.594  0.7863 -0.0941  0.4489
   14CHL1    H8  977   6.330   2.146   9.623  0.0121  0.3985  0.9386
   14CHL1   C14  978   6.421   2.238   9.446 -0.4055 -0.1552  0.0673
   14CHL1   H14  979   6.481   2.330   9.429  1.2552 -1.3460 -0.8430
   14CHL1   C15  980   6.314   2.228   9.329  0.5627 -0.4726  0.2517
   14CHL1  H15A  981   6.242   2.163   9.383 -0.4364  1.6600  1.5997
   14CHL1  H15B  982   6.281   2.327   9.294  5.3573  1.1719 -0.4549
   14CHL1   C16  983   6.392   2.159   9.218 -0.2972  0.7087  0.0357
   14CHL1  H16A  984   6.345   2.060   9.203  2.3031 -0.7132  0.8545
   14CHL1  H16B  985   6.373   2.215   9.124 -0.8183  1.9781  0.8690
   14CHL1   C17  986   6.538   2.160   9.263  0.1953  0.3913  0.1999
   14CHL1   H17  987   6.579   2.260   9.240  1.0723 -0.2103 -0.9291
   14CHL1   C13  988   6.529   2.133   9.417  0.3226 -0.6502 -0.2398
   14CHL1   C18  989   6.462   1.992   9.452 -0.2374 -1.3722  1.0418
   14CHL1  H18A  990   6.535   1.908   9.446  0.6337 -0.6484  1.1954
   14CHL1  H18B  991   6.429   1.985   9.558  0.1424  1.0844  1.3767
   14CHL1  H18C  992   6.378   1.971   9.384 -2.0025  2.4123  1.7899
   14CHL1   C12  993   6.654   2.158   9.505  0.0072  0.3567 -0.4126
   14CHL1  H12A  994   6.733   2.080   9.495 -0.9205 -1.0528  2.3717
   14CHL1  H12B  995   6.692   2.256   9.468  1.0374  0.4961  0.9562
   14CHL1   C11  996   6.614   2.170   9.652  0.6276  0.3525  0.3555
   14CHL1  H11A  997   6.580   2.068   9.681 -2.1953  0.6161 -1.6175
   14CHL1  H11B  998   6.706   2.203   9.704  0.5882  2.0948 -0.5917
   14CHL1    C9  999   6.496   2.268   9.679 -0.2048 -0.2073 -0.6457
   14CHL1    H9 1000   6.536   2.366   9.645  1.2299  0.1754  1.9207
   14CHL1   C10 1001   6.462   2.298   9.825 -0.2237  0.4119 -0.9056
   14CHL1   C19 1002   6.460   2.165   9.901  0.5377  0.0561  0.4493
   14CHL1  H19A 1003   6.562   2.126   9.922  0.3725 -0.8652 -0.3522
   14CHL1  H19B 1004   6.420   2.165  10.004 -3.1347 -1.3719 -0.7834
   14CHL1  H19C 1005   6.405   2.084   9.848  0.7705 -0.2664  0.6962
   14CHL1    C1 1006   6.584   2.380   9.880  0.0821 -0.2665 -0.8254
   14CHL1   H1A 1007   6.686   2.336   9.883  0.9072  1.5532  0.1889
   14CHL1   H1B 1008   6.604   2.480   9.836 -0.8358 -0.4256 -1.6358
   14CHL1    C2 1009   6.576   2.428  10.032  0.6807 -0.8859 -0.4913
   14CHL1   H2A 1010   6.658   2.494  10.067 -0.7513  0.6450  0.1132
   14CHL1   H2B 1011   6.585   2.336  10.093  1.7063 -0.6115 -0.2059
   14CHL1   C20 1012   6.631   2.053   9.192 -0.2568  0.3431 -0.5920
   14CHL1   H20 1013   6.635   1.965   9.259 -2.0933  0.5996 -0.0873
   14CHL1   C21 1014   6.776   2.106   9.201  0.3763 -0.5737 -0.6419
   14CHL1  H21A 1015   6.820   2.134   9.299  0.4950 -1.6067 -0.3901
   14CHL1  H21B 1016   6.789   2.192   9.132 -1.4266 -2.0914 -3.0678
   14CHL1  H21C 1017   6.840   2.018   9.182  0.9644 -0.4891  0.8116
   14CHL1   C22 1018   6.596   2.021   9.047  0.0992 -0.0084  0.1330
   14CHL1  H22A 1019   6.498   1.972   9.063  0.9268 -1.3084  1.4580
   14CHL1  H22B 1020   6.597   2.116   8.990 -1.3863 -0.0122  0.0730
   14CHL1   C23 1021   6.680   1.907   8.985  0.0191  0.6244 -0.0472
   14CHL1  H23A 1022   6.788   1.926   9.001 -0.0689  0.9177  0.2139
   14CHL1  H23B 1023   6.642   1.809   9.023 -1.2804  0.6310 -1.2489
   14CHL1   C24 1024   6.664   1.909   8.834  0.4283  0.0802 -0.2382
   14CHL1  H24A 1025   6.556   1.904   8.807  0.4304  0.1135 -0.2518
   14CHL1  H24B 1026   6.708   2.003   8.795  1.6869 -0.3469  0.0970
   14CHL1   C25 1027   6.729   1.789   8.761  1.2159  0.2213 -0.6369
   14CHL1   H25 1028   6.681   1.695   8.797  0.6657  0.4654 -0.7140
   14CHL1   C26 1029   6.703   1.779   8.611  1.1418  0.0542 -0.3226
   14CHL1  H26A 1030   6.734   1.876   8.567  0.1138  0.3821 -0.3330
   14CHL1  H26B 1031   6.765   1.699   8.565 -0.0645 -0.5033 -1.0205
   14CHL1  H26C 1032   6.595   1.756   8.598  0.8692  1.4465 -0.6864
   14CHL1   C27 1033   6.883   1.798   8.777  0.2340  0.9464  0.8822
   14CHL1  H27A 1034   6.902   1.801   8.886  0.2095  2.6170  0.8749
   14CHL1  H27B 1035   6.924   1.712   8.720 -0.7695  0.9838  0.0831
   14CHL1  H27C 1036   6.928   1.888   8.730  1.1681 -0.9441 -2.0833
   15CHL1    C3 1037   6.254   1.291  10.109  0.0217  0.3935 -0.3329
   15CHL1    H3 1038   6.203   1.377  10.061 -0.3975  0.0271 -0.5538
   15CHL1    O3 1039   6.259   1.313  10.253 -0.0316 -0.0725 -0.1125
   15CHL1   H3' 1040   6.301   1.231  10.279 -0.1883 -0.8782 -2.2070
   15CHL1    C4 1041   6.174   1.162  10.066 -0.1764  0.3594 -0.3355
   15CHL1   H4A 1042   6.210   1.078  10.128 -2.7426 -0.3700  0.3019
   15CHL1   H4B 1043   6.073   1.182  10.107 -1.4967 -0.4822 -2.9774
   15CHL1    C5 1044   6.179   1.126   9.920  0.4555 -0.3001 -0.6130
   15CHL1    C6 1045   6.066   1.125   9.848 -0.0968  0.0145  0.0238
   15CHL1    H6 1046   5.974   1.143   9.906 -0.8979 -0.6688 -1.0150
   15CHL1    C7 1047   6.057   1.100   9.701  0.5306  0.5229  0.9480
   15CHL1   H7A 1048   5.982   1.022   9.674  0.5546  1.0455 -0.7289
   15CHL1   H7B 1049   6.038   1.190   9.639 -0.8183 -1.7650 -2.2312
   15CHL1    C8 1050   6.196   1.051   9.649  0.6134 -0.5954  0.6559
   15CHL1    H8 1051   6.219   0.944   9.670  0.5727 -1.2776 -2.4092
   15CHL1   C14 1052   6.196   1.079   9.500 -0.0443 -0.2100  0.2080
   15CHL1   H14 1053   6.178   1.187   9.483  1.5722  0.5389  2.7042
   15CHL1   C15 1054   6.092   1.000   9.423  0.1169  0.1073  0.0064
   15CHL1  H15A 1055   6.103   0.899   9.467  2.0121  0.3502  0.1824
   15CHL1  H15B 1056   5.989   1.036   9.444  2.2702  5.2103  4.2451
   15CHL1   C16 1057   6.137   1.033   9.278  0.2101 -1.0089 -0.4641
   15CHL1  H16A 1058   6.130   0.941   9.216  0.4702 -2.4428  1.5431
   15CHL1  H16B 1059   6.074   1.118   9.243 -0.1370 -0.3241  1.6663
   15CHL1   C17 1060   6.284   1.085   9.278 -1.3742  0.1086 -0.6011
   15CHL1   H17 1061   6.283   1.196   9.268 -3.6642  0.1382 -0.5014
   15CHL1   C13 1062   6.324   1.056   9.422 -0.2561 -0.1952  0.4900
   15CHL1   C18 1063   6.352   0.905   9.418  1.1277 -0.2521 -0.3917
   15CHL1  H18A 1064   6.320   0.851   9.510  0.5024 -1.2495 -1.1683
   15CHL1  H18B 1065   6.288   0.848   9.348 -0.1991  1.2567 -0.4628
   15CHL1  H18C 1066   6.457   0.879   9.395  0.5704 -2.5266 -0.5816
   15CHL1   C12 1067   6.444   1.118   9.490  0.1126 -1.1335 -0.2746
   15CHL1  H12A 1068   6.532   1.079   9.434 -0.8989 -2.1651 -1.1995
   15CHL1  H12B 1069   6.445   1.229   9.489 -1.5583 -1.0680  0.9927
   15CHL1   C11 1070   6.451   1.081   9.640  0.4135 -0.4953  0.7260
   15CHL1  H11A 1071   6.470   0.972   9.651  0.2874 -0.5905  0.0361
   15CHL1  H11B 1072   6.538   1.134   9.684 -0.5265  1.7081  0.0614
   15CHL1    C9 1073   6.317   1.131   9.704 -0.4403 -0.3920 -0.7177
   15CHL1    H9 1074   6.314   1.237   9.671  1.5745 -0.4779 -1.2809
   15CHL1   C10 1075   6.314   1.119   9.858 -0.1159 -0.0456 -0.0596
   15CHL1   C19 1076   6.370   0.983   9.907  0.1066  0.2572 -0.5130
   15CHL1  H19A 1077   6.360   0.978  10.018 -1.5041  0.3196 -0.6330
   15CHL1  H19B 1078   6.304   0.902   9.869  1.2195  0.2019 -2.4419
   15CHL1  H19C 1079   6.476   0.969   9.878 -0.2324  0.5498 -1.9357
   15CHL1    C1 1080   6.391   1.243   9.909 -0.1494  0.2817  0.3940
   15CHL1   H1A 1081   6.498   1.234   9.882 -0.1015  3.9285 -1.2764
   15CHL1   H1B 1082   6.355   1.335   9.857 -0.0177  0.3700  0.4564
   15CHL1    C2 1083   6.395   1.270  10.063 -0.2734 -0.0651  1.0190
   15CHL1   H2A 1084   6.465   1.352  10.088  1.1120 -0.8513 -0.1397
   15CHL1   H2B 1085   6.442   1.178  10.104  1.4379  1.1157  1.8377
   15CHL1   C20 1086   6.372   1.028   9.162 -0.3248  0.1140 -0.1833
   15CHL1   H20 1087   6.389   0.919   9.162 -1.7565 -0.1567 -2.0008
   15CHL1   C21 1088   6.506   1.101   9.167 -0.0667 -0.0185 -0.1977
   15CHL1  H21A 1089   6.492   1.203   9.211  1.3581  0.2013 -0.1988
   15CHL1  H21B 1090   6.551   1.105   9.066 -0.2125 -1.3901 -0.3342
   15CHL1  H21C 1091   6.581   1.049   9.231  2.0355  1.0872 -1.6440
   15CHL1   C22 1092   6.306   1.059   9.025  0.0980  0.9215  0.3834
   15CHL1  H22A 1093   6.199   1.034   9.040  0.8669 -0.8412  3.7600
   15CHL1  H22B 1094   6.309   1.168   9.006 -2.3262  1.1748  1.0991
   15CHL1   C23 1095   6.368   0.991   8.897  0.0957  0.3676 -0.1289
   15CHL1  H23A 1096   6.303   1.011   8.810  2.6576 -0.5893 -2.3858
   15CHL1  H23B 1097   6.470   1.033   8.885  1.0145 -1.7367 -0.2601
   15CHL1   C24 1098   6.390   0.841   8.915  0.5690  0.1345  0.7889
   15CHL1  H24A 1099   6.441   0.816   9.010  1.6866 -0.1612  0.1207
   15CHL1  H24B 1100   6.294   0.784   8.922  1.4082 -1.2268  1.7604
   15CHL1   C25 1101   6.467   0.783   8.796 -0.4059  0.6233  0.5909
   15CHL1   H25 1102   6.556   0.849   8.784  1.3199 -1.6838 -0.1574
   15CHL1   C26 1103   6.520   0.638   8.832  0.1863 -0.6827  0.3674
   15CHL1  H26A 1104   6.594   0.652   8.914 -0.4320 -2.0782  1.2106
   15CHL1  H26B 1105   6.442   0.578   8.883 -0.6237  0.8316  1.0062
   15CHL1  H26C 1106   6.569   0.588   8.746 -0.7018  1.7732 -1.7131
   15CHL1   C27 1107   6.383   0.776   8.663 -1.0974  0.0971 -0.0493
   15CHL1  H27A 1108   6.430   0.722   8.578 -0.8170 -1.3209  0.9628
   15CHL1  H27B 1109   6.289   0.726   8.696 -1.3183 -0.1150 -0.9847
   15CHL1  H27C 1110   6.351   0.877   8.631 -1.2227  0.2425  0.5345
   16CHL1    C3 1111   5.857   0.292   9.975 -0.5664  0.2213  0.4334
   16CHL1    H3 1112   5.858   0.396   9.935 -0.9783  0.8391  1.9490
   16CHL1    O3 1113   5.860   0.304  10.116 -0.0357 -0.4139 -0.2892
   16CHL1   H3' 1114   5.776   0.346  10.135 -0.2681  0.3762 -2.6826
   16CHL1    C4 1115   5.726   0.216   9.922 -0.1983 -0.0562  0.3605
   16CHL1   H4A 1116   5.750   0.114   9.961 -0.6823  0.0308  0.8959
   16CHL1   H4B 1117   5.631   0.249   9.970 -1.7169 -2.1269 -1.0102
   16CHL1    C5 1118   5.714   0.202   9.771  0.5329 -0.0638  0.5113
   16CHL1    C6 1119   5.602   0.247   9.709 -0.1083 -0.0479 -0.0340
   16CHL1    H6 1120   5.525   0.293   9.773 -2.2726 -3.0605 -0.2361
   16CHL1    C7 1121   5.584   0.230   9.561  0.2385 -0.5981  0.0219
   16CHL1   H7A 1122   5.488   0.177   9.542 -0.5934  0.5657  0.8391
   16CHL1   H7B 1123   5.577   0.321   9.498  0.8536 -0.6489 -0.1250
   16CHL1    C8 1124   5.697   0.141   9.501 -0.0496 -0.4894  0.2037
   16CHL1    H8 1125   5.666   0.038   9.529 -0.9866 -0.5510 -0.9700
   16CHL1   C14 1126   5.703   0.168   9.352 -0.2209 -0.6198  0.2184
   16CHL1   H14 1127   5.749   0.268   9.342  1.7816 -1.2504  2.3447
   16CHL1   C15 1128   5.571   0.172   9.270  0.2285 -0.3713 -0.5420
   16CHL1  H15A 1129   5.513   0.083   9.301  0.0477  0.4067  1.5011
   16CHL1  H15B 1130   5.509   0.265   9.272  0.2867 -0.3421  0.2111
   16CHL1   C16 1131   5.621   0.157   9.132  0.1826 -0.5294  0.0912
   16CHL1  H16A 1132   5.562   0.075   9.087 -0.8071  0.0919  0.2200
   16CHL1  H16B 1133   5.596   0.246   9.069 -0.9063 -0.7317  0.2268
   16CHL1   C17 1134   5.773   0.136   9.125  0.4827 -0.0967 -0.5245
   16CHL1   H17 1135   5.815   0.239   9.127 -0.6851  0.3887  0.3174
   16CHL1   C13 1136   5.809   0.093   9.268  0.6642 -0.4060  0.3103
   16CHL1   C18 1137   5.770  -0.059   9.280 -0.5774  0.3291 -0.0402
   16CHL1  H18A 1138   5.781  -0.102   9.382  0.0014 -2.9226 -1.3634
   16CHL1  H18B 1139   5.666  -0.083   9.249 -1.6079  0.9251  2.6686
   16CHL1  H18C 1140   5.840  -0.118   9.218  0.6682  1.2231  0.4825
   16CHL1   C12 1141   5.945   0.131   9.315  0.4754 -0.5083 -0.0684
   16CHL1  H12A 1142   6.017   0.075   9.252  0.2754  2.0628 -2.7810
   16CHL1  H12B 1143   5.962   0.240   9.306  2.4876 -0.8521 -1.0222
   16CHL1   C11 1144   5.959   0.108   9.473  0.5518 -0.3957  0.1295
   16CHL1  H11A 1145   5.967  -0.001   9.492 -0.0043 -0.3690  0.5290
   16CHL1  H11B 1146   6.057   0.141   9.513  0.8312 -1.5091  0.3872
   16CHL1    C9 1147   5.843   0.169   9.553  0.3588  0.4946 -0.3806
   16CHL1    H9 1148   5.851   0.278   9.538 -1.8784  0.3744 -3.2087
   16CHL1   C10 1149   5.841   0.139   9.705  0.5188 -0.4031  0.2648
   16CHL1   C19 1150   5.831  -0.012   9.738 -0.5797 -0.3455 -0.3246
   16CHL1  H19A 1151   5.864  -0.037   9.841 -0.2014 -0.5582 -0.4938
   16CHL1  H19B 1152   5.737  -0.063   9.711 -0.7824 -1.7708  2.6567
   16CHL1  H19C 1153   5.913  -0.060   9.679  2.2745  0.8893  2.3415
   16CHL1    C1 1154   5.969   0.204   9.760  0.0063  0.1083 -0.9960
   16CHL1   H1A 1155   6.056   0.136   9.749  1.4466  1.0871  2.7493
   16CHL1   H1B 1156   5.990   0.303   9.713  0.4750 -0.2039 -1.4519
   16CHL1    C2 1157   5.973   0.221   9.917  0.3393  0.1685 -0.4258
   16CHL1   H2A 1158   6.061   0.279   9.952  0.6545 -1.0980  1.0000
   16CHL1   H2B 1159   5.982   0.119   9.960  3.4303 -0.2306 -1.7749
   16CHL1   C20 1160   5.809   0.066   8.999 -0.1233 -0.3501  0.4257
   16CHL1   H20 1161   5.780  -0.041   8.997  0.8742 -0.6313  0.4062
   16CHL1   C21 1162   5.961   0.046   8.973 -0.3747  0.0070  0.2852
   16CHL1  H21A 1163   5.989   0.021   8.868 -0.7916  0.5251  0.0490
   16CHL1  H21B 1164   6.003  -0.034   9.038  1.8607  0.1889 -0.8375
   16CHL1  H21C 1165   6.024   0.136   8.990  0.3554 -0.5070  0.3521
   16CHL1   C22 1166   5.753   0.134   8.872  0.2941  0.1880 -0.4839
   16CHL1  H22A 1167   5.769   0.056   8.794  0.4958 -0.6311  0.3609
   16CHL1  H22B 1168   5.642   0.142   8.873  0.1319 -1.6295  0.3395
   16CHL1   C23 1169   5.803   0.278   8.851  0.4141 -0.4136  0.0168
   16CHL1  H23A 1170   5.787   0.334   8.946 -0.2084 -0.7463  0.1123
   16CHL1  H23B 1171   5.913   0.272   8.835  0.6507  2.5393  0.0042
   16CHL1   C24 1172   5.731   0.360   8.740 -0.0205  0.4553 -0.6796
   16CHL1  H24A 1173   5.620   0.357   8.738 -0.0444  0.4446  0.2303
   16CHL1  H24B 1174   5.757   0.466   8.758 -0.1005  0.6697 -1.7444
   16CHL1   C25 1175   5.762   0.311   8.599  0.4610 -0.4406  0.4067
   16CHL1   H25 1176   5.868   0.277   8.597  0.2417 -1.1275  0.2756
   16CHL1   C26 1177   5.683   0.185   8.556 -0.0531 -0.5934 -0.3494
   16CHL1  H26A 1178   5.727   0.098   8.609 -1.9598 -0.4595  1.5811
   16CHL1  H26B 1179   5.576   0.188   8.585  0.0931 -0.4320  0.1866
   16CHL1  H26C 1180   5.688   0.171   8.446 -0.0200  1.9807 -0.7367
   16CHL1   C27 1181   5.748   0.425   8.495 -0.0517  0.1360  0.1656
   16CHL1  H27A 1182   5.767   0.380   8.396 -0.3507 -0.7599  0.5012
   16CHL1  H27B 1183   5.652   0.481   8.496  0.8205  1.6906  0.9397
   16CHL1  H27C 1184   5.820   0.508   8.509 -2.1124  2.5563 -2.5443
   17CHL1    C3 1185   1.987   5.601  10.139  0.6790 -0.0911  0.1533
   17CHL1    H3 1186   2.086   5.645  10.117  0.7046 -0.0601  0.3299
   17CHL1    O3 1187   1.961   5.573  10.273 -0.3932  0.0565 -0.0136
   17CHL1   H3' 1188   1.984   5.482  10.294 -0.7589  0.0080  0.1807
   17CHL1    C4 1189   1.872   5.690  10.093 -0.0241  0.1292  0.0681
   17CHL1   H4A 1190   1.768   5.664  10.123 -0.3604 -0.4914 -1.5291
   17CHL1   H4B 1191   1.880   5.789  10.142 -0.9000 -0.0590  0.6060
   17CHL1    C5 1192   1.884   5.719   9.947 -0.0102 -0.4864  0.0699
   17CHL1    C6 1193   1.910   5.848   9.902 -0.4009  0.3604  0.1307
   17CHL1    H6 1194   1.917   5.936   9.968  2.5354 -0.3725  0.9626
   17CHL1    C7 1195   1.930   5.887   9.762 -0.3853 -0.0144  0.4352
   17CHL1   H7A 1196   1.892   5.988   9.733 -2.2076 -1.1457 -1.3668
   17CHL1   H7B 1197   2.040   5.887   9.746  0.0817 -0.0564  3.1882
   17CHL1    C8 1198   1.883   5.777   9.664 -0.2415  0.7138 -0.1643
   17CHL1    H8 1199   1.773   5.764   9.672 -0.0975  0.6924  3.5824
   17CHL1   C14 1200   1.945   5.800   9.532 -0.1340 -0.4715 -0.4490
   17CHL1   H14 1201   2.056   5.787   9.532 -0.2673 -2.3319 -2.7936
   17CHL1   C15 1202   1.930   5.943   9.479  0.1009 -0.9162  0.0132
   17CHL1  H15A 1203   1.848   6.007   9.518  1.7958  1.2023  0.2692
   17CHL1  H15B 1204   2.012   6.006   9.518 -1.9652 -0.3681  3.9340
   17CHL1   C16 1205   1.941   5.932   9.322 -0.4072 -0.6722 -0.9408
   17CHL1  H16A 1206   1.847   5.971   9.278  0.2972  1.5029 -0.6250
   17CHL1  H16B 1207   2.028   5.984   9.277 -0.3067 -1.7801 -2.0555
   17CHL1   C17 1208   1.970   5.781   9.298 -0.1479  0.3047 -0.6820
   17CHL1   H17 1209   2.079   5.770   9.316  0.1330  1.8087 -1.3340
   17CHL1   C13 1210   1.898   5.707   9.421 -0.0391 -0.3201  0.5352
   17CHL1   C18 1211   1.748   5.711   9.398 -0.7931  0.3200 -0.8207
   17CHL1  H18A 1212   1.723   5.663   9.301  0.4622  0.1570 -1.0850
   17CHL1  H18B 1213   1.706   5.646   9.478  3.0920 -1.5454 -0.0282
   17CHL1  H18C 1214   1.705   5.813   9.398 -2.2577 -0.2687 -1.5998
   17CHL1   C12 1215   1.965   5.571   9.466  0.4639 -0.6469  0.1318
   17CHL1  H12A 1216   1.933   5.486   9.402 -0.6686  0.8901 -1.4167
   17CHL1  H12B 1217   2.076   5.574   9.460  0.4222  0.9457 -0.3199
   17CHL1   C11 1218   1.916   5.524   9.601 -0.0918 -0.3843  0.0589
   17CHL1  H11A 1219   1.809   5.496   9.593 -0.5634  1.6789 -1.9450
   17CHL1  H11B 1220   1.974   5.435   9.633 -2.0669 -1.4448  0.8968
   17CHL1    C9 1221   1.933   5.633   9.714 -0.3706 -0.3050  0.4946
   17CHL1    H9 1222   2.041   5.651   9.734 -0.2819 -1.2803  0.9682
   17CHL1   C10 1223   1.884   5.590   9.850  0.2362  0.0640  0.3184
   17CHL1   C19 1224   1.741   5.545   9.824  0.5858 -0.0558  0.1962
   17CHL1  H19A 1225   1.701   5.544   9.928  1.5457  0.6455  0.5939
   17CHL1  H19B 1226   1.691   5.625   9.765  3.0196 -0.1929 -2.2124
   17CHL1  H19C 1227   1.723   5.448   9.773  1.8907 -0.6674  0.8595
   17CHL1    C1 1228   1.974   5.478   9.916  0.1050 -0.0603  0.3425
   17CHL1   H1A 1229   1.974   5.380   9.865  0.7895 -0.5221  1.2261
   17CHL1   H1B 1230   2.081   5.504   9.903  0.3475 -0.9068  0.6343
   17CHL1    C2 1231   1.975   5.467  10.065 -0.5813 -0.2377 -0.1917
   17CHL1   H2A 1232   2.054   5.397  10.097 -0.4569 -1.1239 -2.2539
   17CHL1   H2B 1233   1.878   5.416  10.082  0.6078 -2.7636 -0.5092
   17CHL1   C20 1234   1.928   5.740   9.154 -0.7459 -1.0723  0.3212
   17CHL1   H20 1235   1.820   5.765   9.142 -0.6611 -1.1175 -0.6249
   17CHL1   C21 1236   1.948   5.591   9.139  0.3224 -0.0801 -0.2648
   17CHL1  H21A 1237   1.960   5.556   9.034 -0.9302 -1.3533 -0.0027
   17CHL1  H21B 1238   1.869   5.535   9.192  0.8608  0.8263  1.5916
   17CHL1  H21C 1239   2.044   5.565   9.191  0.3868 -2.0065 -1.2515
   17CHL1   C22 1240   2.007   5.812   9.043 -0.0223  0.0678  0.3728
   17CHL1  H22A 1241   2.026   5.916   9.075  1.3730 -0.0872  0.1218
   17CHL1  H22B 1242   2.106   5.761   9.044 -0.7474 -1.4141 -0.0574
   17CHL1   C23 1243   1.950   5.798   8.900 -0.2220 -0.2211  0.2362
   17CHL1  H23A 1244   1.943   5.694   8.864  2.7624 -0.0033 -1.2147
   17CHL1  H23B 1245   1.848   5.839   8.918 -0.4744 -0.2131 -1.1375
   17CHL1   C24 1246   2.031   5.874   8.795  0.6432  0.6654 -0.7094
   17CHL1  H24A 1247   2.027   5.981   8.825  0.1969 -0.1620  2.5023
   17CHL1  H24B 1248   2.134   5.832   8.802  1.0412  1.9484  3.6493
   17CHL1   C25 1249   1.994   5.865   8.643 -0.6915 -0.1220 -0.1545
   17CHL1   H25 1250   1.906   5.933   8.637 -0.9309 -0.4383 -0.2375
   17CHL1   C26 1251   2.111   5.909   8.553 -0.2379 -0.5686 -0.3016
   17CHL1  H26A 1252   2.070   5.914   8.450  1.4449 -1.3737 -1.0532
   17CHL1  H26B 1253   2.170   6.002   8.571  1.2261 -1.3376 -0.9640
   17CHL1  H26C 1254   2.192   5.833   8.557  1.1017  0.7990 -0.4517
   17CHL1   C27 1255   1.952   5.721   8.602 -0.0745  0.6781  0.3270
   17CHL1  H27A 1256   2.040   5.654   8.615 -0.5019 -0.0565 -0.4443
   17CHL1  H27B 1257   1.876   5.679   8.672  2.0803 -1.4650  1.5114
   17CHL1  H27C 1258   1.919   5.716   8.496  0.4153 -0.6490  0.2176
   18CHL1    C3 1259   0.355   4.330  10.290  0.0664  0.7880  0.6190
   18CHL1    H3 1260   0.365   4.433  10.330 -3.0164  1.9328 -1.2613
   18CHL1    O3 1261   0.372   4.237  10.392 -0.2767 -0.0209 -0.0273
   18CHL1   H3' 1262   0.392   4.154  10.347  2.3480  1.1557 -1.2431
   18CHL1    C4 1263   0.213   4.308  10.242  0.4816  0.1337 -0.5966
   18CHL1   H4A 1264   0.183   4.202  10.250  0.8540  0.1755  2.8240
   18CHL1   H4B 1265   0.156   4.363  10.320  0.9963 -1.9172  1.3565
   18CHL1    C5 1266   0.192   4.376  10.104 -0.5245  1.3079  0.2113
   18CHL1    C6 1267   0.094   4.459  10.081  0.1785 -0.4633  0.3714
   18CHL1    H6 1268   0.023   4.473  10.164 -0.3700 -0.0660 -0.1497
   18CHL1    C7 1269   0.058   4.524   9.952  0.7716  0.0980 -0.2231
   18CHL1   H7A 1270  -0.046   4.504   9.918  0.5796  1.2265 -0.3303
   18CHL1   H7B 1271   0.078   4.633   9.948 -0.3780  0.3307  0.0720
   18CHL1    C8 1272   0.126   4.453   9.831  0.1288 -0.3339 -0.6622
   18CHL1    H8 1273   0.079   4.353   9.820 -0.1195 -0.5848  2.0098
   18CHL1   C14 1274   0.113   4.532   9.697  0.4536 -0.1086  0.4294
   18CHL1   H14 1275   0.158   4.633   9.709 -0.0660  0.2898 -0.7332
   18CHL1   C15 1276  -0.029   4.551   9.643 -0.4153 -0.1560 -0.4535
   18CHL1  H15A 1277  -0.089   4.460   9.663  0.8360 -1.0393 -0.6459
   18CHL1  H15B 1278  -0.096   4.615   9.705 -3.1081 -1.7390 -1.5541
   18CHL1   C16 1279  -0.023   4.583   9.491 -0.5776  0.0672 -0.2522
   18CHL1  H16A 1280  -0.090   4.518   9.430 -0.3676  0.6000 -1.0739
   18CHL1  H16B 1281  -0.054   4.687   9.467 -0.3604 -0.2369 -1.9871
   18CHL1   C17 1282   0.129   4.558   9.461  0.7227  0.8862  0.5966
   18CHL1   H17 1283   0.173   4.658   9.479  1.2855  1.0647 -1.5642
   18CHL1   C13 1284   0.178   4.466   9.574  0.2935  0.2438 -0.6185
   18CHL1   C18 1285   0.122   4.325   9.544 -0.5574 -0.2480  0.4421
   18CHL1  H18A 1286   0.015   4.307   9.520 -0.4938 -0.3676  0.2462
   18CHL1  H18B 1287   0.167   4.293   9.448 -0.3860  2.5455 -0.5041
   18CHL1  H18C 1288   0.148   4.257   9.628 -0.3204 -0.0881  0.4989
   18CHL1   C12 1289   0.328   4.470   9.613 -0.6333  0.3864 -0.3409
   18CHL1  H12A 1290   0.392   4.432   9.531  1.0541 -1.1438  1.5698
   18CHL1  H12B 1291   0.356   4.576   9.633 -1.4810  0.3464  1.2081
   18CHL1   C11 1292   0.364   4.391   9.743 -0.4534 -0.1088 -0.0934
   18CHL1  H11A 1293   0.343   4.286   9.712  0.0356  0.9364 -4.7964
   18CHL1  H11B 1294   0.470   4.400   9.776 -0.8244  2.9064  0.5352
   18CHL1    C9 1295   0.274   4.428   9.863  0.2220 -0.0633 -0.2932
   18CHL1    H9 1296   0.321   4.521   9.901  0.6450 -0.7497  0.9315
   18CHL1   C10 1297   0.296   4.344   9.988  0.7622  0.2560  0.4889
   18CHL1   C19 1298   0.277   4.194   9.965 -0.6806  0.3985  0.2931
   18CHL1  H19A 1299   0.175   4.181   9.922 -0.8341  2.4998 -0.0927
   18CHL1  H19B 1300   0.361   4.155   9.905  0.6078  2.1485  0.8676
   18CHL1  H19C 1301   0.293   4.128  10.054 -1.0459  0.6947  0.5848
   18CHL1    C1 1302   0.432   4.374  10.060  0.2981  0.5152 -1.1259
   18CHL1   H1A 1303   0.503   4.354   9.977  0.0633  0.4792 -1.3220
   18CHL1   H1B 1304   0.434   4.481  10.091  0.6524  0.3155 -0.4509
   18CHL1    C2 1305   0.463   4.295  10.188  0.5155  0.4382  0.2385
   18CHL1   H2A 1306   0.558   4.332  10.234  2.0805 -1.3727 -1.3368
   18CHL1   H2B 1307   0.474   4.186  10.169  1.0584  0.5593 -0.1834
   18CHL1   C20 1308   0.153   4.517   9.314 -0.9760  0.3674 -0.3539
   18CHL1   H20 1309   0.089   4.428   9.298 -0.2682 -0.4290  0.9859
   18CHL1   C21 1310   0.305   4.484   9.288  0.5751 -0.5399 -0.0739
   18CHL1  H21A 1311   0.368   4.567   9.328 -1.0080  1.0965 -0.8150
   18CHL1  H21B 1312   0.324   4.483   9.179  2.1547  0.8628  0.1440
   18CHL1  H21C 1313   0.339   4.384   9.322 -0.9432 -1.1039 -0.1107
   18CHL1   C22 1314   0.099   4.612   9.206  0.2147 -0.5846  0.3510
   18CHL1  H22A 1315   0.001   4.649   9.243 -0.7873 -2.8342  0.1260
   18CHL1  H22B 1316   0.164   4.702   9.214 -0.7073 -0.0062  2.0539
   18CHL1   C23 1317   0.060   4.540   9.074 -0.0580 -0.6988 -0.3577
   18CHL1  H23A 1318   0.144   4.491   9.022 -0.9388 -0.7668 -1.7608
   18CHL1  H23B 1319  -0.025   4.474   9.098 -0.4431  0.1937  0.8603
   18CHL1   C24 1320   0.010   4.644   8.975 -0.4750  0.3992 -0.4663
   18CHL1  H24A 1321  -0.090   4.670   9.016 -0.2559 -1.7562  1.6108
   18CHL1  H24B 1322   0.081   4.729   8.971 -2.1485  1.9066  0.4795
   18CHL1   C25 1323  -0.025   4.598   8.836 -0.3026  0.1211  0.3127
   18CHL1   H25 1324  -0.094   4.511   8.852  0.0747 -0.2781 -0.1953
   18CHL1   C26 1325  -0.109   4.701   8.751  0.9373 -0.4433 -0.8635
   18CHL1  H26A 1326  -0.100   4.684   8.642 -2.5119  0.2570 -1.3510
   18CHL1  H26B 1327  -0.210   4.714   8.795  1.4937  3.9854 -0.3871
   18CHL1  H26C 1328  -0.064   4.802   8.761 -1.1814  0.5087 -0.5381
   18CHL1   C27 1329   0.093   4.534   8.759  0.9728  0.1154 -0.5149
   18CHL1  H27A 1330   0.114   4.441   8.816 -0.9657  0.9117  1.6264
   18CHL1  H27B 1331   0.053   4.507   8.659 -5.4903 -1.8513  2.0652
   18CHL1  H27C 1332   0.181   4.601   8.748  0.1007  1.0622 -2.1452
   19CHL1    C3 1333   6.067   1.606   9.954 -0.5661  0.0537  0.4377
   19CHL1    H3 1334   6.158   1.550   9.926 -0.7972 -1.3661  2.2870
   19CHL1    O3 1335   6.073   1.609  10.089  0.1729  0.2195  0.4989
   19CHL1   H3' 1336   5.996   1.559  10.119  0.8732 -2.3698 -1.6593
   19CHL1    C4 1337   6.069   1.754   9.908  0.2695  0.6969 -0.7197
   19CHL1   H4A 1338   5.994   1.814   9.964 -0.9749 -0.0789 -1.4982
   19CHL1   H4B 1339   6.165   1.798   9.940 -0.0644  1.0550 -0.2080
   19CHL1    C5 1340   6.054   1.779   9.765  0.2532  0.8438  0.0052
   19CHL1    C6 1341   6.139   1.858   9.693 -0.2704 -0.0923  0.3010
   19CHL1    H6 1342   6.214   1.916   9.749 -0.4293  0.8293 -0.4208
   19CHL1    C7 1343   6.115   1.881   9.547  0.4267  0.6183 -0.5226
   19CHL1   H7A 1344   6.125   1.992   9.538 -0.6906  1.0730  2.5047
   19CHL1   H7B 1345   6.203   1.841   9.493  1.0075  1.3511 -0.1472
   19CHL1    C8 1346   5.979   1.827   9.490 -0.3325  0.1514 -0.9427
   19CHL1    H8 1347   5.898   1.896   9.523 -2.0554 -2.7597  1.4236
   19CHL1   C14 1348   5.998   1.818   9.344 -0.4934  0.0318  1.1615
   19CHL1   H14 1349   6.083   1.751   9.321 -0.4345  0.5541 -0.1861
   19CHL1   C15 1350   6.052   1.938   9.267 -0.0301 -1.0036 -0.3134
   19CHL1  H15A 1351   5.987   2.021   9.302 -1.8132 -1.8678 -1.4629
   19CHL1  H15B 1352   6.159   1.961   9.287 -0.3285  1.0835 -0.9218
   19CHL1   C16 1353   6.024   1.906   9.124 -0.2032 -0.4358 -0.4279
   19CHL1  H16A 1354   5.951   1.982   9.087  1.0513  0.9611 -0.1419
   19CHL1  H16B 1355   6.110   1.896   9.054 -0.0782  1.5782 -0.6223
   19CHL1   C17 1356   5.942   1.771   9.120 -0.1032 -0.1149 -0.0676
   19CHL1   H17 1357   6.020   1.693   9.105 -0.0034 -0.0382  0.0539
   19CHL1   C13 1358   5.889   1.755   9.261 -0.3193 -0.0741  1.1229
   19CHL1   C18 1359   5.765   1.838   9.269  0.0811  0.4835  0.0972
   19CHL1  H18A 1360   5.727   1.859   9.371  0.9874 -0.2218  0.6024
   19CHL1  H18B 1361   5.769   1.933   9.212  0.6136  0.2545 -0.2657
   19CHL1  H18C 1362   5.680   1.796   9.212 -1.2583  1.6915  1.1354
   19CHL1   C12 1363   5.868   1.613   9.318  0.4239 -0.1946 -0.2484
   19CHL1  H12A 1364   5.773   1.581   9.269 -0.0900  0.6223  0.1828
   19CHL1  H12B 1365   5.955   1.550   9.292 -1.9039 -3.4581 -0.7988
   19CHL1   C11 1366   5.849   1.612   9.470  0.1431 -0.0030  0.0947
   19CHL1  H11A 1367   5.750   1.660   9.485 -1.9358 -3.2302 -2.1241
   19CHL1  H11B 1368   5.844   1.508   9.510  1.7359  0.1989  0.9072
   19CHL1    C9 1369   5.955   1.687   9.545 -0.1291 -0.1921 -0.5919
   19CHL1    H9 1370   6.044   1.625   9.524 -0.4188 -0.1518 -2.0463
   19CHL1   C10 1371   5.941   1.689   9.702  0.8469 -0.5748 -0.7054
   19CHL1   C19 1372   5.800   1.742   9.731 -0.0072 -0.3820  0.3266
   19CHL1  H19A 1373   5.713   1.674   9.718  1.2672 -1.7123 -1.8330
   19CHL1  H19B 1374   5.797   1.786   9.833  2.2976 -0.5960  0.5458
   19CHL1  H19C 1375   5.791   1.831   9.666  0.4664 -1.4816 -1.3183
   19CHL1    C1 1376   5.955   1.544   9.752 -0.1868 -0.6326  0.2115
   19CHL1   H1A 1377   5.865   1.486   9.721 -0.3774  0.0768 -0.6090
   19CHL1   H1B 1378   6.053   1.507   9.714 -0.4191 -0.5644 -0.4751
   19CHL1    C2 1379   5.946   1.532   9.905 -0.5228  0.3056 -0.0704
   19CHL1   H2A 1380   5.947   1.422   9.923  1.6826 -0.0886 -2.1027
   19CHL1   H2B 1381   5.848   1.576   9.934 -0.5172 -0.0800  0.5576
   19CHL1   C20 1382   5.851   1.754   8.997 -0.4262 -0.1343  1.2980
   19CHL1   H20 1383   5.777   1.836   8.997  1.0463  1.2907 -0.7194
   19CHL1   C21 1384   5.776   1.615   8.996 -0.7807 -0.0177  0.2020
   19CHL1  H21A 1385   5.838   1.533   9.037 -0.9358 -0.0535  0.3662
   19CHL1  H21B 1386   5.735   1.574   8.901  1.8484 -1.4710 -0.4043
   19CHL1  H21C 1387   5.689   1.621   9.064 -0.4183  1.5348  0.5703
   19CHL1   C22 1388   5.915   1.777   8.859 -0.5674 -0.0197  0.2538
   19CHL1  H22A 1389   5.977   1.869   8.860  1.0490 -1.0540 -0.6731
   19CHL1  H22B 1390   5.989   1.698   8.833  0.5185  0.8657  0.5549
   19CHL1   C23 1391   5.801   1.798   8.763 -0.1210  0.7068 -0.4457
   19CHL1  H23A 1392   5.774   1.697   8.724 -0.3235  0.2431  0.8389
   19CHL1  H23B 1393   5.706   1.841   8.802 -0.7304  1.1086 -2.2458
   19CHL1   C24 1394   5.845   1.901   8.659  0.1796  0.2458 -0.4667
   19CHL1  H24A 1395   5.870   1.993   8.716 -1.2328 -0.0466  0.7092
   19CHL1  H24B 1396   5.939   1.873   8.607  0.9469 -0.2863  1.1265
   19CHL1   C25 1397   5.728   1.931   8.553 -0.6300  0.3179  0.1051
   19CHL1   H25 1398   5.629   1.939   8.602  1.0659 -0.3280  4.0679
   19CHL1   C26 1399   5.763   2.065   8.486  0.3951 -0.2815  0.2009
   19CHL1  H26A 1400   5.783   2.149   8.556  1.1660  0.1740 -0.5291
   19CHL1  H26B 1401   5.847   2.052   8.414 -0.6938 -0.3068 -1.1244
   19CHL1  H26C 1402   5.690   2.097   8.408  0.8011  0.8955  0.2779
   19CHL1   C27 1403   5.706   1.826   8.445  0.3713  0.0050  0.1360
   19CHL1  H27A 1404   5.606   1.857   8.407 -0.0062  1.3229  2.0829
   19CHL1  H27B 1405   5.775   1.829   8.358  2.3569 -2.0853  1.5269
   19CHL1  H27C 1406   5.701   1.726   8.491 -0.3460 -0.5833 -1.1605
   20CHL1    C3 1407   1.734   1.606  10.377  0.1569 -0.1970  0.0277
   20CHL1    H3 1408   1.820   1.676  10.368 -1.3656  1.5859 -1.4281
   20CHL1    O3 1409   1.728   1.561  10.512  0.5058 -0.2550  0.2510
   20CHL1   H3' 1410   1.702   1.641  10.558 -3.6453 -0.7164 -0.8561
   20CHL1    C4 1411   1.605   1.689  10.342  0.2357  0.1113  0.4943
   20CHL1   H4A 1412   1.518   1.620  10.339  0.1400  0.2343 -2.1270
   20CHL1   H4B 1413   1.582   1.758  10.426  1.5033  1.1428  0.0144
   20CHL1    C5 1414   1.611   1.745  10.201 -0.0390  0.4551  0.0580
   20CHL1    C6 1415   1.592   1.874  10.167 -0.3168 -0.1571  0.8049
   20CHL1    H6 1416   1.569   1.941  10.252 -2.0409  1.1635 -0.6301
   20CHL1    C7 1417   1.603   1.929  10.027  0.2684  0.0078  0.0224
   20CHL1   H7A 1418   1.522   2.003  10.007 -0.6488 -0.5441  1.5176
   20CHL1   H7B 1419   1.700   1.982  10.014  1.4824 -1.8644  1.1362
   20CHL1    C8 1420   1.607   1.824   9.910  0.1622 -0.3877 -0.5707
   20CHL1    H8 1421   1.509   1.773   9.904  0.5803 -1.2914  0.0164
   20CHL1   C14 1422   1.667   1.883   9.783  0.0070  0.3178  0.8478
   20CHL1   H14 1423   1.771   1.912   9.805  0.0353 -1.1383  3.0495
   20CHL1   C15 1424   1.596   2.019   9.732 -0.9967  0.0521  0.3786
   20CHL1  H15A 1425   1.486   2.006   9.741 -0.8802 -1.4844 -0.1100
   20CHL1  H15B 1426   1.619   2.107   9.797 -0.3646 -0.1029  0.3729
   20CHL1   C16 1427   1.652   2.023   9.589 -0.1099 -0.6283  0.1956
   20CHL1  H16A 1428   1.557   2.026   9.531 -1.5524 -1.5792  2.3735
   20CHL1  H16B 1429   1.718   2.109   9.564  1.2993 -1.6535  0.2594
   20CHL1   C17 1430   1.722   1.884   9.554  0.6319 -0.8077 -0.0730
   20CHL1   H17 1431   1.832   1.895   9.567  1.1311 -3.3943 -1.4417
   20CHL1   C13 1432   1.665   1.791   9.661 -0.3634  0.3041 -0.2107
   20CHL1   C18 1433   1.524   1.749   9.614  0.0590 -0.1542  0.4155
   20CHL1  H18A 1434   1.541   1.668   9.540  0.5163  1.3731 -1.2210
   20CHL1  H18B 1435   1.459   1.715   9.698 -0.8955  0.3419 -0.1004
   20CHL1  H18C 1436   1.471   1.829   9.558  2.6500  0.2223 -1.6775
   20CHL1   C12 1437   1.754   1.669   9.699 -0.1510  0.3889 -0.6402
   20CHL1  H12A 1438   1.748   1.590   9.621  0.2539 -0.5748  0.2717
   20CHL1  H12B 1439   1.858   1.695   9.728 -0.2772  0.1692  0.0290
   20CHL1   C11 1440   1.701   1.603   9.833 -0.1605  0.7868  0.6224
   20CHL1  H11A 1441   1.599   1.567   9.810  0.7925 -1.9804  0.4121
   20CHL1  H11B 1442   1.762   1.513   9.856 -0.7272  0.0114 -0.7754
   20CHL1    C9 1443   1.692   1.702   9.953  0.0459  0.0529  0.3864
   20CHL1    H9 1444   1.795   1.740   9.967  0.6693 -1.6179  0.5186
   20CHL1   C10 1445   1.653   1.636  10.093  0.0930  0.2760  0.0165
   20CHL1   C19 1446   1.534   1.550  10.076  0.6986 -0.2413  0.9806
   20CHL1  H19A 1447   1.490   1.499  10.165  0.9819 -0.4059  1.0250
   20CHL1  H19B 1448   1.451   1.611  10.034  0.3165 -1.3265  0.1131
   20CHL1  H19C 1449   1.550   1.470  10.001  0.3544  0.7328 -0.1620
   20CHL1    C1 1450   1.768   1.542  10.144  0.3727 -0.1857 -0.0773
   20CHL1   H1A 1451   1.778   1.456  10.073  0.1579 -0.6732  0.4744
   20CHL1   H1B 1452   1.864   1.597  10.130 -1.3027  2.5266 -1.5801
   20CHL1    C2 1453   1.753   1.488  10.288 -0.1070  0.5403  0.2090
   20CHL1   H2A 1454   1.839   1.436  10.335 -1.2886 -0.7320  1.0543
   20CHL1   H2B 1455   1.660   1.428  10.301 -0.2074  0.2786 -1.5226
   20CHL1   C20 1456   1.729   1.861   9.399 -0.1359  0.0303  0.0160
   20CHL1   H20 1457   1.627   1.829   9.369 -0.9923  2.8344 -0.3645
   20CHL1   C21 1458   1.829   1.746   9.378  0.5263 -0.9535 -0.1425
   20CHL1  H21A 1459   1.782   1.647   9.400  1.0444 -1.3186 -0.6287
   20CHL1  H21B 1460   1.918   1.758   9.443 -0.4921  0.5181  1.0324
   20CHL1  H21C 1461   1.864   1.736   9.272  3.1272 -2.4429  0.7617
   20CHL1   C22 1462   1.760   1.989   9.309  0.1149  0.2163  0.2170
   20CHL1  H22A 1463   1.692   2.073   9.335 -0.9559 -0.3846 -0.5658
   20CHL1  H22B 1464   1.860   2.023   9.343 -0.5146  2.0444  0.3521
   20CHL1   C23 1465   1.734   1.963   9.160  0.4364  0.9643 -0.0416
   20CHL1  H23A 1466   1.759   1.858   9.136 -2.3003  0.4512 -1.0877
   20CHL1  H23B 1467   1.626   1.976   9.134  0.2801 -1.5166 -0.8379
   20CHL1   C24 1468   1.818   2.063   9.074 -0.0178  0.8633 -0.6488
   20CHL1  H24A 1469   1.771   2.162   9.097 -1.0969  0.7537 -2.2467
   20CHL1  H24B 1470   1.918   2.066   9.122 -1.2385 -0.1753  2.2317
   20CHL1   C25 1471   1.819   2.042   8.922  0.6752 -0.3340 -0.0368
   20CHL1   H25 1472   1.715   2.010   8.898  0.3051  0.5479  0.3472
   20CHL1   C26 1473   1.859   2.175   8.851 -0.2350  1.0406 -0.3614
   20CHL1  H26A 1474   1.956   2.207   8.895  1.3012 -2.5408 -0.8004
   20CHL1  H26B 1475   1.856   2.152   8.742  1.3179 -1.6505  0.0731
   20CHL1  H26C 1476   1.785   2.253   8.880 -0.1106  0.1638  2.5750
   20CHL1   C27 1477   1.916   1.920   8.898  0.6559 -0.3536  0.7338
   20CHL1  H27A 1478   1.891   1.832   8.961  1.7929 -2.3377 -1.4170
   20CHL1  H27B 1479   1.895   1.882   8.796 -2.1046 -0.3586  1.2149
   20CHL1  H27C 1480   2.022   1.952   8.894 -0.0582  2.1639 -2.8590
   21CHL1    C3 1481   6.427   5.482  10.071 -0.7584  1.2800  0.5493
   21CHL1    H3 1482   6.494   5.571  10.075 -0.6306  1.1864  0.5080
   21CHL1    O3 1483   6.408   5.433  10.201 -0.2913 -0.1812 -0.4716
   21CHL1   H3' 1484   6.331   5.377  10.184 -0.6885  0.7153 -1.7441
   21CHL1    C4 1485   6.294   5.518  10.009  0.0262  0.8151 -0.1379
   21CHL1   H4A 1486   6.229   5.429   9.994 -2.0109  1.8470  1.8253
   21CHL1   H4B 1487   6.234   5.594  10.065  0.1007  0.6251  0.2033
   21CHL1    C5 1488   6.315   5.553   9.863 -0.4700 -0.3228  0.2145
   21CHL1    C6 1489   6.288   5.675   9.810 -0.4193 -0.2946 -0.6075
   21CHL1    H6 1490   6.247   5.748   9.882 -1.7267 -0.3346 -1.2767
   21CHL1    C7 1491   6.317   5.721   9.675 -0.1826  0.3383  0.0407
   21CHL1   H7A 1492   6.230   5.779   9.635 -0.4100 -1.9080 -3.0385
   21CHL1   H7B 1493   6.403   5.791   9.672 -0.2744  0.4277 -0.6848
   21CHL1    C8 1494   6.339   5.604   9.574  0.3662  0.4855 -0.5868
   21CHL1    H8 1495   6.245   5.550   9.552  0.5002 -0.0713  0.1956
   21CHL1   C14 1496   6.388   5.654   9.439  0.8000 -0.3963  0.7201
   21CHL1   H14 1497   6.475   5.723   9.449 -0.3068  1.0782  0.5171
   21CHL1   C15 1498   6.293   5.742   9.360  0.0974  0.0386 -0.1709
   21CHL1  H15A 1499   6.193   5.693   9.357  0.2791 -0.6090  2.4645
   21CHL1  H15B 1500   6.285   5.847   9.396  1.2370  0.5830 -1.4018
   21CHL1   C16 1501   6.344   5.735   9.214  0.2238 -0.3012 -0.7686
   21CHL1  H16A 1502   6.262   5.722   9.141 -1.6812 -2.7145  1.5796
   21CHL1  H16B 1503   6.404   5.827   9.196  0.5317 -0.6120 -1.3532
   21CHL1   C17 1504   6.452   5.623   9.210 -1.0018 -0.0426  0.6285
   21CHL1   H17 1505   6.540   5.687   9.233 -2.1360  1.3357  1.3312
   21CHL1   C13 1506   6.428   5.544   9.339 -0.8771 -0.6192  0.0673
   21CHL1   C18 1507   6.310   5.444   9.311 -0.6424 -0.4036 -0.1149
   21CHL1  H18A 1508   6.235   5.498   9.249  0.1745 -0.1702 -0.9286
   21CHL1  H18B 1509   6.344   5.361   9.246 -0.0451  1.0968 -1.7882
   21CHL1  H18C 1510   6.274   5.405   9.409 -1.5286  1.2457  0.2697
   21CHL1   C12 1511   6.549   5.466   9.405  0.0825 -0.2353  1.4448
   21CHL1  H12A 1512   6.576   5.374   9.350  0.6242  1.2745 -0.9805
   21CHL1  H12B 1513   6.630   5.542   9.404  0.9524 -1.1181  2.3562
   21CHL1   C11 1514   6.516   5.411   9.549 -0.3812 -0.0004  0.5089
   21CHL1  H11A 1515   6.445   5.329   9.525  0.1004  0.1623 -1.6561
   21CHL1  H11B 1516   6.613   5.382   9.596  0.6348  1.3133 -0.6683
   21CHL1    C9 1517   6.446   5.511   9.637  0.5603 -0.0197 -1.0127
   21CHL1    H9 1518   6.521   5.589   9.662  1.0008 -0.2950 -1.4672
   21CHL1   C10 1519   6.389   5.447   9.768 -0.3857 -0.3404 -0.3880
   21CHL1   C19 1520   6.309   5.327   9.735  0.3855  0.0026  0.6962
   21CHL1  H19A 1521   6.242   5.335   9.647 -2.6664  0.3568  2.8907
   21CHL1  H19B 1522   6.382   5.244   9.727  0.7799  0.3817  0.3524
   21CHL1  H19C 1523   6.239   5.298   9.817 -0.8273 -1.6414 -0.8311
   21CHL1    C1 1524   6.514   5.397   9.843 -0.0794 -0.2118  0.3313
   21CHL1   H1A 1525   6.551   5.304   9.796 -2.0264 -1.1178  0.5017
   21CHL1   H1B 1526   6.596   5.473   9.839 -1.1543  0.9476 -0.5945
   21CHL1    C2 1527   6.492   5.360   9.999  0.7370 -0.3022  0.1335
   21CHL1   H2A 1528   6.585   5.323  10.048  1.6491 -0.7343 -1.8231
   21CHL1   H2B 1529   6.423   5.273  10.000  0.0771  0.1422 -1.7395
   21CHL1   C20 1530   6.492   5.558   9.072 -0.7134 -0.0030  0.1666
   21CHL1   H20 1531   6.525   5.455   9.100 -0.4094  0.2708  0.8446
   21CHL1   C21 1532   6.606   5.630   8.994 -0.1942 -0.3237 -0.4211
   21CHL1  H21A 1533   6.578   5.732   8.958  0.6009 -0.6310 -2.0038
   21CHL1  H21B 1534   6.652   5.567   8.915  2.2992  0.9379 -0.0968
   21CHL1  H21C 1535   6.684   5.641   9.073 -3.3176 -1.7745  3.1943
   21CHL1   C22 1536   6.370   5.535   8.982  0.3693 -0.6127  0.6217
   21CHL1  H22A 1537   6.284   5.487   9.035  1.2970 -1.9004  1.0251
   21CHL1  H22B 1538   6.333   5.634   8.949  2.4493 -0.0030 -0.0583
   21CHL1   C23 1539   6.403   5.444   8.864 -0.0638  0.1830  0.0351
   21CHL1  H23A 1540   6.474   5.479   8.786 -0.2874 -1.3668 -0.9314
   21CHL1  H23B 1541   6.456   5.355   8.904 -0.5095  0.0065  0.2455
   21CHL1   C24 1542   6.280   5.391   8.792  0.1162 -0.3319  0.2615
   21CHL1  H24A 1543   6.205   5.352   8.864  0.5722 -3.1172 -0.6462
   21CHL1  H24B 1544   6.232   5.470   8.731  1.2418 -0.6922 -1.1393
   21CHL1   C25 1545   6.309   5.279   8.690  0.3339  0.1799 -0.4018
   21CHL1   H25 1546   6.357   5.198   8.748 -2.4993  0.1842  2.2370
   21CHL1   C26 1547   6.172   5.233   8.631 -0.1139 -0.4346 -0.2443
   21CHL1  H26A 1548   6.105   5.194   8.710  0.1171 -2.7222 -1.0980
   21CHL1  H26B 1549   6.128   5.318   8.573 -0.6912 -0.3924  0.2444
   21CHL1  H26C 1550   6.181   5.155   8.553  0.8622  0.0037 -0.5892
   21CHL1   C27 1551   6.400   5.329   8.572 -0.0318 -0.6069  0.7371
   21CHL1  H27A 1552   6.501   5.352   8.614  0.6323  2.1649 -1.9729
   21CHL1  H27B 1553   6.406   5.257   8.488 -2.8913  0.0677 -0.1360
   21CHL1  H27C 1554   6.361   5.425   8.530  0.9756 -0.3910  0.2602
   22CHL1    C3 1555   0.177   6.253  10.226  1.1974  0.5851  0.7307
   22CHL1    H3 1556   0.280   6.235  10.188  1.0126 -1.6561  1.1550
   22CHL1    O3 1557   0.171   6.216  10.356 -0.0467  0.2869  0.3080
   22CHL1   H3' 1558   0.097   6.267  10.390 -0.0345  0.7595 -0.3621
   22CHL1    C4 1559   0.135   6.399  10.197 -0.1764  0.8099 -0.2539
   22CHL1   H4A 1560   0.030   6.413  10.232 -0.7201  2.1374 -2.2269
   22CHL1   H4B 1561   0.195   6.460  10.268 -0.8816 -1.3635  2.3482
   22CHL1    C5 1562   0.146   6.441  10.051 -0.2346 -0.6289 -0.0664
   22CHL1    C6 1563   0.221   6.540  10.001 -0.3349 -0.3761  0.5680
   22CHL1    H6 1564   0.283   6.597  10.071  0.5715 -1.2177  0.4685
   22CHL1    C7 1565   0.231   6.588   9.864 -0.2716  0.6595 -0.0133
   22CHL1   H7A 1566   0.221   6.698   9.851  0.4876  0.6935 -0.3711
   22CHL1   H7B 1567   0.330   6.546   9.834 -0.2655 -2.3533  3.4782
   22CHL1    C8 1568   0.108   6.530   9.783  0.3873  0.2132 -0.1363
   22CHL1    H8 1569   0.019   6.589   9.814  0.2617 -1.2272  2.5595
   22CHL1   C14 1570   0.132   6.549   9.635 -0.0741 -0.4396  1.1344
   22CHL1   H14 1571   0.214   6.482   9.602 -3.0830 -2.7628 -2.4161
   22CHL1   C15 1572   0.161   6.689   9.588 -0.4736 -0.2073 -0.1448
   22CHL1  H15A 1573   0.086   6.753   9.639  0.8336 -0.1381  1.7691
   22CHL1  H15B 1574   0.262   6.715   9.625 -0.3120 -2.3913  1.1251
   22CHL1   C16 1575   0.144   6.686   9.440  0.6958 -0.4279  0.0422
   22CHL1  H16A 1576   0.082   6.773   9.406  2.4675  1.4079  1.2631
   22CHL1  H16B 1577   0.238   6.703   9.384 -1.7356  2.8133 -3.6601
   22CHL1   C17 1578   0.079   6.545   9.409  0.5544 -0.0639  0.1037
   22CHL1   H17 1579   0.161   6.471   9.400 -0.0855 -0.5874 -1.9428
   22CHL1   C13 1580   0.017   6.500   9.541  0.2341  0.2744  0.1880
   22CHL1   C18 1581  -0.115   6.568   9.566 -0.3452 -0.3963 -0.0254
   22CHL1  H18A 1582  -0.117   6.676   9.540 -0.0467  0.0246  1.6288
   22CHL1  H18B 1583  -0.189   6.524   9.495 -1.2000 -2.4488  2.0033
   22CHL1  H18C 1584  -0.156   6.553   9.668  0.5250 -1.0325  0.2382
   22CHL1   C12 1585   0.009   6.348   9.561 -0.1614  0.0776  0.2001
   22CHL1  H12A 1586  -0.069   6.307   9.493  1.1071 -1.4018 -0.4323
   22CHL1  H12B 1587   0.107   6.300   9.540  0.2454  1.0137 -0.0991
   22CHL1   C11 1588  -0.026   6.318   9.710  0.3105 -0.1404 -0.0554
   22CHL1  H11A 1589  -0.131   6.353   9.722  0.4339  0.0601  0.4692
   22CHL1  H11B 1590  -0.016   6.207   9.716  0.0760 -0.2421 -1.2619
   22CHL1    C9 1591   0.073   6.382   9.811  0.3033 -0.0869 -0.7366
   22CHL1    H9 1592   0.166   6.329   9.781 -0.4978 -1.0097 -1.6612
   22CHL1   C10 1593   0.048   6.353   9.964  0.4308 -0.5334  0.5385
   22CHL1   C19 1594  -0.106   6.373  10.002  0.6861  0.1667  0.0570
   22CHL1  H19A 1595  -0.120   6.482  10.012  1.8985  0.4437 -0.9691
   22CHL1  H19B 1596  -0.176   6.327   9.929 -0.3656 -1.2302  1.8489
   22CHL1  H19C 1597  -0.140   6.327  10.097 -1.2741  1.1775 -0.1224
   22CHL1    C1 1598   0.079   6.204   9.994  0.0869  0.1254  0.8299
   22CHL1   H1A 1599  -0.003   6.144   9.948  1.1995  0.0662 -1.1667
   22CHL1   H1B 1600   0.175   6.180   9.945 -0.6818 -1.2171 -0.0865
   22CHL1    C2 1601   0.079   6.165  10.147 -0.5924  0.4300  0.2199
   22CHL1   H2A 1602   0.105   6.058  10.156  1.0356  0.5710 -1.9794
   22CHL1   H2B 1603  -0.025   6.184  10.181 -1.2616 -1.6347 -0.5210
   22CHL1   C20 1604  -0.008   6.550   9.279  0.5088 -0.2950 -0.6281
   22CHL1   H20 1605  -0.087   6.624   9.308  2.4471  0.5770  3.0817
   22CHL1   C21 1606  -0.061   6.411   9.242 -0.0732 -0.2963  0.4584
   22CHL1  H21A 1607  -0.091   6.418   9.136  1.6973 -1.3669 -0.1517
   22CHL1  H21B 1608  -0.147   6.381   9.306  0.2335 -0.0289  1.0032
   22CHL1  H21C 1609   0.016   6.333   9.254 -0.3391 -0.5610  0.4421
   22CHL1   C22 1610   0.069   6.614   9.163 -0.2146  0.2472 -0.2048
   22CHL1  H22A 1611   0.000   6.613   9.076 -1.0447 -0.2050  0.4437
   22CHL1  H22B 1612   0.094   6.720   9.184 -0.1133  0.9616 -3.4541
   22CHL1   C23 1613   0.192   6.533   9.117  0.2525 -0.2540  0.4809
   22CHL1  H23A 1614   0.249   6.510   9.210  0.3280  3.0422  1.3754
   22CHL1  H23B 1615   0.153   6.440   9.072  3.1187 -1.5664  0.4841
   22CHL1   C24 1616   0.282   6.605   9.017  0.0430 -0.1626  0.3056
   22CHL1  H24A 1617   0.224   6.623   8.924  0.1897 -0.2528  0.1974
   22CHL1  H24B 1618   0.316   6.701   9.062 -2.6035 -0.4269  3.2639
   22CHL1   C25 1619   0.407   6.533   8.958 -0.2103  0.2518 -0.6072
   22CHL1   H25 1620   0.477   6.505   9.039 -1.1033 -1.7450 -0.4550
   22CHL1   C26 1621   0.368   6.407   8.882  0.3544  0.0175 -0.1916
   22CHL1  H26A 1622   0.391   6.325   8.954 -3.6442 -1.0464  0.0886
   22CHL1  H26B 1623   0.267   6.416   8.836  0.3781  3.1715  0.1169
   22CHL1  H26C 1624   0.431   6.391   8.792 -0.9659 -2.7147 -0.7209
   22CHL1   C27 1625   0.485   6.631   8.864 -0.8174  0.6882 -1.2585
   22CHL1  H27A 1626   0.584   6.585   8.842 -1.2662  0.1308 -2.1633
   22CHL1  H27B 1627   0.438   6.666   8.770  0.2277  2.8066 -1.0513
   22CHL1  H27C 1628   0.511   6.725   8.917  0.0808 -1.4758  2.5386
   23CHL1    C3 1629   2.474   5.892   9.976  0.5814 -0.1422  0.2901
   23CHL1    H3 1630   2.561   5.960   9.971  1.4909 -1.0691  2.4335
   23CHL1    O3 1631   2.426   5.888  10.111 -0.3894  0.5013  0.5633
   23CHL1   H3' 1632   2.343   5.934  10.101  0.5138  1.7756 -1.8334
   23CHL1    C4 1633   2.366   5.930   9.872  0.1123 -0.1399  0.7538
   23CHL1   H4A 1634   2.271   5.882   9.902 -0.8959  2.2406  1.5860
   23CHL1   H4B 1635   2.352   6.037   9.898  2.0682  0.5644 -0.8857
   23CHL1    C5 1636   2.392   5.908   9.724  0.3208  0.0788 -0.1594
   23CHL1    C6 1637   2.366   6.013   9.641  0.7243  0.0675 -0.4765
   23CHL1    H6 1638   2.347   6.112   9.684  0.1448  0.8302 -2.4018
   23CHL1    C7 1639   2.390   6.003   9.494 -0.3742  0.4388  0.3281
   23CHL1   H7A 1640   2.304   6.050   9.441 -0.2740  2.4385  1.8127
   23CHL1   H7B 1641   2.481   6.057   9.462 -0.2233  0.5593  0.9441
   23CHL1    C8 1642   2.394   5.855   9.442 -0.3023  0.3462 -0.2739
   23CHL1    H8 1643   2.290   5.819   9.452 -0.4818  0.7149 -0.8191
   23CHL1   C14 1644   2.445   5.846   9.304 -0.5116 -0.1503  0.8591
   23CHL1   H14 1645   2.549   5.887   9.304  0.1146 -1.2024 -3.6643
   23CHL1   C15 1646   2.370   5.926   9.196 -0.0482 -0.1848 -0.5685
   23CHL1  H15A 1647   2.261   5.913   9.210 -0.0256  0.7732  0.6327
   23CHL1  H15B 1648   2.395   6.034   9.206 -1.6946  0.0368  1.9540
   23CHL1   C16 1649   2.419   5.857   9.067 -0.1138  0.0973 -0.0255
   23CHL1  H16A 1650   2.339   5.859   8.990  0.6840  0.4104 -0.8631
   23CHL1  H16B 1651   2.494   5.925   9.023 -0.1630  1.1952  1.5003
   23CHL1   C17 1652   2.489   5.717   9.098  0.1567 -0.3063 -0.2061
   23CHL1   H17 1653   2.599   5.734   9.103  0.1095 -0.2360  4.4688
   23CHL1   C13 1654   2.456   5.696   9.253 -0.9539 -0.0130 -0.0440
   23CHL1   C18 1655   2.314   5.631   9.257 -0.6241 -0.1291 -0.1827
   23CHL1  H18A 1656   2.329   5.527   9.220  3.5972 -0.0800  0.8169
   23CHL1  H18B 1657   2.273   5.630   9.360 -0.3194 -0.6605 -0.0619
   23CHL1  H18C 1658   2.238   5.661   9.183 -0.1438  1.6353 -0.0025
   23CHL1   C12 1659   2.562   5.617   9.341  0.0580 -0.4509  0.6007
   23CHL1  H12A 1660   2.581   5.511   9.312  3.4857  0.0837  0.4286
   23CHL1  H12B 1661   2.656   5.676   9.353 -0.2626  0.2871 -0.3898
   23CHL1   C11 1662   2.520   5.626   9.488 -0.1553 -0.3606 -0.0547
   23CHL1  H11A 1663   2.428   5.564   9.503 -0.1976  0.2338  2.8113
   23CHL1  H11B 1664   2.607   5.594   9.550  0.4337  4.0160  1.6864
   23CHL1    C9 1665   2.483   5.764   9.531  0.0720  0.1119  0.3267
   23CHL1    H9 1666   2.575   5.827   9.533 -0.2317  0.5631  0.1815
   23CHL1   C10 1667   2.442   5.775   9.682  0.3664  0.4131 -0.1994
   23CHL1   C19 1668   2.313   5.684   9.702 -0.0031 -0.0822 -0.6246
   23CHL1  H19A 1669   2.261   5.700   9.799 -1.9346  2.1553 -1.9295
   23CHL1  H19B 1670   2.239   5.712   9.624 -0.3478 -0.3835 -0.4081
   23CHL1  H19C 1671   2.347   5.579   9.690  3.4081  0.9753 -1.2523
   23CHL1    C1 1672   2.552   5.738   9.783 -0.1230  0.7575  0.3475
   23CHL1   H1A 1673   2.590   5.636   9.758 -1.1563  0.1286  1.2539
   23CHL1   H1B 1674   2.647   5.788   9.755  0.9530 -0.1429  2.1200
   23CHL1    C2 1675   2.525   5.747   9.932 -0.3428 -0.0761  0.1403
   23CHL1   H2A 1676   2.616   5.726   9.992  0.1947 -0.3064 -0.7470
   23CHL1   H2B 1677   2.438   5.685   9.961 -1.8657  1.0951 -1.7076
   23CHL1   C20 1678   2.453   5.606   9.001  0.1104  0.7601 -0.1945
   23CHL1   H20 1679   2.348   5.576   9.021 -0.0868  1.5535 -0.0029
   23CHL1   C21 1680   2.539   5.481   9.045 -0.2009 -0.3757 -0.2846
   23CHL1  H21A 1681   2.649   5.496   9.033  0.1153 -0.9714  1.6381
   23CHL1  H21B 1682   2.510   5.400   8.975 -0.8369  0.1410 -0.6276
   23CHL1  H21C 1683   2.514   5.444   9.146  2.2498 -0.4496  0.3637
   23CHL1   C22 1684   2.467   5.651   8.848 -0.0469  0.4784  0.0907
   23CHL1  H22A 1685   2.400   5.739   8.837 -1.0224 -0.2607 -0.0099
   23CHL1  H22B 1686   2.568   5.692   8.824  0.7541 -1.7219 -0.5217
   23CHL1   C23 1687   2.432   5.533   8.756 -0.1487 -0.5425 -0.0508
   23CHL1  H23A 1688   2.512   5.456   8.759 -1.0619 -1.5902 -1.5620
   23CHL1  H23B 1689   2.338   5.480   8.785 -0.3012 -0.3363 -0.1714
   23CHL1   C24 1690   2.398   5.588   8.615 -0.5763  0.2391  0.1396
   23CHL1  H24A 1691   2.337   5.680   8.626 -0.1749  0.8636 -2.2525
   23CHL1  H24B 1692   2.500   5.615   8.581 -0.6233  2.4697  1.5718
   23CHL1   C25 1693   2.343   5.495   8.509  0.2123 -0.1728  0.1497
   23CHL1   H25 1694   2.238   5.481   8.541  0.7862 -1.8583  1.4529
   23CHL1   C26 1695   2.343   5.565   8.367  0.3284 -0.0653  0.3947
   23CHL1  H26A 1696   2.296   5.498   8.293 -1.0379 -0.6264  1.7150
   23CHL1  H26B 1697   2.286   5.658   8.390  3.2009  1.2341  3.0935
   23CHL1  H26C 1698   2.441   5.604   8.331  0.0270  0.5312  0.2039
   23CHL1   C27 1699   2.413   5.363   8.500  0.2367  0.0606 -0.0327
   23CHL1  H27A 1700   2.523   5.367   8.493  0.1502  1.3084 -1.0660
   23CHL1  H27B 1701   2.391   5.303   8.591  3.7152 -1.3983 -0.0281
   23CHL1  H27C 1702   2.372   5.304   8.415 -1.5781  0.3494  0.5972
   24CHL1    C3 1703   3.944   1.121  10.111 -0.2226  0.7088  0.4547
   24CHL1    H3 1704   3.856   1.064  10.075 -1.1412  2.1173  0.4140
   24CHL1    O3 1705   3.954   1.092  10.252  0.1031  0.2293  0.0170
   24CHL1   H3' 1706   4.030   1.146  10.276  0.6096  0.9873 -2.8790
   24CHL1    C4 1707   4.074   1.065  10.036  0.2104 -0.4513 -0.2118
   24CHL1   H4A 1708   4.160   1.113  10.088 -0.2623 -0.6343  0.7580
   24CHL1   H4B 1709   4.080   0.956  10.057  0.8604 -0.4932 -0.5962
   24CHL1    C5 1710   4.081   1.099   9.889 -0.3578  0.1647 -0.7068
   24CHL1    C6 1711   4.101   1.007   9.790  0.6174 -0.8197  0.2037
   24CHL1    H6 1712   4.121   0.904   9.822  1.8431 -0.3375  1.0811
   24CHL1    C7 1713   4.100   1.037   9.638 -0.0977  0.3864 -0.0879
   24CHL1   H7A 1714   4.189   0.987   9.594  1.2348  0.1241  2.6569
   24CHL1   H7B 1715   4.004   1.007   9.592 -1.1961  0.1597  2.2067
   24CHL1    C8 1716   4.111   1.185   9.608 -0.6621 -0.7848  0.0936
   24CHL1    H8 1717   4.215   1.219   9.625 -0.5936 -1.1383  0.3942
   24CHL1   C14 1718   4.070   1.209   9.463 -0.3305 -0.6332  0.3353
   24CHL1   H14 1719   3.963   1.181   9.456 -0.2815 -0.6372 -0.5381
   24CHL1   C15 1720   4.140   1.124   9.360 -0.2966 -0.0688 -0.0963
   24CHL1  H15A 1721   4.244   1.103   9.394  0.7766  1.0976 -2.3900
   24CHL1  H15B 1722   4.092   1.024   9.353 -1.7979  0.5833  0.4971
   24CHL1   C16 1723   4.143   1.210   9.236  0.7419  0.2305 -0.8398
   24CHL1  H16A 1724   4.249   1.232   9.210  2.0878 -2.3287  1.9019
   24CHL1  H16B 1725   4.112   1.161   9.141 -2.1333  0.9192 -0.3438
   24CHL1   C17 1726   4.059   1.343   9.272 -0.3027 -0.4459  0.1339
   24CHL1   H17 1727   3.952   1.313   9.268 -0.3122 -0.4172  0.1664
   24CHL1   C13 1728   4.072   1.357   9.425 -0.7655 -0.0916 -0.1258
   24CHL1   C18 1729   4.204   1.431   9.441 -0.0473  0.5355 -0.2134
   24CHL1  H18A 1730   4.241   1.431   9.546 -1.6184  0.2504  0.3692
   24CHL1  H18B 1731   4.286   1.386   9.382 -0.8834  0.7979 -1.6203
   24CHL1  H18C 1732   4.197   1.538   9.411  1.2812 -0.0096 -2.7660
   24CHL1   C12 1733   3.962   1.416   9.509 -0.3567 -0.1334  0.3921
   24CHL1  H12A 1734   3.943   1.523   9.484 -0.1751 -0.4343 -1.1301
   24CHL1  H12B 1735   3.868   1.360   9.492 -0.6314  0.8625 -1.7132
   24CHL1   C11 1736   4.004   1.415   9.658 -0.2721 -0.2273  0.3189
   24CHL1  H11A 1737   4.086   1.489   9.666  1.3743 -1.9541  0.0940
   24CHL1  H11B 1738   3.911   1.456   9.703  0.6522  2.8956 -0.4171
   24CHL1    C9 1739   4.023   1.266   9.705  0.4414 -0.1515  0.5859
   24CHL1    H9 1740   3.923   1.225   9.679 -1.5844  5.2855 -1.6220
   24CHL1   C10 1741   4.049   1.252   9.855 -0.5742  0.9631 -0.2805
   24CHL1   C19 1742   4.182   1.318   9.884  0.2573  0.0944  0.1383
   24CHL1  H19A 1743   4.177   1.429   9.879 -0.4447  0.3457  3.6757
   24CHL1  H19B 1744   4.220   1.305   9.987  1.5588  2.2136 -0.0062
   24CHL1  H19C 1745   4.256   1.272   9.815  1.2271 -0.7233  1.6704
   24CHL1    C1 1746   3.931   1.300   9.935  0.2359 -0.4739 -0.5229
   24CHL1   H1A 1747   3.918   1.410   9.928 -0.4687 -0.3692  1.5685
   24CHL1   H1B 1748   3.845   1.254   9.881  0.3044 -1.2924  0.0461
   24CHL1    C2 1749   3.931   1.273  10.089  0.0912  0.6313  0.0455
   24CHL1   H2A 1750   3.833   1.304  10.132 -0.0553 -1.0475  0.9736
   24CHL1   H2B 1751   4.011   1.333  10.137 -0.8116  1.6998  0.2634
   24CHL1   C20 1752   4.083   1.461   9.175 -0.1480 -0.9091 -0.4140
   24CHL1   H20 1753   4.187   1.500   9.184 -0.1184 -1.4835  2.5734
   24CHL1   C21 1754   3.974   1.563   9.198  0.2635  1.3744 -0.0379
   24CHL1  H21A 1755   3.877   1.509   9.196  0.0535  1.7448  0.0073
   24CHL1  H21B 1756   3.966   1.651   9.130 -0.0911  0.4817 -1.1747
   24CHL1  H21C 1757   3.994   1.611   9.296  1.5014  0.0189  0.4061
   24CHL1   C22 1758   4.075   1.404   9.030 -0.4674 -0.3439  0.3243
   24CHL1  H22A 1759   4.157   1.332   9.013  1.6198  1.6815  1.1723
   24CHL1  H22B 1760   3.973   1.364   9.011 -0.6193  0.7043 -1.2437
   24CHL1   C23 1761   4.097   1.507   8.916  0.2934 -0.5780 -0.6592
   24CHL1  H23A 1762   4.046   1.603   8.939  2.2047 -0.3219  3.3951
   24CHL1  H23B 1763   4.205   1.535   8.921 -0.0633  0.7313  2.8866
   24CHL1   C24 1764   4.063   1.440   8.785 -0.3059 -0.6546  0.2331
   24CHL1  H24A 1765   4.132   1.356   8.762 -1.2987 -1.1389 -1.1069
   24CHL1  H24B 1766   3.966   1.387   8.778 -1.7272  1.9675 -2.3300
   24CHL1   C25 1767   4.065   1.529   8.664 -0.4339 -0.5570  0.1690
   24CHL1   H25 1768   4.157   1.592   8.656 -1.9449  1.6061 -1.9129
   24CHL1   C26 1769   4.043   1.453   8.531  0.1766 -0.3323 -0.0660
   24CHL1  H26A 1770   4.124   1.379   8.515  1.8476  1.3741  0.1714
   24CHL1  H26B 1771   3.945   1.401   8.540  1.4522 -2.8109  0.7644
   24CHL1  H26C 1772   4.035   1.524   8.446  1.6896  1.0884  0.9211
   24CHL1   C27 1773   3.955   1.637   8.678 -1.0178  0.4059  0.6995
   24CHL1  H27A 1774   3.952   1.696   8.583 -0.8999  0.7261  0.8950
   24CHL1  H27B 1775   3.856   1.590   8.698 -0.0600 -2.7607 -1.2650
   24CHL1  H27C 1776   3.978   1.701   8.766  1.1426  0.0371  0.4420
   25CHL1    C3 1777   5.862   4.335  10.359  0.2946  0.1411 -0.1104
   25CHL1    H3 1778   5.804   4.426  10.334 -1.0448 -0.2816  1.2945
   25CHL1    O3 1779   5.864   4.314  10.495  0.7734 -0.2100  0.0060
   25CHL1   H3' 1780   5.795   4.249  10.505 -0.0864  0.4297 -1.4051
   25CHL1    C4 1781   5.784   4.223  10.288 -0.0853  0.0899 -0.0408
   25CHL1   H4A 1782   5.840   4.133  10.318  0.1840 -0.1354 -1.1803
   25CHL1   H4B 1783   5.679   4.226  10.324 -0.4691  0.7231 -1.1689
   25CHL1    C5 1784   5.790   4.230  10.144  0.1621 -0.8241  0.4977
   25CHL1    C6 1785   5.676   4.228  10.070 -0.5537 -0.7260 -0.1068
   25CHL1    H6 1786   5.582   4.227  10.126  0.5017 -1.3855  1.7471
   25CHL1    C7 1787   5.680   4.235   9.917 -0.0425 -0.3154  0.1001
   25CHL1   H7A 1788   5.614   4.160   9.869  1.3111 -1.2633 -0.3105
   25CHL1   H7B 1789   5.656   4.338   9.883  2.2368  0.2002 -0.1151
   25CHL1    C8 1790   5.817   4.191   9.861  0.2669  0.2171 -1.0328
   25CHL1    H8 1791   5.830   4.082   9.879 -0.1447  0.3663  0.3218
   25CHL1   C14 1792   5.822   4.225   9.717  0.1029 -0.2584  0.2204
   25CHL1   H14 1793   5.824   4.335   9.706 -0.8578 -0.3170 -0.7305
   25CHL1   C15 1794   5.704   4.172   9.630 -0.0468 -0.4228  0.0495
   25CHL1  H15A 1795   5.683   4.064   9.647 -1.4149 -0.4886 -1.7312
   25CHL1  H15B 1796   5.611   4.233   9.637  0.6252  0.7023 -0.5055
   25CHL1   C16 1797   5.764   4.178   9.489  0.9257  0.2979 -0.5306
   25CHL1  H16A 1798   5.757   4.083   9.431  3.2354 -0.1519 -0.1518
   25CHL1  H16B 1799   5.708   4.244   9.419  0.4555  0.6062  0.1304
   25CHL1   C17 1800   5.911   4.229   9.501  0.2756  0.2165 -0.0222
   25CHL1   H17 1801   5.913   4.340   9.496  0.1257  0.2737  0.9444
   25CHL1   C13 1802   5.952   4.192   9.649 -0.1883  0.0938 -0.4955
   25CHL1   C18 1803   5.990   4.041   9.653  0.2038 -0.2381  0.4804
   25CHL1  H18A 1804   6.085   4.023   9.599 -0.3626  0.5872 -0.8496
   25CHL1  H18B 1805   5.983   3.992   9.753 -0.8986 -1.2034 -0.0413
   25CHL1  H18C 1806   5.915   3.988   9.590 -0.5921  1.3212  0.0583
   25CHL1   C12 1807   6.064   4.270   9.719  0.3835  0.2748 -0.5162
   25CHL1  H12A 1808   6.165   4.251   9.675  1.4129  4.0034 -0.0954
   25CHL1  H12B 1809   6.052   4.380   9.711  0.5121  0.7077  3.3370
   25CHL1   C11 1810   6.069   4.239   9.866  0.0042 -0.7084 -0.0314
   25CHL1  H11A 1811   6.098   4.132   9.881 -1.9328 -1.1402  0.9736
   25CHL1  H11B 1812   6.140   4.311   9.912 -1.2237  0.9074 -0.6163
   25CHL1    C9 1813   5.932   4.253   9.939  0.0225  0.0636 -0.4482
   25CHL1    H9 1814   5.913   4.360   9.917  1.8270  0.0506 -2.4331
   25CHL1   C10 1815   5.933   4.227  10.088 -0.1730  0.6091 -0.5723
   25CHL1   C19 1816   5.987   4.088  10.112 -0.0673  0.5348  0.6245
   25CHL1  H19A 1817   6.007   4.063  10.218  1.1494 -0.7615  0.1218
   25CHL1  H19B 1818   5.921   4.014  10.062 -0.4280  1.6283 -0.5643
   25CHL1  H19C 1819   6.091   4.091  10.073  0.0818  0.6667  1.0255
   25CHL1    C1 1820   6.016   4.339  10.156 -0.2289 -0.0091 -1.0836
   25CHL1   H1A 1821   6.126   4.328  10.146 -0.2954 -2.2064 -0.0016
   25CHL1   H1B 1822   5.984   4.440  10.122  0.3138  0.1242 -1.2058
   25CHL1    C2 1823   6.007   4.335  10.310  0.2034  0.4542  0.4804
   25CHL1   H2A 1824   6.063   4.414  10.366  2.2199 -0.2486 -0.4508
   25CHL1   H2B 1825   6.051   4.239  10.343  1.1952  0.1103 -1.7019
   25CHL1   C20 1826   5.997   4.194   9.386 -0.2854 -0.2937  0.2477
   25CHL1   H20 1827   6.008   4.084   9.388 -1.6132 -0.4394  0.5537
   25CHL1   C21 1828   6.137   4.257   9.402 -0.4042  0.0854 -0.3605
   25CHL1  H21A 1829   6.134   4.367   9.389 -1.3193  0.1297  0.1184
   25CHL1  H21B 1830   6.196   4.201   9.326 -1.9231 -2.0472 -0.0814
   25CHL1  H21C 1831   6.201   4.224   9.487 -0.4612  0.4167 -0.1863
   25CHL1   C22 1832   5.927   4.230   9.250 -0.4035 -0.2413 -0.3898
   25CHL1  H22A 1833   5.831   4.174   9.242 -0.9227  0.3940  1.1457
   25CHL1  H22B 1834   5.903   4.339   9.248 -1.7034 -0.5107 -0.7760
   25CHL1   C23 1835   6.021   4.186   9.139  0.0644  0.3912  0.4230
   25CHL1  H23A 1836   6.113   4.248   9.143  1.0286 -0.9910  0.3331
   25CHL1  H23B 1837   6.047   4.078   9.143  2.2716  0.8318 -0.5131
   25CHL1   C24 1838   5.951   4.214   9.001 -0.3499 -0.2611 -0.4221
   25CHL1  H24A 1839   5.849   4.178   9.024  0.2025 -2.2718 -0.8513
   25CHL1  H24B 1840   5.955   4.317   8.961  1.4065 -1.3377 -3.3671
   25CHL1   C25 1841   6.003   4.127   8.888  0.5993 -0.3814  0.2694
   25CHL1   H25 1842   5.982   4.020   8.907 -0.4254 -0.7611 -2.5043
   25CHL1   C26 1843   5.940   4.159   8.748  0.0136  0.1932 -0.4397
   25CHL1  H26A 1844   5.987   4.087   8.678  3.6536  0.2836  1.6280
   25CHL1  H26B 1845   5.834   4.130   8.765  0.2710 -1.3365 -1.2584
   25CHL1  H26C 1846   5.950   4.265   8.715 -0.5908  1.5029  3.1684
   25CHL1   C27 1847   6.152   4.143   8.864 -0.3355 -0.0875 -0.0880
   25CHL1  H27A 1848   6.177   4.250   8.849  4.2568 -0.3420  3.7030
   25CHL1  H27B 1849   6.209   4.107   8.952 -1.1103  2.0068  1.3380
   25CHL1  H27C 1850   6.191   4.067   8.792  2.5166 -2.1303  3.2734
   26CHL1    C3 1851   0.218   5.323   9.932  0.3114 -1.4388  0.3457
   26CHL1    H3 1852   0.199   5.224   9.886  0.5367 -2.7884  2.9480
   26CHL1    O3 1853   0.211   5.302  10.071 -0.0226 -0.1004 -0.8290
   26CHL1   H3' 1854   0.225   5.390  10.107 -2.9769  0.0702  0.2284
   26CHL1    C4 1855   0.356   5.365   9.887 -0.1169  0.3561 -0.5228
   26CHL1   H4A 1856   0.371   5.466   9.930  0.4075 -0.6238  1.7579
   26CHL1   H4B 1857   0.425   5.293   9.937 -2.5629 -1.6395  0.2018
   26CHL1    C5 1858   0.372   5.364   9.736  0.3604  0.1661  0.0589
   26CHL1    C6 1859   0.458   5.294   9.668  0.9032  0.3827 -0.3939
   26CHL1    H6 1860   0.528   5.233   9.727  0.2977 -0.3043 -0.3714
   26CHL1    C7 1861   0.473   5.307   9.520  0.1375 -0.1583  0.1266
   26CHL1   H7A 1862   0.577   5.345   9.507 -0.5309  1.9694  0.4753
   26CHL1   H7B 1863   0.464   5.207   9.472  2.3941  0.0630 -0.8657
   26CHL1    C8 1864   0.391   5.419   9.446 -0.4582  0.4100  1.1318
   26CHL1    H8 1865   0.456   5.509   9.447  0.4755 -0.1906 -0.6095
   26CHL1   C14 1866   0.353   5.381   9.301  0.2954 -0.3357 -0.3833
   26CHL1   H14 1867   0.288   5.291   9.298 -0.8086  0.4554 -1.9021
   26CHL1   C15 1868   0.472   5.345   9.200 -0.2486  0.1155  0.2836
   26CHL1  H15A 1869   0.558   5.413   9.211  0.9093 -0.8991 -1.8286
   26CHL1  H15B 1870   0.501   5.239   9.218  0.6886  0.3199  0.0463
   26CHL1   C16 1871   0.417   5.382   9.065  0.6216 -0.2902  0.3711
   26CHL1  H16A 1872   0.480   5.462   9.022 -1.0424  0.8664  0.0038
   26CHL1  H16B 1873   0.412   5.304   8.987 -0.7130  0.5705 -0.4511
   26CHL1   C17 1874   0.273   5.432   9.089 -0.5892  0.2786 -0.0043
   26CHL1   H17 1875   0.209   5.342   9.094 -2.0338  1.2949  0.3273
   26CHL1   C13 1876   0.277   5.494   9.229 -0.0305  0.5614 -0.5921
   26CHL1   C18 1877   0.348   5.625   9.224  0.1629 -0.5284 -0.2167
   26CHL1  H18A 1878   0.293   5.710   9.178  1.3801 -0.2221 -1.1742
   26CHL1  H18B 1879   0.389   5.656   9.323 -0.8622  1.2102 -0.3011
   26CHL1  H18C 1880   0.441   5.630   9.163  0.1991 -1.0729 -0.2057
   26CHL1   C12 1881   0.139   5.513   9.298  0.4367  0.2807 -0.2933
   26CHL1  H12A 1882   0.084   5.601   9.256 -0.6573 -0.7951 -1.2096
   26CHL1  H12B 1883   0.077   5.422   9.282 -3.0779  2.4116  0.2166
   26CHL1   C11 1884   0.165   5.539   9.442  0.5989 -0.4573  0.7225
   26CHL1  H11A 1885   0.199   5.644   9.454 -1.8786  0.6002 -0.8446
   26CHL1  H11B 1886   0.068   5.526   9.494 -1.2613 -1.4399 -2.6424
   26CHL1    C9 1887   0.257   5.438   9.513  0.2237 -0.5056  0.2512
   26CHL1    H9 1888   0.209   5.337   9.512 -0.0264 -0.3958 -1.5767
   26CHL1   C10 1889   0.277   5.463   9.670 -0.2806 -0.0306 -0.0634
   26CHL1   C19 1890   0.328   5.604   9.683  0.7604 -0.0995  0.2391
   26CHL1  H19A 1891   0.407   5.639   9.613  0.9879  0.0118  0.5501
   26CHL1  H19B 1892   0.251   5.683   9.685  0.8755  0.0869 -1.6099
   26CHL1  H19C 1893   0.374   5.613   9.784  0.8218 -0.4802  0.2466
   26CHL1    C1 1894   0.131   5.447   9.738  0.5503  0.7273 -0.3325
   26CHL1   H1A 1895   0.071   5.537   9.715 -1.6012 -0.4147  0.5739
   26CHL1   H1B 1896   0.084   5.359   9.689  0.6409  0.5443 -0.0935
   26CHL1    C2 1897   0.127   5.438   9.890  0.1036  1.2625 -0.4881
   26CHL1   H2A 1898   0.023   5.413   9.920  0.6863  0.4080  0.9728
   26CHL1   H2B 1899   0.158   5.527   9.949  1.7843  0.0072  0.6314
   26CHL1   C20 1900   0.215   5.525   8.976  0.4483  0.9782 -0.5954
   26CHL1   H20 1901   0.136   5.590   9.019 -0.1824 -1.0776  1.5300
   26CHL1   C21 1902   0.141   5.419   8.892  0.0005 -0.5688  1.0602
   26CHL1  H21A 1903   0.087   5.462   8.804  1.6002  0.5627  0.5830
   26CHL1  H21B 1904   0.061   5.376   8.956 -1.8871  0.6828 -0.3368
   26CHL1  H21C 1905   0.211   5.341   8.855  0.1072  1.1402 -2.8155
   26CHL1   C22 1906   0.310   5.605   8.885 -0.6485 -0.4526  0.3529
   26CHL1  H22A 1907   0.375   5.649   8.964 -0.3231 -1.2591  0.5522
   26CHL1  H22B 1908   0.373   5.543   8.818  2.5384  2.2948  0.5996
   26CHL1   C23 1909   0.235   5.717   8.808  0.6819  0.0149  0.1792
   26CHL1  H23A 1910   0.193   5.676   8.713  0.8795 -0.0398  0.1149
   26CHL1  H23B 1911   0.151   5.758   8.867  1.6655  1.0021  0.9160
   26CHL1   C24 1912   0.315   5.842   8.775  0.6653  0.4573  0.4205
   26CHL1  H24A 1913   0.243   5.910   8.725  0.4803  0.0894  0.1873
   26CHL1  H24B 1914   0.352   5.880   8.873 -0.4236 -4.5052  3.0407
   26CHL1   C25 1915   0.431   5.822   8.671  0.0631 -0.3188 -0.3291
   26CHL1   H25 1916   0.515   5.774   8.726  2.3231  1.6936 -1.8460
   26CHL1   C26 1917   0.371   5.750   8.546 -0.3115 -1.0229  0.3166
   26CHL1  H26A 1918   0.280   5.805   8.515  2.1358  2.3361 -1.4755
   26CHL1  H26B 1919   0.449   5.755   8.467  0.1941  0.4080  0.8874
   26CHL1  H26C 1920   0.355   5.640   8.559 -2.3792 -1.1139 -2.0979
   26CHL1   C27 1921   0.482   5.960   8.631 -0.1909  0.0643  0.3786
   26CHL1  H27A 1922   0.509   6.020   8.721 -0.5793  0.3805  0.2888
   26CHL1  H27B 1923   0.570   5.946   8.564  1.0452  0.7072  1.8123
   26CHL1  H27C 1924   0.402   6.011   8.574 -1.8007 -2.3631  0.3132
   27CHL1    C3 1925   0.324   2.642  10.329  0.2116  0.3287  0.5180
   27CHL1    H3 1926   0.274   2.546  10.356 -1.3069  1.5745  2.4113
   27CHL1    O3 1927   0.345   2.712  10.449  0.3133  0.4730  0.0277
   27CHL1   H3' 1928   0.419   2.669  10.493  1.5345  1.3019 -1.1446
   27CHL1    C4 1929   0.457   2.605  10.265 -0.0683 -0.0046 -0.0539
   27CHL1   H4A 1930   0.527   2.691  10.253  0.1886 -0.4073 -1.6048
   27CHL1   H4B 1931   0.517   2.537  10.329  0.9794 -0.8843 -1.8970
   27CHL1    C5 1932   0.431   2.544  10.131  0.5545  0.3592 -0.2089
   27CHL1    C6 1933   0.479   2.426  10.101  0.0547 -0.5850 -0.6319
   27CHL1    H6 1934   0.524   2.371  10.186  1.1135  0.9060 -0.1813
   27CHL1    C7 1935   0.472   2.368   9.969  0.6677 -0.2721  0.1285
   27CHL1   H7A 1936   0.575   2.339   9.939  1.6883  1.3087  1.8917
   27CHL1   H7B 1937   0.420   2.270   9.969  1.0215 -0.4677 -0.4710
   27CHL1    C8 1938   0.426   2.457   9.853  0.4156 -0.4584 -0.8094
   27CHL1    H8 1939   0.513   2.520   9.825  0.3071 -0.2966 -0.7865
   27CHL1   C14 1940   0.375   2.379   9.728 -0.0720  0.2556  0.2187
   27CHL1   H14 1941   0.284   2.320   9.749  0.9094 -2.2156 -1.9202
   27CHL1   C15 1942   0.474   2.269   9.673 -0.1394 -0.0376 -0.3729
   27CHL1  H15A 1943   0.577   2.309   9.690 -0.4461 -0.6619  4.0930
   27CHL1  H15B 1944   0.459   2.175   9.730 -0.2751  0.8254  1.0619
   27CHL1   C16 1945   0.428   2.256   9.528  0.0012 -0.1205  0.1028
   27CHL1  H16A 1946   0.517   2.277   9.466 -2.2277  1.5257 -2.7932
   27CHL1  H16B 1947   0.391   2.155   9.499 -1.0937 -0.1590  1.4941
   27CHL1   C17 1948   0.317   2.367   9.505 -0.0871  0.5074  0.6281
   27CHL1   H17 1949   0.217   2.325   9.527 -0.3732  1.0802  0.4250
   27CHL1   C13 1950   0.340   2.470   9.612 -0.4183 -0.1378 -0.3792
   27CHL1   C18 1951   0.465   2.556   9.573 -0.8536 -0.2794  1.1330
   27CHL1  H18A 1952   0.515   2.616   9.652  0.6419  1.7605 -1.1797
   27CHL1  H18B 1953   0.546   2.497   9.526  0.3397  1.1784  1.2748
   27CHL1  H18C 1954   0.417   2.620   9.495 -1.6498 -2.7488 -0.5317
   27CHL1   C12 1955   0.226   2.566   9.654 -0.0419  0.3586  0.9978
   27CHL1  H12A 1956   0.207   2.644   9.577 -0.7707  0.2431  1.0571
   27CHL1  H12B 1957   0.130   2.515   9.677 -0.9080  0.8025 -1.3308
   27CHL1   C11 1958   0.264   2.642   9.782 -0.5210 -0.4683 -0.8091
   27CHL1  H11A 1959   0.338   2.716   9.745 -0.5099 -1.2882 -2.5780
   27CHL1  H11B 1960   0.172   2.691   9.820  0.7342 -0.4571  2.5419
   27CHL1    C9 1961   0.320   2.550   9.894 -0.2471  0.2031 -0.0404
   27CHL1    H9 1962   0.232   2.485   9.913  1.2037 -1.2126  2.2307
   27CHL1   C10 1963   0.352   2.632  10.022  0.7713  0.5289  0.4545
   27CHL1   C19 1964   0.438   2.755   9.990  0.2344  0.8651  0.5714
   27CHL1  H19A 1965   0.432   2.811  10.086 -0.1890 -0.4445  1.3457
   27CHL1  H19B 1966   0.540   2.725   9.958  0.5315  2.1913  0.2195
   27CHL1  H19C 1967   0.390   2.814   9.910 -1.1362  1.0404  1.4837
   27CHL1    C1 1968   0.220   2.683  10.088 -0.5726  0.0147  0.1278
   27CHL1   H1A 1969   0.186   2.754  10.009 -0.1574 -0.2182 -0.2652
   27CHL1   H1B 1970   0.151   2.595  10.088 -0.7130  0.1109  1.1097
   27CHL1    C2 1971   0.231   2.728  10.242 -0.4036  0.0342  0.2634
   27CHL1   H2A 1972   0.129   2.754  10.278 -0.8067  2.7353 -2.4211
   27CHL1   H2B 1973   0.292   2.821  10.243 -0.1368 -0.1265 -0.3048
   27CHL1   C20 1974   0.311   2.405   9.348  0.7111 -0.0858 -0.1749
   27CHL1   H20 1975   0.389   2.480   9.321 -1.3112  1.9464 -0.6536
   27CHL1   C21 1976   0.180   2.476   9.320  0.1152  0.3226 -0.3578
   27CHL1  H21A 1977   0.090   2.412   9.332  0.2295  0.1497 -0.4039
   27CHL1  H21B 1978   0.186   2.524   9.220 -0.0387  2.7013  0.7270
   27CHL1  H21C 1979   0.176   2.562   9.389 -0.2515  0.0055  0.0181
   27CHL1   C22 1980   0.327   2.286   9.253 -0.4980  0.1402  0.0264
   27CHL1  H22A 1981   0.429   2.244   9.268 -0.6466 -0.1144  0.3379
   27CHL1  H22B 1982   0.252   2.208   9.280  0.2807 -0.6363  0.0073
   27CHL1   C23 1983   0.320   2.317   9.101 -0.1241  0.4483 -0.1783
   27CHL1  H23A 1984   0.216   2.344   9.074 -0.2935 -0.4727 -0.4726
   27CHL1  H23B 1985   0.382   2.405   9.072  1.6240 -1.0207 -1.0429
   27CHL1   C24 1986   0.348   2.186   9.028  0.2489 -0.3602 -1.1201
   27CHL1  H24A 1987   0.442   2.142   9.068  0.1967  1.2953  0.9445
   27CHL1  H24B 1988   0.264   2.115   9.049 -0.7065  1.2907  0.9999
   27CHL1   C25 1989   0.377   2.196   8.878  0.0400 -0.6073  0.8112
   27CHL1   H25 1990   0.444   2.283   8.861  1.1326 -1.4954  0.4563
   27CHL1   C26 1991   0.433   2.062   8.827 -0.5728  0.0545  0.6407
   27CHL1  H26A 1992   0.349   1.990   8.816  0.5593 -0.9905 -1.9792
   27CHL1  H26B 1993   0.470   2.076   8.724 -2.1144  2.2593  0.3021
   27CHL1  H26C 1994   0.511   2.019   8.893 -1.4588  0.3594  1.9417
   27CHL1   C27 1995   0.246   2.228   8.796  0.1164  0.0754 -0.2660
   27CHL1  H27A 1996   0.282   2.238   8.691  0.3148 -2.4948 -0.5032
   27CHL1  H27B 1997   0.185   2.136   8.800 -0.0924  0.2351  2.6492
   27CHL1  H27C 1998   0.194   2.315   8.842 -2.9070 -2.3158  1.1566
   28CHL1    C3 1999   4.396   6.762  10.005 -0.5711  0.5807  0.6393
   28CHL1    H3 2000   4.310   6.832   9.996 -0.6557  0.3191 -0.7873
   28CHL1    O3 2001   4.459   6.764  10.130 -0.3501  0.3296 -0.6641
   28CHL1   H3' 2002   4.470   6.859  10.143 -2.9883  0.5319  1.1221
   28CHL1    C4 2003   4.342   6.623   9.960 -0.0613 -0.4416  0.3735
   28CHL1   H4A 2004   4.429   6.557   9.982  2.6200  2.5953 -0.2566
   28CHL1   H4B 2005   4.256   6.606  10.028  0.7655  0.1586  1.6020
   28CHL1    C5 2006   4.314   6.603   9.811  0.6301 -0.4167 -0.2766
   28CHL1    C6 2007   4.200   6.544   9.763  0.3717  0.0835 -0.4401
   28CHL1    H6 2008   4.131   6.499   9.836  1.8907  0.0947  1.0426
   28CHL1    C7 2009   4.171   6.524   9.617  0.2948  0.3936 -1.0212
   28CHL1   H7A 2010   4.144   6.418   9.599 -1.2869  0.8667 -1.5383
   28CHL1   H7B 2011   4.078   6.583   9.604 -0.7936 -0.7362  1.1263
   28CHL1    C8 2012   4.289   6.562   9.524 -0.5404 -0.3965  0.3162
   28CHL1    H8 2013   4.358   6.475   9.517  2.9017  2.1966 -0.8342
   28CHL1   C14 2014   4.235   6.599   9.384  0.1767  0.1474 -0.4852
   28CHL1   H14 2015   4.170   6.687   9.402 -0.6270 -0.4993 -0.1476
   28CHL1   C15 2016   4.142   6.498   9.323  0.2943  0.6869  0.2735
   28CHL1  H15A 2017   4.185   6.396   9.334 -0.3664  0.4770  0.9643
   28CHL1  H15B 2018   4.040   6.495   9.365 -0.2970 -1.5156 -1.1753
   28CHL1   C16 2019   4.136   6.542   9.175  0.2433 -0.3150 -0.4294
   28CHL1  H16A 2020   4.169   6.457   9.112  3.5118 -1.4416  2.5248
   28CHL1  H16B 2021   4.036   6.571   9.134 -0.0581 -0.9872 -0.1666
   28CHL1   C17 2022   4.235   6.654   9.160 -0.5039  0.1770  0.4754
   28CHL1   H17 2023   4.176   6.745   9.186 -1.9755  0.6691 -3.8573
   28CHL1   C13 2024   4.336   6.636   9.273 -0.1968 -0.4041 -0.6186
   28CHL1   C18 2025   4.438   6.520   9.242  0.5103 -0.2640  0.6936
   28CHL1  H18A 2026   4.525   6.571   9.195 -0.8358  0.4596 -1.1545
   28CHL1  H18B 2027   4.470   6.475   9.338  1.4749  1.8138  1.4171
   28CHL1  H18C 2028   4.400   6.433   9.185  0.0143  0.5090 -0.1926
   28CHL1   C12 2029   4.419   6.758   9.326  0.4498  0.0414 -0.1074
   28CHL1  H12A 2030   4.490   6.794   9.248 -0.9207  2.3130 -0.3995
   28CHL1  H12B 2031   4.349   6.844   9.332  0.0436 -0.3440  0.7432
   28CHL1   C11 2032   4.472   6.728   9.463 -0.3475 -0.5950 -0.3491
   28CHL1  H11A 2033   4.547   6.647   9.448  1.5612  1.4449 -2.5260
   28CHL1  H11B 2034   4.535   6.813   9.497  0.1761 -1.9381  2.4016
   28CHL1    C9 2035   4.364   6.686   9.566 -0.0320  0.1921  0.5959
   28CHL1    H9 2036   4.296   6.773   9.579  1.2500  1.1697  0.9290
   28CHL1   C10 2037   4.413   6.671   9.715 -0.1537 -0.3315  0.8785
   28CHL1   C19 2038   4.538   6.585   9.711  0.3987  0.5464  0.8348
   28CHL1  H19A 2039   4.560   6.536   9.808  0.4278 -0.6707  0.2279
   28CHL1  H19B 2040   4.524   6.506   9.635 -1.8172  0.5100  1.1984
   28CHL1  H19C 2041   4.623   6.651   9.681 -1.5742  2.2328 -1.4619
   28CHL1    C1 2042   4.450   6.806   9.764 -0.1900 -0.6548 -0.0403
   28CHL1   H1A 2043   4.536   6.849   9.707  0.9019 -1.0734  1.2267
   28CHL1   H1B 2044   4.359   6.868   9.780  0.0308 -0.7412  1.8484
   28CHL1    C2 2045   4.504   6.809   9.903  0.6643  0.2679 -0.3851
   28CHL1   H2A 2046   4.532   6.911   9.938  0.6486 -0.2786  1.2791
   28CHL1   H2B 2047   4.590   6.740   9.921 -0.6324 -1.5546 -0.8803
   28CHL1   C20 2048   4.283   6.674   9.021 -0.6196 -0.3958  1.2061
   28CHL1   H20 2049   4.339   6.586   8.984 -1.2365 -0.5871  0.6939
   28CHL1   C21 2050   4.369   6.801   9.010  0.6903  0.0804 -0.4562
   28CHL1  H21A 2051   4.474   6.779   9.039  0.5423 -1.8849 -1.2913
   28CHL1  H21B 2052   4.331   6.873   9.086 -0.4394  0.0860 -1.0053
   28CHL1  H21C 2053   4.366   6.849   8.910  2.1419  0.8356 -0.1688
   28CHL1   C22 2054   4.174   6.689   8.909  0.2686 -0.4454  0.4364
   28CHL1  H22A 2055   4.085   6.624   8.923 -0.3110 -0.1108 -1.4469
   28CHL1  H22B 2056   4.141   6.794   8.899 -3.5951 -1.3929  1.6242
   28CHL1   C23 2057   4.224   6.655   8.764 -0.4501  0.0776 -0.1641
   28CHL1  H23A 2058   4.331   6.686   8.753  0.3204 -2.2388  0.3196
   28CHL1  H23B 2059   4.230   6.545   8.750  2.8966 -0.0393  1.1620
   28CHL1   C24 2060   4.151   6.712   8.644  0.0984 -0.0027  0.0305
   28CHL1  H24A 2061   4.181   6.652   8.556 -0.4305 -1.2805  0.6961
   28CHL1  H24B 2062   4.040   6.700   8.644 -0.2317  2.3228 -1.0693
   28CHL1   C25 2063   4.171   6.864   8.616 -0.0420  0.0173 -0.2529
   28CHL1   H25 2064   4.144   6.923   8.705 -2.2857 -0.2947 -0.6806
   28CHL1   C26 2065   4.313   6.902   8.567  0.2610  0.0548  0.5229
   28CHL1  H26A 2066   4.332   6.848   8.472 -1.7518 -2.6559  1.5442
   28CHL1  H26B 2067   4.308   7.013   8.556  0.7267  0.0161 -0.1436
   28CHL1  H26C 2068   4.401   6.881   8.632  0.8297 -1.0262 -0.5657
   28CHL1   C27 2069   4.069   6.912   8.506 -0.1375 -0.4168  0.1759
   28CHL1  H27A 2070   4.084   7.022   8.495  1.2443 -0.3096  2.3790
   28CHL1  H27B 2071   4.079   6.854   8.412 -0.3669 -2.5027  1.3832
   28CHL1  H27C 2072   3.967   6.902   8.550 -0.2684  1.5411  0.4150
   29CHL1    C3 2073   0.022   3.861   6.620 -0.1235  0.1048  0.3295
   29CHL1    H3 2074  -0.058   3.791   6.652 -1.7907  1.4923 -0.6334
   29CHL1    O3 2075   0.018   3.863   6.480 -0.1818 -0.1788 -1.3098
   29CHL1   H3' 2076  -0.069   3.900   6.463 -3.2290 -4.2285  2.8787
   29CHL1    C4 2077  -0.012   3.992   6.690 -0.0654 -1.2374  0.7906
   29CHL1   H4A 2078   0.054   4.075   6.658  1.5181 -1.9010  2.2037
   29CHL1   H4B 2079  -0.117   4.023   6.671  0.2761 -0.5367  0.0292
   29CHL1    C5 2080   0.010   3.981   6.842  0.6378  0.5082 -0.6859
   29CHL1    C6 2081  -0.094   4.023   6.918 -0.0430  0.0126 -0.7361
   29CHL1    H6 2082  -0.177   4.072   6.866 -0.6076 -0.0481  0.0842
   29CHL1    C7 2083  -0.099   4.011   7.070  0.7659 -0.2202  0.5967
   29CHL1   H7A 2084  -0.139   4.103   7.119 -3.0861 -0.9699 -0.7266
   29CHL1   H7B 2085  -0.172   3.934   7.103 -0.1313 -0.1035 -1.0069
   29CHL1    C8 2086   0.038   3.970   7.136  0.1346  0.7000 -0.4590
   29CHL1    H8 2087   0.107   4.057   7.141  0.6671  0.2117  2.2072
   29CHL1   C14 2088   0.016   3.915   7.279  0.4933 -0.3848 -0.0060
   29CHL1   H14 2089  -0.055   3.831   7.265  0.0925 -0.6124  2.7996
   29CHL1   C15 2090  -0.067   4.001   7.381 -0.4210 -0.1920 -0.1103
   29CHL1  H15A 2091  -0.057   4.111   7.392 -1.0977 -0.1925  0.5584
   29CHL1  H15B 2092  -0.173   3.975   7.359 -0.6811 -1.0764  2.0012
   29CHL1   C16 2093  -0.036   3.927   7.515  0.1020 -0.2522  0.5277
   29CHL1  H16A 2094   0.012   3.988   7.594  1.7582  0.5205 -0.9979
   29CHL1  H16B 2095  -0.124   3.872   7.554  0.6141 -1.2655  0.3120
   29CHL1   C17 2096   0.075   3.816   7.491 -0.8549 -0.2240  0.3678
   29CHL1   H17 2097   0.018   3.723   7.471 -0.1631 -0.4334 -0.6488
   29CHL1   C13 2098   0.136   3.854   7.352  0.3432  0.2469 -0.8518
   29CHL1   C18 2099   0.236   3.963   7.373 -0.3987 -0.3985  0.4476
   29CHL1  H18A 2100   0.287   4.000   7.281 -0.9602  0.6815  0.5504
   29CHL1  H18B 2101   0.192   4.055   7.418 -0.7065 -0.8405  1.0655
   29CHL1  H18C 2102   0.317   3.923   7.438  0.6880 -1.4104 -1.4569
   29CHL1   C12 2103   0.198   3.741   7.259 -0.0358  0.2812 -0.2841
   29CHL1  H12A 2104   0.301   3.714   7.291  0.7770  3.0210 -0.2764
   29CHL1  H12B 2105   0.137   3.649   7.252 -0.3502  0.5839 -1.8997
   29CHL1   C11 2106   0.217   3.789   7.119  0.1570 -0.1520  0.9346
   29CHL1  H11A 2107   0.304   3.856   7.136 -1.5659  1.9129  1.9577
   29CHL1  H11B 2108   0.254   3.705   7.055  2.6957  1.3812  0.2363
   29CHL1    C9 2109   0.096   3.867   7.051  0.4125 -0.1790 -0.5190
   29CHL1    H9 2110   0.019   3.788   7.047  0.0786 -0.2502  3.6044
   29CHL1   C10 2111   0.133   3.912   6.905  0.9618  0.3355 -0.0285
   29CHL1   C19 2112   0.261   4.011   6.897 -0.4736 -0.0442 -0.4277
   29CHL1  H19A 2113   0.273   4.076   6.808  0.7613  1.8473  1.0482
   29CHL1  H19B 2114   0.268   4.084   6.980  0.2029 -1.1576  0.5274
   29CHL1  H19C 2115   0.356   3.953   6.893 -0.9717 -0.8283 -1.4133
   29CHL1    C1 2116   0.161   3.790   6.820  0.1971  0.0149  0.1949
   29CHL1   H1A 2117   0.261   3.749   6.849  0.6788  1.3940  0.5483
   29CHL1   H1B 2118   0.094   3.705   6.847  1.9286 -2.1806 -1.9054
   29CHL1    C2 2119   0.159   3.807   6.670  0.4394 -0.5083  0.7062
   29CHL1   H2A 2120   0.193   3.716   6.616  0.7837  0.5027 -0.8279
   29CHL1   H2B 2121   0.236   3.886   6.656 -0.0768 -0.0654  0.3051
   29CHL1   C20 2122   0.173   3.785   7.608  0.7136  0.4216 -0.5277
   29CHL1   H20 2123   0.243   3.869   7.623  1.4876 -0.0745 -1.3080
   29CHL1   C21 2124   0.252   3.658   7.576  0.1247  0.1757 -0.6047
   29CHL1  H21A 2125   0.306   3.629   7.669 -0.3018 -1.3726 -0.8026
   29CHL1  H21B 2126   0.328   3.681   7.499  0.9911  2.6887  0.8825
   29CHL1  H21C 2127   0.186   3.576   7.541  0.2146 -0.6037  0.9438
   29CHL1   C22 2128   0.094   3.763   7.745 -0.3322 -0.2469  0.6774
   29CHL1  H22A 2129   0.005   3.829   7.741 -0.5395 -0.5875 -0.7406
   29CHL1  H22B 2130   0.047   3.662   7.747  1.6206 -1.2244  0.0252
   29CHL1   C23 2131   0.169   3.795   7.878 -0.1522  0.6417 -0.1867
   29CHL1  H23A 2132   0.278   3.775   7.868 -0.2373  0.0993 -0.0918
   29CHL1  H23B 2133   0.152   3.904   7.887 -1.9556  0.4865 -1.1869
   29CHL1   C24 2134   0.108   3.730   8.009 -0.2020 -0.0179  0.5436
   29CHL1  H24A 2135   0.162   3.779   8.093 -0.3126  0.3402  0.4068
   29CHL1  H24B 2136  -0.000   3.752   8.012 -0.8814 -2.9072  0.2608
   29CHL1   C25 2137   0.126   3.577   8.024 -0.9230  0.0371 -0.4147
   29CHL1   H25 2138   0.089   3.526   7.932  2.3341 -2.0132 -0.7550
   29CHL1   C26 2139   0.278   3.543   8.031  0.0554 -0.1732  0.5771
   29CHL1  H26A 2140   0.315   3.526   7.928  0.6245  0.9216  0.5790
   29CHL1  H26B 2141   0.342   3.621   8.078  2.0056 -1.1249 -0.3902
   29CHL1  H26C 2142   0.284   3.453   8.095  0.0664  0.6513  1.7701
   29CHL1   C27 2143   0.045   3.519   8.136  0.2621  0.0718  0.1557
   29CHL1  H27A 2144   0.040   3.408   8.133  0.1982  0.0382  1.0887
   29CHL1  H27B 2145   0.096   3.543   8.232 -1.2438 -1.8126  1.4864
   29CHL1  H27C 2146  -0.060   3.553   8.149  0.6569  1.1359  0.7057
   30CHL1    C3 2147   4.431   1.959   6.914 -0.0322 -0.2167  0.3253
   30CHL1    H3 2148   4.527   2.013   6.900 -0.3457  0.0417 -0.9628
   30CHL1    O3 2149   4.359   1.966   6.790  0.6685  0.0940  0.1077
   30CHL1   H3' 2150   4.424   1.982   6.722  2.7373 -1.9075  1.4940
   30CHL1    C4 2151   4.458   1.814   6.951  0.2308  0.7880  1.0858
   30CHL1   H4A 2152   4.360   1.761   6.952  1.6419 -2.0965 -0.1742
   30CHL1   H4B 2153   4.510   1.762   6.868 -1.5678 -2.4158  1.7840
   30CHL1    C5 2154   4.528   1.790   7.080 -0.6018  0.1846  0.8639
   30CHL1    C6 2155   4.636   1.712   7.091  0.1731  0.5395  0.0772
   30CHL1    H6 2156   4.676   1.658   7.004  1.7136  1.0916  0.4074
   30CHL1    C7 2157   4.709   1.684   7.224 -0.0045 -0.6889 -0.5309
   30CHL1   H7A 2158   4.723   1.576   7.248  0.9371 -0.2707  0.9491
   30CHL1   H7B 2159   4.809   1.732   7.216  0.5750 -1.8724 -0.5921
   30CHL1    C8 2160   4.632   1.748   7.349  0.4072  0.0523  0.2459
   30CHL1    H8 2161   4.555   1.672   7.374 -0.8361  1.3502  0.4986
   30CHL1   C14 2162   4.729   1.763   7.465  0.9673  0.0156 -0.2171
   30CHL1   H14 2163   4.811   1.830   7.432  1.4163  0.0380  0.9145
   30CHL1   C15 2164   4.803   1.635   7.504  0.2564  0.0727  0.7456
   30CHL1  H15A 2165   4.732   1.552   7.523  0.9199 -0.4426  1.0488
   30CHL1  H15B 2166   4.880   1.595   7.434 -0.0750 -0.7900  0.8536
   30CHL1   C16 2167   4.870   1.679   7.647  0.3299  1.1640  0.6489
   30CHL1  H16A 2168   4.836   1.600   7.717  0.8803 -0.3232 -0.6928
   30CHL1  H16B 2169   4.981   1.673   7.646  0.3615  0.2514  3.1687
   30CHL1   C17 2170   4.799   1.811   7.689 -0.2205  0.9574  1.0278
   30CHL1   H17 2171   4.868   1.891   7.656 -0.0089  0.0507 -0.8587
   30CHL1   C13 2172   4.676   1.819   7.594 -0.1025 -0.0304 -0.2490
   30CHL1   C18 2173   4.558   1.724   7.651 -0.0249 -0.2325 -0.0446
   30CHL1  H18A 2174   4.601   1.626   7.683 -1.0939 -1.2588 -1.5734
   30CHL1  H18B 2175   4.522   1.781   7.739  0.9439  0.2740  0.0377
   30CHL1  H18C 2176   4.473   1.703   7.582  0.6608  2.7762 -1.9747
   30CHL1   C12 2177   4.618   1.961   7.555  0.0436 -0.4894 -0.6862
   30CHL1  H12A 2178   4.556   1.995   7.640  0.4788 -1.6908  0.1453
   30CHL1  H12B 2179   4.700   2.036   7.542 -0.5498  0.9734  2.7107
   30CHL1   C11 2180   4.515   1.954   7.445 -0.1319 -0.3145  0.9778
   30CHL1  H11A 2181   4.429   1.900   7.491 -1.2960  0.5888 -0.1013
   30CHL1  H11B 2182   4.478   2.052   7.410 -3.1754 -1.9031 -0.6706
   30CHL1    C9 2183   4.567   1.881   7.322 -0.4423  0.8768 -0.3695
   30CHL1    H9 2184   4.653   1.940   7.282 -1.8623  3.8403  0.6397
   30CHL1   C10 2185   4.465   1.871   7.203  0.3964  0.1293 -0.1702
   30CHL1   C19 2186   4.332   1.806   7.249  0.5010 -0.3761  0.1115
   30CHL1  H19A 2187   4.275   1.744   7.176 -1.4761 -0.3326  1.5527
   30CHL1  H19B 2188   4.358   1.747   7.339  2.2167  0.7792  0.4176
   30CHL1  H19C 2189   4.264   1.887   7.284  1.9503  0.4195  1.1738
   30CHL1    C1 2190   4.429   2.010   7.161 -0.1998 -0.8265 -0.0272
   30CHL1   H1A 2191   4.377   2.068   7.241  2.1097  0.6533  0.4963
   30CHL1   H1B 2192   4.517   2.076   7.147  0.4020 -1.1943  1.7542
   30CHL1    C2 2193   4.345   2.009   7.032 -0.0326  0.3310 -0.1886
   30CHL1   H2A 2194   4.334   2.117   7.009  1.4120  0.4289 -0.5454
   30CHL1   H2B 2195   4.246   1.962   7.046  0.2822 -0.0257  1.0003
   30CHL1   C20 2196   4.779   1.834   7.835  0.4165 -0.2690 -0.3883
   30CHL1   H20 2197   4.721   1.746   7.871  1.2002 -0.1167  1.3539
   30CHL1   C21 2198   4.693   1.961   7.871  0.0874  1.1499 -0.0070
   30CHL1  H21A 2199   4.744   2.055   7.843 -0.2398  0.7179 -2.2426
   30CHL1  H21B 2200   4.674   1.956   7.980 -0.7101  1.1765 -0.1388
   30CHL1  H21C 2201   4.599   1.957   7.812  0.0834 -2.0252  0.0474
   30CHL1   C22 2202   4.906   1.842   7.916 -0.3531 -0.1537  0.0310
   30CHL1  H22A 2203   4.989   1.787   7.867  0.7668  2.0341 -0.6903
   30CHL1  H22B 2204   4.945   1.946   7.916  1.4062 -0.7674  1.0505
   30CHL1   C23 2205   4.882   1.795   8.065  0.4844  0.3072 -0.6815
   30CHL1  H23A 2206   4.785   1.843   8.093 -0.1304 -0.3858 -1.5814
   30CHL1  H23B 2207   4.861   1.687   8.050 -1.4559  0.6643 -0.9025
   30CHL1   C24 2208   5.003   1.824   8.156  0.1167  0.2578 -0.1120
   30CHL1  H24A 2209   5.095   1.785   8.108 -0.8434 -2.3948  0.0220
   30CHL1  H24B 2210   5.010   1.934   8.166 -0.5595  0.2621  0.4197
   30CHL1   C25 2211   4.980   1.770   8.301 -0.1374  0.3909 -0.2529
   30CHL1   H25 2212   4.973   1.659   8.299  0.9749  0.3031  0.1274
   30CHL1   C26 2213   5.112   1.807   8.383 -0.0547  0.3379  0.5386
   30CHL1  H26A 2214   5.137   1.914   8.372 -0.9948  0.4179 -1.1483
   30CHL1  H26B 2215   5.100   1.777   8.489 -0.2204 -1.4247  0.0519
   30CHL1  H26C 2216   5.196   1.758   8.329 -0.6478  1.4904 -1.5053
   30CHL1   C27 2217   4.862   1.838   8.379 -0.2744  0.5643 -0.4048
   30CHL1  H27A 2218   4.836   1.770   8.463 -0.4812  1.9325  0.6760
   30CHL1  H27B 2219   4.885   1.937   8.422 -1.1025  1.1143 -1.1816
   30CHL1  H27C 2220   4.769   1.844   8.319 -1.1443  2.9761  1.0579
   31CHL1    C3 2221   3.809   5.201   6.514 -0.4778 -0.0687 -0.2789
   31CHL1    H3 2222   3.745   5.289   6.533 -0.2496 -0.1046  0.7355
   31CHL1    O3 2223   3.811   5.197   6.379 -0.0866  0.1559  0.2526
   31CHL1   H3' 2224   3.833   5.286   6.351  1.5378 -0.4804 -0.5723
   31CHL1    C4 2225   3.947   5.242   6.572  0.2602  0.0994 -0.2548
   31CHL1   H4A 2226   4.020   5.160   6.555 -0.4708 -0.6715  0.2390
   31CHL1   H4B 2227   3.988   5.328   6.515 -0.8852  1.4378  0.8446
   31CHL1    C5 2228   3.937   5.259   6.717 -0.3621 -0.0649 -0.3811
   31CHL1    C6 2229   3.968   5.370   6.777 -0.4062 -0.3129 -0.4145
   31CHL1    H6 2230   3.999   5.452   6.711 -1.1750 -1.2286 -2.0002
   31CHL1    C7 2231   3.960   5.399   6.927  0.1306  0.4033  0.0709
   31CHL1   H7A 2232   4.056   5.452   6.947  0.1803  0.0182  0.9221
   31CHL1   H7B 2233   3.879   5.462   6.970  0.0058 -0.7362  1.6247
   31CHL1    C8 2234   3.951   5.265   7.009  0.9296 -0.3158 -0.1744
   31CHL1    H8 2235   4.053   5.220   7.009  0.7549 -0.7140  0.2015
   31CHL1   C14 2236   3.920   5.299   7.154  0.1833 -0.1536  0.4650
   31CHL1   H14 2237   3.822   5.352   7.157 -0.9305 -2.0425 -0.4409
   31CHL1   C15 2238   4.020   5.386   7.234  0.3254  0.1782 -0.2709
   31CHL1  H15A 2239   4.120   5.350   7.200  0.0655 -0.4607 -0.3606
   31CHL1  H15B 2240   4.017   5.495   7.212  1.2289 -0.2046 -2.6110
   31CHL1   C16 2241   3.984   5.353   7.381 -0.7740 -0.5816 -0.0068
   31CHL1  H16A 2242   4.076   5.316   7.432 -0.8297  1.6892  1.8732
   31CHL1  H16B 2243   3.943   5.445   7.428  0.5016  0.7329 -1.3370
   31CHL1   C17 2244   3.880   5.244   7.374 -0.5734  0.3864 -0.0822
   31CHL1   H17 2245   3.777   5.286   7.374 -0.6906  0.1211  0.9385
   31CHL1   C13 2246   3.897   5.175   7.239 -0.2064  0.5147  0.1886
   31CHL1   C18 2247   4.020   5.081   7.243  0.2198  0.2238  0.3541
   31CHL1  H18A 2248   4.040   5.031   7.145 -0.8570  0.7306 -0.1478
   31CHL1  H18B 2249   4.114   5.118   7.288  0.4226  0.8906 -0.5817
   31CHL1  H18C 2250   3.987   4.994   7.303 -0.0073 -1.2042 -1.7281
   31CHL1   C12 2251   3.777   5.098   7.182 -0.3400  0.0957 -1.4739
   31CHL1  H12A 2252   3.785   5.004   7.241 -2.2695  1.4725  1.1677
   31CHL1  H12B 2253   3.684   5.156   7.201  0.4105  0.2717  2.5004
   31CHL1   C11 2254   3.797   5.059   7.036 -0.1847 -0.5022  0.0144
   31CHL1  H11A 2255   3.876   4.981   7.047  3.1551  2.6401  0.3882
   31CHL1  H11B 2256   3.710   5.011   6.987  0.9188 -2.4773 -0.1398
   31CHL1    C9 2257   3.843   5.174   6.940  0.0320 -0.0505 -0.1575
   31CHL1    H9 2258   3.754   5.238   6.926 -0.3554 -1.0818 -3.4931
   31CHL1   C10 2259   3.883   5.129   6.794  1.2339 -0.4558  0.5277
   31CHL1   C19 2260   3.983   5.019   6.793  0.2618 -0.4700  0.6179
   31CHL1  H19A 2261   4.071   5.055   6.850 -0.9765  2.8741  0.6597
   31CHL1  H19B 2262   3.937   4.927   6.836 -1.9871  1.4359  2.6011
   31CHL1  H19C 2263   3.995   4.987   6.687 -3.1197  0.1674 -0.0829
   31CHL1    C1 2264   3.745   5.083   6.722  0.2057 -0.0947 -0.1635
   31CHL1   H1A 2265   3.710   4.989   6.768 -0.8198  0.3155 -0.0695
   31CHL1   H1B 2266   3.675   5.165   6.747  1.1800  1.6842 -2.8263
   31CHL1    C2 2267   3.754   5.071   6.571 -0.3130  0.2122  0.7641
   31CHL1   H2A 2268   3.650   5.065   6.532  0.1146  0.2608 -0.4251
   31CHL1   H2B 2269   3.808   4.982   6.531 -1.3740  0.3138 -1.0252
   31CHL1   C20 2270   3.874   5.159   7.504 -0.2159 -0.8405  0.1455
   31CHL1   H20 2271   3.967   5.101   7.519 -0.1440 -0.3571  1.8341
   31CHL1   C21 2272   3.757   5.060   7.501  0.1293 -0.3013 -0.5669
   31CHL1  H21A 2273   3.708   5.032   7.597 -0.0166  0.8067 -0.3050
   31CHL1  H21B 2274   3.789   4.964   7.454  2.5602  1.3816 -2.6161
   31CHL1  H21C 2275   3.684   5.108   7.432  1.0598  1.5259 -0.3138
   31CHL1   C22 2276   3.858   5.248   7.631 -0.0267 -0.3811  0.2781
   31CHL1  H22A 2277   3.920   5.339   7.623 -1.7913  0.7470 -1.3257
   31CHL1  H22B 2278   3.758   5.296   7.634 -0.0122 -0.2992  3.5751
   31CHL1   C23 2279   3.886   5.184   7.772 -0.5468  0.5040  0.3132
   31CHL1  H23A 2280   3.813   5.102   7.787  0.9177 -1.0463 -0.6728
   31CHL1  H23B 2281   3.989   5.147   7.789 -0.8958 -0.8746 -0.4791
   31CHL1   C24 2282   3.872   5.294   7.887  0.1783 -0.4992 -0.1549
   31CHL1  H24A 2283   3.942   5.376   7.861 -0.7164  0.5768  0.7312
   31CHL1  H24B 2284   3.770   5.336   7.899  0.5553  0.2319  0.5750
   31CHL1   C25 2285   3.925   5.245   8.020  0.3454 -0.4093 -0.1863
   31CHL1   H25 2286   4.036   5.235   8.011  0.4575 -0.2128  0.8387
   31CHL1   C26 2287   3.893   5.340   8.137  0.3706  0.0765  0.1675
   31CHL1  H26A 2288   3.786   5.363   8.153  0.2560 -0.1295 -0.3015
   31CHL1  H26B 2289   3.940   5.295   8.227  2.6863  0.0209 -0.9772
   31CHL1  H26C 2290   3.955   5.431   8.116  1.5238 -0.7699 -0.2119
   31CHL1   C27 2291   3.872   5.110   8.056  0.0970  0.4921  0.6782
   31CHL1  H27A 2292   3.929   5.045   7.987 -1.2608  0.3620 -0.3541
   31CHL1  H27B 2293   3.769   5.102   8.016  0.5376  0.7851 -0.5480
   31CHL1  H27C 2294   3.887   5.091   8.165  1.0645  0.1073  0.4830
   32CHL1    C3 2295   5.295   6.777   6.912 -0.0071 -0.6375 -0.2224
   32CHL1    H3 2296   5.203   6.715   6.909 -0.1051 -0.5464  0.6518
   32CHL1    O3 2297   5.305   6.863   6.795 -0.3602  0.0297 -0.5096
   32CHL1   H3' 2298   5.394   6.863   6.759  0.2500  0.3062  0.9338
   32CHL1    C4 2299   5.288   6.861   7.038 -0.0219 -0.1044 -0.3660
   32CHL1   H4A 2300   5.382   6.920   7.046  0.8108 -1.4783  0.3314
   32CHL1   H4B 2301   5.194   6.921   7.035 -0.6410 -1.0720 -1.6572
   32CHL1    C5 2302   5.290   6.776   7.162 -0.3449 -0.0844 -0.4085
   32CHL1    C6 2303   5.187   6.781   7.252  0.0340  0.5230 -0.8457
   32CHL1    H6 2304   5.105   6.852   7.232 -0.1021  0.9069  0.8801
   32CHL1    C7 2305   5.177   6.705   7.386 -0.0748  0.0440 -0.2283
   32CHL1   H7A 2306   5.144   6.776   7.465 -2.6107  0.4215 -1.5527
   32CHL1   H7B 2307   5.094   6.631   7.385  0.9447 -1.1449  0.0236
   32CHL1    C8 2308   5.305   6.644   7.423 -1.2570 -0.0185 -0.5368
   32CHL1    H8 2309   5.373   6.723   7.461 -0.0746 -1.3525  0.2254
   32CHL1   C14 2310   5.282   6.539   7.539  0.0469 -0.4200  0.3738
   32CHL1   H14 2311   5.230   6.452   7.491 -1.3066  0.8104 -0.4707
   32CHL1   C15 2312   5.189   6.580   7.650 -0.1985  0.2662  0.9041
   32CHL1  H15A 2313   5.195   6.688   7.672  2.8215  0.1985  0.8006
   32CHL1  H15B 2314   5.086   6.547   7.623 -0.4324  0.3960  1.5979
   32CHL1   C16 2315   5.240   6.491   7.760 -0.0795 -0.1112 -0.4936
   32CHL1  H16A 2316   5.285   6.565   7.830  0.6620 -1.5213  0.5789
   32CHL1  H16B 2317   5.158   6.428   7.799  1.7012 -1.7407  0.8437
   32CHL1   C17 2318   5.359   6.396   7.713 -0.5053  0.3349  0.2581
   32CHL1   H17 2319   5.305   6.314   7.659  0.5024 -0.4064  0.3529
   32CHL1   C13 2320   5.418   6.472   7.590  0.5182 -0.0296  1.1567
   32CHL1   C18 2321   5.510   6.588   7.641 -0.0383  0.3591 -0.7440
   32CHL1  H18A 2322   5.453   6.647   7.716 -2.5017 -1.8548 -0.7489
   32CHL1  H18B 2323   5.596   6.544   7.696 -1.8164 -2.0374  0.2851
   32CHL1  H18C 2324   5.544   6.657   7.561  0.6758  0.1198 -0.6561
   32CHL1   C12 2325   5.474   6.395   7.465  0.4800  0.5718 -0.2762
   32CHL1  H12A 2326   5.575   6.360   7.493 -0.0428  0.0131  0.9954
   32CHL1  H12B 2327   5.407   6.311   7.435  0.9552  0.2051 -0.3276
   32CHL1   C11 2328   5.499   6.486   7.339  0.6752 -0.1222 -0.1366
   32CHL1  H11A 2329   5.598   6.534   7.356 -0.2724  1.7014  0.5028
   32CHL1  H11B 2330   5.513   6.421   7.250 -1.9473 -0.4429 -0.4007
   32CHL1    C9 2331   5.379   6.578   7.303 -0.0516 -0.2765  0.0651
   32CHL1    H9 2332   5.300   6.508   7.267 -0.0719  0.4758 -1.4137
   32CHL1   C10 2333   5.404   6.676   7.187  0.6449 -0.1245 -0.0259
   32CHL1   C19 2334   5.536   6.754   7.224  0.7665 -0.6565  0.2958
   32CHL1  H19A 2335   5.536   6.779   7.333 -0.1617 -1.0281  0.3890
   32CHL1  H19B 2336   5.615   6.677   7.217  0.2170 -1.2278  0.3048
   32CHL1  H19C 2337   5.560   6.842   7.160 -0.8886 -0.4570 -0.0900
   32CHL1    C1 2338   5.410   6.598   7.055  1.1599 -0.4219 -0.1913
   32CHL1   H1A 2339   5.499   6.532   7.064  3.0305  1.8298 -1.1795
   32CHL1   H1B 2340   5.324   6.529   7.038  2.0654 -1.5735 -0.2588
   32CHL1    C2 2341   5.418   6.689   6.927 -0.1174 -0.4275  0.2602
   32CHL1   H2A 2342   5.433   6.617   6.844 -0.3240 -2.5860  1.9836
   32CHL1   H2B 2343   5.512   6.748   6.932 -0.7508  1.0963 -3.0860
   32CHL1   C20 2344   5.452   6.341   7.829  0.0201 -0.2891 -0.5630
   32CHL1   H20 2345   5.507   6.430   7.867  0.9474 -0.7791 -0.7307
   32CHL1   C21 2346   5.567   6.255   7.761 -0.1777 -0.3851 -0.2791
   32CHL1  H21A 2347   5.627   6.209   7.842  0.0754 -0.1431 -0.3288
   32CHL1  H21B 2348   5.632   6.321   7.699  1.9686 -0.7325  1.4768
   32CHL1  H21C 2349   5.525   6.176   7.696  1.1205  1.4916 -3.6814
   32CHL1   C22 2350   5.377   6.261   7.947 -0.9962 -0.1282 -0.4695
   32CHL1  H22A 2351   5.287   6.320   7.974  0.6175  2.1425  0.3048
   32CHL1  H22B 2352   5.342   6.167   7.900 -1.2195  1.1337 -3.0156
   32CHL1   C23 2353   5.456   6.236   8.080 -0.3718 -1.0261 -0.4891
   32CHL1  H23A 2354   5.564   6.218   8.061 -0.1995 -1.0493  0.4679
   32CHL1  H23B 2355   5.441   6.328   8.140 -0.9305 -0.1591 -1.9148
   32CHL1   C24 2356   5.406   6.114   8.159  0.2317  0.4465 -0.3262
   32CHL1  H24A 2357   5.404   6.030   8.086 -0.5062  2.4783 -2.7733
   32CHL1  H24B 2358   5.493   6.105   8.228  0.3279 -2.0918 -0.6531
   32CHL1   C25 2359   5.277   6.133   8.244  0.0450 -1.2148 -0.0763
   32CHL1   H25 2360   5.288   6.225   8.305  2.4804 -0.8713 -0.9209
   32CHL1   C26 2361   5.153   6.147   8.153  0.7725  0.2084  0.3863
   32CHL1  H26A 2362   5.148   6.056   8.088 -1.3187  0.5004  0.0597
   32CHL1  H26B 2363   5.057   6.148   8.209 -1.4004  1.6862 -3.0047
   32CHL1  H26C 2364   5.140   6.238   8.091  2.0191 -0.9006 -1.6154
   32CHL1   C27 2365   5.245   6.011   8.340 -0.3639  0.0967 -0.1496
   32CHL1  H27A 2366   5.142   6.014   8.381  0.8449  0.4575  3.1761
   32CHL1  H27B 2367   5.250   5.921   8.275 -0.2207  0.1034 -0.1499
   32CHL1  H27C 2368   5.319   6.005   8.423 -0.5453  0.0265  0.0070
   33CHL1    C3 2369   4.125   3.955   6.822  0.4561  0.0670 -0.1475
   33CHL1    H3 2370   4.052   3.882   6.864  1.6789 -1.7201 -0.9849
   33CHL1    O3 2371   4.145   3.936   6.687 -0.3574  0.2285 -0.6514
   33CHL1   H3' 2372   4.217   3.995   6.661  0.5036 -1.2084 -1.6942
   33CHL1    C4 2373   4.080   4.096   6.855 -0.2355 -0.2339  0.1792
   33CHL1   H4A 2374   4.161   4.158   6.811 -0.2921 -1.3736 -1.6777
   33CHL1   H4B 2375   3.987   4.130   6.804  0.1199 -1.0565 -1.0988
   33CHL1    C5 2376   4.068   4.132   6.999 -0.8006  0.0418  0.1261
   33CHL1    C6 2377   3.953   4.170   7.059 -0.0954  0.0462 -0.4503
   33CHL1    H6 2378   3.863   4.165   6.997  0.1154  0.7186 -0.8151
   33CHL1    C7 2379   3.922   4.205   7.200  0.3039 -0.1783 -0.1958
   33CHL1   H7A 2380   3.867   4.302   7.201 -0.0710 -0.3414 -1.7398
   33CHL1   H7B 2381   3.863   4.124   7.247 -0.0289  1.4787  2.4782
   33CHL1    C8 2382   4.062   4.199   7.286  1.3180  0.1037 -0.1214
   33CHL1    H8 2383   4.120   4.290   7.260 -0.5725  1.6940  0.9555
   33CHL1   C14 2384   4.021   4.183   7.433 -0.0852  0.5752 -0.0575
   33CHL1   H14 2385   3.951   4.098   7.448  0.4406  0.3378  1.2083
   33CHL1   C15 2386   3.930   4.283   7.495 -0.2912  0.4988 -0.0004
   33CHL1  H15A 2387   3.965   4.382   7.459  1.0521 -0.0380 -0.2575
   33CHL1  H15B 2388   3.821   4.272   7.479  0.1803  0.0897 -3.9573
   33CHL1   C16 2389   3.965   4.277   7.648 -0.9402 -0.2057  0.0478
   33CHL1  H16A 2390   4.001   4.372   7.693 -1.9594  0.6582 -0.9023
   33CHL1  H16B 2391   3.871   4.255   7.704 -0.2666 -1.1188  0.8415
   33CHL1   C17 2392   4.070   4.165   7.658  0.4139 -0.4456  0.0498
   33CHL1   H17 2393   4.017   4.068   7.669 -1.2417  0.3625 -0.4878
   33CHL1   C13 2394   4.147   4.171   7.525  0.4909  0.1812 -0.9559
   33CHL1   C18 2395   4.244   4.293   7.524  0.2623  0.4474 -0.6398
   33CHL1  H18A 2396   4.197   4.383   7.570 -2.0404 -2.6087  3.6976
   33CHL1  H18B 2397   4.332   4.271   7.588 -0.0107  2.3695  0.4725
   33CHL1  H18C 2398   4.284   4.311   7.422 -0.3660 -2.0428 -1.3793
   33CHL1   C12 2399   4.224   4.036   7.488 -0.1052 -1.1563 -0.3296
   33CHL1  H12A 2400   4.320   4.037   7.544 -0.3048  0.6193  0.0615
   33CHL1  H12B 2401   4.150   3.960   7.521 -2.3985  1.0932  0.0444
   33CHL1   C11 2402   4.257   4.023   7.338 -0.0509  0.4568 -0.4542
   33CHL1  H11A 2403   4.342   4.093   7.327  1.0989 -0.4445  1.9140
   33CHL1  H11B 2404   4.286   3.916   7.328 -1.9851 -0.1824  0.3085
   33CHL1    C9 2405   4.147   4.077   7.242  0.1896 -0.1822  1.4576
   33CHL1    H9 2406   4.071   3.996   7.232  0.2051 -0.1693  1.2276
   33CHL1   C10 2407   4.188   4.088   7.093  0.1466 -1.0576 -0.0581
   33CHL1   C19 2408   4.300   4.190   7.074  0.0195  0.3390 -0.0358
   33CHL1  H19A 2409   4.379   4.167   7.149 -1.3064 -2.0656  0.7591
   33CHL1  H19B 2410   4.350   4.179   6.975  1.5111  0.9144  0.6228
   33CHL1  H19C 2411   4.257   4.292   7.080  1.8698  1.2410 -1.2585
   33CHL1    C1 2412   4.243   3.948   7.049  0.2362 -0.3695  0.3856
   33CHL1   H1A 2413   4.346   3.945   7.090  0.1536  0.0086  0.6263
   33CHL1   H1B 2414   4.179   3.868   7.092  0.1291 -0.8125 -0.5635
   33CHL1    C2 2415   4.254   3.932   6.891 -0.7424 -0.2531 -0.1307
   33CHL1   H2A 2416   4.298   3.832   6.871  1.8699  0.6081  0.7376
   33CHL1   H2B 2417   4.332   4.000   6.850  0.2038 -0.6343  0.9530
   33CHL1   C20 2418   4.150   4.188   7.792 -0.0696 -0.3390  0.3803
   33CHL1   H20 2419   4.191   4.291   7.783  1.4072 -1.0430 -1.7639
   33CHL1   C21 2420   4.271   4.097   7.812 -0.4029  0.3775 -0.7290
   33CHL1  H21A 2421   4.239   3.992   7.794 -0.9809  0.6661 -1.4720
   33CHL1  H21B 2422   4.310   4.110   7.915 -1.0303 -0.7423 -0.3389
   33CHL1  H21C 2423   4.356   4.125   7.746  1.1369 -0.1026  0.9808
   33CHL1   C22 2424   4.060   4.193   7.920 -0.4923  0.1619  0.1815
   33CHL1  H22A 2425   3.956   4.225   7.901 -0.7932 -0.3047  0.9657
   33CHL1  H22B 2426   4.053   4.089   7.960  0.6497  0.3258  0.8623
   33CHL1   C23 2427   4.114   4.277   8.033  0.0413  0.1361 -0.1326
   33CHL1  H23A 2428   4.200   4.225   8.080 -0.1408 -0.1550 -0.1160
   33CHL1  H23B 2429   4.141   4.377   7.992  1.8038 -0.6986 -1.1630
   33CHL1   C24 2430   4.015   4.297   8.148  0.3474  0.3121 -0.1712
   33CHL1  H24A 2431   3.917   4.342   8.122 -1.7472 -2.2375  2.5886
   33CHL1  H24B 2432   3.988   4.197   8.188 -3.0780  1.3616  0.4650
   33CHL1   C25 2433   4.073   4.366   8.275 -0.1809 -0.7493  0.1329
   33CHL1   H25 2434   4.091   4.466   8.230 -2.0816 -0.7144 -0.6457
   33CHL1   C26 2435   3.982   4.375   8.394 -0.0682 -0.0557  0.4130
   33CHL1  H26A 2436   3.944   4.276   8.428 -1.9197  0.2621 -0.5961
   33CHL1  H26B 2437   4.034   4.419   8.482  0.9459  0.2838 -0.3279
   33CHL1  H26C 2438   3.890   4.435   8.381  0.1048 -0.0090 -0.6887
   33CHL1   C27 2439   4.209   4.310   8.325 -0.7687  0.4337  0.1646
   33CHL1  H27A 2440   4.272   4.304   8.234 -1.3826 -2.4671 -0.1495
   33CHL1  H27B 2441   4.253   4.376   8.403 -1.2772  1.0840 -0.0932
   33CHL1  H27C 2442   4.197   4.207   8.366  0.2173 -0.6413 -2.0983
   34CHL1    C3 2443   6.079   6.570   7.156 -0.3899  0.2003  0.8767
   34CHL1    H3 2444   6.126   6.663   7.198 -0.4256  0.9327 -0.6562
   34CHL1    O3 2445   6.074   6.574   7.014 -0.1171 -0.0034 -0.1394
   34CHL1   H3' 2446   6.009   6.506   6.993 -2.9561  1.6693  2.3892
   34CHL1    C4 2447   6.142   6.439   7.197  0.5213 -0.2117 -0.3923
   34CHL1   H4A 2448   6.086   6.351   7.161  2.0160 -2.1052  1.6202
   34CHL1   H4B 2449   6.241   6.431   7.146  1.2017 -0.4605  0.9210
   34CHL1    C5 2450   6.145   6.433   7.350  0.2980  0.5287  0.5583
   34CHL1    C6 2451   6.260   6.411   7.410 -0.3992  0.4755  0.4575
   34CHL1    H6 2452   6.349   6.381   7.352 -1.3678 -2.5666  0.3759
   34CHL1    C7 2453   6.279   6.382   7.557 -0.0894 -0.1040  0.1716
   34CHL1   H7A 2454   6.326   6.282   7.569 -0.0971  0.1292  2.8080
   34CHL1   H7B 2455   6.341   6.465   7.598  3.3790 -0.9013 -2.8758
   34CHL1    C8 2456   6.139   6.380   7.627 -0.0104 -0.0525 -0.0960
   34CHL1    H8 2457   6.097   6.277   7.621 -1.3625  0.4550  0.2500
   34CHL1   C14 2458   6.157   6.412   7.777  0.1276  0.4597 -0.4810
   34CHL1   H14 2459   6.200   6.513   7.761 -0.2033  0.3870 -1.9609
   34CHL1   C15 2460   6.256   6.321   7.857 -0.2396 -0.1887  0.6845
   34CHL1  H15A 2461   6.258   6.218   7.815 -0.5881  0.2685 -0.4685
   34CHL1  H15B 2462   6.359   6.361   7.850  0.3810 -1.7292  0.4645
   34CHL1   C16 2463   6.214   6.321   7.996 -0.0505 -0.4691 -0.3645
   34CHL1  H16A 2464   6.177   6.230   8.046 -2.1688  0.6151  0.1561
   34CHL1  H16B 2465   6.304   6.357   8.051 -0.1270  0.6608 -0.9445
   34CHL1   C17 2466   6.095   6.423   8.005  0.5359 -0.2451  0.0527
   34CHL1   H17 2467   6.131   6.528   8.018 -0.9397  0.3097 -0.1426
   34CHL1   C13 2468   6.031   6.411   7.868  0.2434  0.4458  0.5428
   34CHL1   C18 2469   5.948   6.280   7.857  0.2870 -0.7829  0.2951
   34CHL1  H18A 2470   5.909   6.255   7.756 -0.4241  3.2110 -0.6010
   34CHL1  H18B 2471   6.017   6.202   7.896  1.1869 -1.0729 -1.7467
   34CHL1  H18C 2472   5.865   6.287   7.931  0.4293  1.3519  0.3304
   34CHL1   C12 2473   5.957   6.528   7.810  1.1770 -0.4801 -0.4437
   34CHL1  H12A 2474   5.861   6.551   7.862  1.3271  0.5972 -0.6154
   34CHL1  H12B 2475   6.018   6.621   7.815  0.8917 -0.3330  0.5331
   34CHL1   C11 2476   5.916   6.504   7.661  0.1659 -0.9423 -0.7298
   34CHL1  H11A 2477   5.838   6.425   7.655 -1.2677  0.4491 -0.9754
   34CHL1  H11B 2478   5.858   6.592   7.627  0.8559  0.4160  1.4384
   34CHL1    C9 2479   6.040   6.484   7.567 -0.4552 -0.2240  0.4918
   34CHL1    H9 2480   6.092   6.582   7.578 -1.5244  0.4342 -0.0588
   34CHL1   C10 2481   6.009   6.466   7.419 -0.3089  0.6715 -0.3497
   34CHL1   C19 2482   5.916   6.342   7.392  0.2355  0.0825  0.3432
   34CHL1  H19A 2483   5.887   6.345   7.285  1.9206  2.1882 -0.1445
   34CHL1  H19B 2484   5.969   6.247   7.415 -2.5174 -1.3953  0.9553
   34CHL1  H19C 2485   5.824   6.346   7.453  1.1593 -1.5231  1.9150
   34CHL1    C1 2486   5.925   6.582   7.357 -0.0715  0.2059 -0.1445
   34CHL1   H1A 2487   5.826   6.580   7.408  0.2186 -1.0137  0.4009
   34CHL1   H1B 2488   5.971   6.676   7.396  2.3078 -1.2718  0.8341
   34CHL1    C2 2489   5.929   6.584   7.207  0.4687 -0.8520 -0.0408
   34CHL1   H2A 2490   5.898   6.685   7.173  1.4636 -0.2838  0.6817
   34CHL1   H2B 2491   5.863   6.508   7.160 -1.0750 -0.2839  1.1233
   34CHL1   C20 2492   6.006   6.409   8.127  0.4959  0.1066 -0.3447
   34CHL1   H20 2493   5.973   6.304   8.132 -2.4818  0.9272 -1.0581
   34CHL1   C21 2494   5.880   6.492   8.116 -0.4333 -0.4104 -0.2024
   34CHL1  H21A 2495   5.829   6.490   8.215  1.5124 -0.5274  0.8595
   34CHL1  H21B 2496   5.821   6.448   8.033 -0.0291  0.8372 -1.1905
   34CHL1  H21C 2497   5.896   6.596   8.080 -3.2737 -0.6412 -2.4329
   34CHL1   C22 2498   6.084   6.451   8.249 -0.1251  0.5466 -0.9220
   34CHL1  H22A 2499   6.178   6.393   8.251 -0.3375  0.2084 -0.6242
   34CHL1  H22B 2500   6.106   6.559   8.233  1.4516  0.8085  2.2208
   34CHL1   C23 2501   6.020   6.442   8.390  0.2338 -0.1934 -0.2752
   34CHL1  H23A 2502   5.913   6.471   8.396  0.6700  1.2180  1.2226
   34CHL1  H23B 2503   6.043   6.341   8.431  1.6788 -0.1248 -0.8599
   34CHL1   C24 2504   6.085   6.542   8.486 -0.3161 -0.3065  0.3942
   34CHL1  H24A 2505   6.191   6.513   8.497 -0.6276 -1.2129  1.0778
   34CHL1  H24B 2506   6.098   6.644   8.443 -0.2169 -0.8120 -0.8037
   34CHL1   C25 2507   6.033   6.551   8.631  0.2527 -0.5584  0.3290
   34CHL1   H25 2508   6.091   6.633   8.678  0.1061 -0.0125 -0.4263
   34CHL1   C26 2509   5.885   6.601   8.637  0.3212 -0.0305 -0.8976
   34CHL1  H26A 2510   5.858   6.599   8.744  2.4000  0.6207 -0.3116
   34CHL1  H26B 2511   5.879   6.705   8.597 -0.1444 -0.1035 -1.0130
   34CHL1  H26C 2512   5.822   6.527   8.582  1.5046 -1.0821 -0.8920
   34CHL1   C27 2513   6.051   6.424   8.713 -0.1221  0.0303  0.2154
   34CHL1  H27A 2514   5.977   6.342   8.696  0.2025 -0.3176  0.4625
   34CHL1  H27B 2515   6.146   6.377   8.680 -0.3143  0.6622 -1.2887
   34CHL1  H27C 2516   6.064   6.438   8.823  2.2223  0.7638 -0.0982
   35CHL1    C3 2517   1.305   1.441   7.141  1.0652 -0.2592  0.4045
   35CHL1    H3 2518   1.280   1.549   7.151 -2.0879 -0.9423  1.1172
   35CHL1    O3 2519   1.336   1.413   7.002 -0.0803  0.0382  0.6057
   35CHL1   H3' 2520   1.290   1.335   6.971  1.9456 -0.9395 -0.1050
   35CHL1    C4 2521   1.424   1.393   7.225 -0.3719 -0.3903 -0.0338
   35CHL1   H4A 2522   1.439   1.285   7.202 -0.7256 -0.9597  2.1314
   35CHL1   H4B 2523   1.516   1.448   7.196 -0.2678 -0.9595 -0.8213
   35CHL1    C5 2524   1.393   1.390   7.371 -0.3931 -0.2054 -0.3646
   35CHL1    C6 2525   1.469   1.464   7.447  0.4000  0.1021  0.0516
   35CHL1    H6 2526   1.557   1.517   7.406 -0.3160  2.3634  1.2431
   35CHL1    C7 2527   1.451   1.493   7.593  0.0655  0.1628  0.1710
   35CHL1   H7A 2528   1.540   1.502   7.659  1.2532  1.0364 -1.4733
   35CHL1   H7B 2529   1.410   1.596   7.599  0.0321  0.1300  0.5307
   35CHL1    C8 2530   1.339   1.405   7.657 -0.3266  0.5360  0.6394
   35CHL1    H8 2531   1.389   1.306   7.666 -0.0539  0.6417  0.3331
   35CHL1   C14 2532   1.296   1.454   7.794  0.3506  0.0674 -0.1284
   35CHL1   H14 2533   1.237   1.545   7.771 -0.3946 -0.5661 -0.7610
   35CHL1   C15 2534   1.404   1.498   7.898 -0.1787  0.7247 -0.1979
   35CHL1  H15A 2535   1.489   1.426   7.902  0.3341  1.2648 -1.0170
   35CHL1  H15B 2536   1.454   1.595   7.877  0.2793  0.5637  0.1275
   35CHL1   C16 2537   1.322   1.503   8.030 -0.0686  0.4157 -0.1795
   35CHL1  H16A 2538   1.378   1.443   8.105  1.8603  1.3107 -0.8427
   35CHL1  H16B 2539   1.310   1.608   8.065  0.3733  1.1342 -2.1023
   35CHL1   C17 2540   1.176   1.443   7.998 -0.2149  0.4586 -0.0992
   35CHL1   H17 2541   1.118   1.530   7.962  1.4310  0.7516 -2.1869
   35CHL1   C13 2542   1.193   1.366   7.866 -0.2614 -0.6349 -0.7116
   35CHL1   C18 2543   1.254   1.223   7.889 -0.3345  0.1351  0.1302
   35CHL1  H18A 2544   1.272   1.173   7.792  0.1779 -1.0620  0.8222
   35CHL1  H18B 2545   1.356   1.221   7.931 -1.0237 -0.8161  1.8642
   35CHL1  H18C 2546   1.179   1.167   7.949  1.4375 -2.2606  0.2011
   35CHL1   C12 2547   1.067   1.359   7.770  0.1017  0.1313 -0.1978
   35CHL1  H12A 2548   0.982   1.300   7.811  0.2460  2.6065  4.3855
   35CHL1  H12B 2549   1.025   1.462   7.766  0.6288  0.3112 -1.6493
   35CHL1   C11 2550   1.108   1.305   7.631 -0.2977 -0.6830  1.2364
   35CHL1  H11A 2551   1.141   1.200   7.635 -0.5375 -0.8379 -0.1738
   35CHL1  H11B 2552   1.020   1.305   7.563 -0.1456 -0.9087  1.0396
   35CHL1    C9 2553   1.219   1.391   7.562 -0.1598  0.8565 -0.1145
   35CHL1    H9 2554   1.184   1.496   7.551  1.5623  1.2616 -2.4392
   35CHL1   C10 2555   1.260   1.339   7.419 -0.3279  0.2514  0.2015
   35CHL1   C19 2556   1.262   1.185   7.413 -0.0642  0.2877  0.0051
   35CHL1  H19A 2557   1.324   1.152   7.499  1.7372 -0.2657 -1.4623
   35CHL1  H19B 2558   1.162   1.137   7.423  0.8614 -1.6187  0.5762
   35CHL1  H19C 2559   1.303   1.153   7.315  1.8013 -0.6406  1.0462
   35CHL1    C1 2560   1.141   1.394   7.332  0.5667 -0.3258  0.0924
   35CHL1   H1A 2561   1.050   1.339   7.363  0.2894 -0.1196 -0.3459
   35CHL1   H1B 2562   1.137   1.504   7.350  2.6831 -0.4107  1.4644
   35CHL1    C2 2563   1.171   1.375   7.180 -0.3229  0.6092 -0.7021
   35CHL1   H2A 2564   1.094   1.412   7.108 -1.1073  0.0675 -0.1612
   35CHL1   H2B 2565   1.181   1.267   7.160  1.5733  0.1249  2.2665
   35CHL1   C20 2566   1.100   1.364   8.106 -0.0867  0.1801 -0.0526
   35CHL1   H20 2567   1.031   1.295   8.053 -0.2698  0.2493  0.0927
   35CHL1   C21 2568   1.005   1.460   8.185  0.2074 -0.7990  0.1837
   35CHL1  H21A 2569   1.052   1.523   8.264 -0.7291  0.8629 -0.5111
   35CHL1  H21B 2570   0.914   1.412   8.226 -0.5430  0.0557 -0.4329
   35CHL1  H21C 2571   0.969   1.536   8.111  1.1447  0.0188  0.5330
   35CHL1   C22 2572   1.186   1.289   8.210 -0.7851  0.1281  0.2402
   35CHL1  H22A 2573   1.276   1.244   8.162 -0.4161  1.7193 -0.6376
   35CHL1  H22B 2574   1.214   1.366   8.285 -0.4894 -0.0417  0.3086
   35CHL1   C23 2575   1.108   1.173   8.271 -0.4761  0.6519  0.3732
   35CHL1  H23A 2576   1.011   1.210   8.309 -1.1601 -0.5057 -0.1725
   35CHL1  H23B 2577   1.094   1.105   8.184 -0.9382  1.1661  0.0382
   35CHL1   C24 2578   1.196   1.101   8.378  0.3361  0.6543  0.3086
   35CHL1  H24A 2579   1.300   1.083   8.345 -0.3380 -1.7571 -0.7039
   35CHL1  H24B 2580   1.194   1.168   8.467 -0.2173 -1.1253  1.6834
   35CHL1   C25 2581   1.142   0.956   8.416  0.1511 -0.7529 -0.5732
   35CHL1   H25 2582   1.199   0.915   8.502 -0.3768  1.0865  0.7240
   35CHL1   C26 2583   0.998   0.954   8.476 -0.1592 -0.8856 -0.6594
   35CHL1  H26A 2584   0.982   1.040   8.545 -0.1662 -1.7304  0.4177
   35CHL1  H26B 2585   0.933   0.954   8.386 -0.8918  0.0010 -0.1460
   35CHL1  H26C 2586   0.982   0.858   8.528  1.8800 -0.9616 -0.0769
   35CHL1   C27 2587   1.149   0.864   8.300 -0.1241 -0.1920 -0.1216
   35CHL1  H27A 2588   1.251   0.867   8.257 -0.9619  1.2653 -2.1160
   35CHL1  H27B 2589   1.075   0.891   8.222 -0.4492  0.6468  0.4662
   35CHL1  H27C 2590   1.128   0.760   8.335 -1.6331  0.3573  0.7120
   36CHL1    C3 2591   4.260   3.074   6.802  0.4004  0.0169 -0.5399
   36CHL1    H3 2592   4.349   3.008   6.807 -0.6483 -1.5877 -1.9165
   36CHL1    O3 2593   4.243   3.098   6.662  0.0432  0.2534 -0.1034
   36CHL1   H3' 2594   4.148   3.112   6.652  0.0542 -0.0784 -0.7058
   36CHL1    C4 2595   4.141   2.993   6.845 -0.4327 -0.3502  0.4100
   36CHL1   H4A 2596   4.051   3.056   6.825  0.8358  0.7378 -2.2539
   36CHL1   H4B 2597   4.141   2.899   6.787 -0.0915  0.5680 -1.1175
   36CHL1    C5 2598   4.157   2.965   6.996  0.0661  0.6317  0.6584
   36CHL1    C6 2599   4.151   2.838   7.043  0.2456  0.4639 -0.2513
   36CHL1    H6 2600   4.125   2.761   6.969 -1.3046  0.5377  0.1763
   36CHL1    C7 2601   4.168   2.799   7.193 -0.1934  0.2912  0.9057
   36CHL1   H7A 2602   4.121   2.701   7.217  0.4933  0.0416  1.2456
   36CHL1   H7B 2603   4.276   2.781   7.209  0.4734  2.2230 -0.9141
   36CHL1    C8 2604   4.120   2.916   7.280 -0.2965 -0.3571  0.6823
   36CHL1    H8 2605   4.010   2.931   7.270 -0.0003  1.2439 -0.5444
   36CHL1   C14 2606   4.157   2.889   7.428 -0.2324 -0.4339  0.2407
   36CHL1   H14 2607   4.267   2.870   7.436 -0.0106  0.6927 -0.0587
   36CHL1   C15 2608   4.092   2.770   7.484  0.6689  1.1974 -0.6707
   36CHL1  H15A 2609   3.988   2.762   7.448  1.0589 -0.2256 -1.5571
   36CHL1  H15B 2610   4.142   2.672   7.469  2.3392  1.9611 -0.3458
   36CHL1   C16 2611   4.100   2.792   7.636 -0.6111  0.1115 -0.0781
   36CHL1  H16A 2612   3.997   2.788   7.678 -1.7437  0.0803 -2.6815
   36CHL1  H16B 2613   4.166   2.726   7.696  0.3626  1.3765  0.2816
   36CHL1   C17 2614   4.165   2.928   7.659 -0.0536 -0.1748 -0.5708
   36CHL1   H17 2615   4.275   2.917   7.658 -0.0901 -0.5704 -0.3791
   36CHL1   C13 2616   4.140   3.006   7.525 -0.2328  0.4130 -0.0525
   36CHL1   C18 2617   3.994   3.047   7.528 -0.6602  0.4723  0.3174
   36CHL1  H18A 2618   3.945   3.061   7.429  0.9020  0.0236 -0.5597
   36CHL1  H18B 2619   3.931   2.970   7.578 -0.7505 -0.0993 -0.6376
   36CHL1  H18C 2620   3.977   3.137   7.590 -2.1354  1.2552 -1.1245
   36CHL1   C12 2621   4.226   3.122   7.488 -0.4702  0.6369 -0.6420
   36CHL1  H12A 2622   4.217   3.217   7.545  1.0262 -0.3067  1.2963
   36CHL1  H12B 2623   4.332   3.091   7.495 -0.1875  1.7284  0.4674
   36CHL1   C11 2624   4.196   3.161   7.342  0.2830 -0.5051  0.8581
   36CHL1  H11A 2625   4.101   3.219   7.345  0.7341  0.4943 -1.6764
   36CHL1  H11B 2626   4.282   3.222   7.306 -0.4100 -0.9080 -1.7130
   36CHL1    C9 2627   4.198   3.048   7.236  1.1349  0.0529 -0.5292
   36CHL1    H9 2628   4.304   3.016   7.245  1.3489  1.1159  0.9871
   36CHL1   C10 2629   4.177   3.091   7.088  0.2827 -0.9612 -0.1270
   36CHL1   C19 2630   4.050   3.181   7.091  0.6947 -0.4883 -1.1881
   36CHL1  H19A 2631   4.063   3.277   7.147 -2.2834 -1.4518  1.4284
   36CHL1  H19B 2632   4.018   3.194   6.986 -1.1428  0.0328 -0.5990
   36CHL1  H19C 2633   3.967   3.131   7.144  0.4740 -0.0453 -1.1105
   36CHL1    C1 2634   4.295   3.170   7.028 -0.0296 -0.5604  0.3295
   36CHL1   H1A 2635   4.316   3.267   7.079  2.2050 -2.1493  2.6688
   36CHL1   H1B 2636   4.382   3.102   7.030  2.2280  2.1027 -0.9392
   36CHL1    C2 2637   4.274   3.206   6.876  0.2189  0.2071 -0.6260
   36CHL1   H2A 2638   4.368   3.259   6.848 -1.0620  2.9990  0.0254
   36CHL1   H2B 2639   4.186   3.273   6.882 -1.1664 -1.5249 -0.6810
   36CHL1   C20 2640   4.131   3.007   7.790 -0.4942 -0.6585  0.7243
   36CHL1   H20 2641   4.138   3.114   7.764 -1.9555 -1.0527 -1.5608
   36CHL1   C21 2642   4.250   2.988   7.895  0.1769 -0.5065  0.3728
   36CHL1  H21A 2643   4.351   2.985   7.848  0.3922 -0.4896  0.8300
   36CHL1  H21B 2644   4.244   2.889   7.943 -0.9575 -1.5397 -1.7295
   36CHL1  H21C 2645   4.246   3.068   7.972 -0.1616  1.0191 -1.1640
   36CHL1   C22 2646   3.997   2.986   7.859  0.8980  0.0250 -0.4029
   36CHL1  H22A 2647   3.916   2.987   7.782 -0.6387 -3.0940  1.0104
   36CHL1  H22B 2648   4.003   2.884   7.901  2.8361  0.4900  0.5744
   36CHL1   C23 2649   3.973   3.107   7.963 -0.5140  0.2840  0.4378
   36CHL1  H23A 2650   3.991   3.072   8.066  0.2377 -0.9129 -0.0828
   36CHL1  H23B 2651   4.061   3.171   7.941 -0.1059 -0.7157 -0.9984
   36CHL1   C24 2652   3.841   3.190   7.950 -0.1048  1.2820 -0.3514
   36CHL1  H24A 2653   3.762   3.116   7.977 -1.1129  2.8221  1.1301
   36CHL1  H24B 2654   3.839   3.256   8.039  0.2201  1.2645 -0.3272
   36CHL1   C25 2655   3.829   3.256   7.816 -0.0187  0.2321 -0.1152
   36CHL1   H25 2656   3.809   3.179   7.739  0.1738  0.0342  0.0314
   36CHL1   C26 2657   3.702   3.341   7.812 -0.1476  0.0753  0.1358
   36CHL1  H26A 2658   3.713   3.430   7.879 -0.7868 -1.8169  2.9448
   36CHL1  H26B 2659   3.681   3.376   7.709 -1.2372 -1.1801 -0.0970
   36CHL1  H26C 2660   3.618   3.279   7.852  0.1285 -0.4144 -0.0369
   36CHL1   C27 2661   3.952   3.345   7.794 -0.7329  0.4712 -0.6777
   36CHL1  H27A 2662   3.990   3.401   7.882 -1.0263  0.5917 -0.6243
   36CHL1  H27B 2663   4.041   3.281   7.778  0.0539  0.2274  3.6114
   36CHL1  H27C 2664   3.946   3.413   7.706  1.4321  0.5169 -0.8386
   37CHL1    C3 2665   5.878   3.682   6.991 -0.0478  0.9899 -0.2121
   37CHL1    H3 2666   5.987   3.690   7.013  0.2697 -2.2279 -0.2339
   37CHL1    O3 2667   5.854   3.654   6.854  0.1556 -0.0319  0.2322
   37CHL1   H3' 2668   5.933   3.687   6.810  1.8369 -1.2146  2.1794
   37CHL1    C4 2669   5.815   3.582   7.085  0.0119  0.3491  0.1422
   37CHL1   H4A 2670   5.708   3.562   7.063  0.0576 -1.0249  1.0734
   37CHL1   H4B 2671   5.850   3.478   7.074  0.9643  0.8155 -1.5709
   37CHL1    C5 2672   5.821   3.628   7.228  0.3405  0.3713 -0.6424
   37CHL1    C6 2673   5.858   3.550   7.331 -0.9481  0.1304 -0.5813
   37CHL1    H6 2674   5.882   3.444   7.314 -0.3732 -0.4095  2.8812
   37CHL1    C7 2675   5.887   3.585   7.473  0.0262  0.1032  0.2979
   37CHL1   H7A 2676   5.842   3.503   7.533 -0.2953 -0.6222 -0.9048
   37CHL1   H7B 2677   5.996   3.589   7.493 -0.1231  0.1623  1.1273
   37CHL1    C8 2678   5.825   3.725   7.504  0.1665  0.0420  0.2895
   37CHL1    H8 2679   5.717   3.706   7.521 -0.8263  4.0736 -0.3809
   37CHL1   C14 2680   5.889   3.784   7.632 -0.0304 -0.2093 -0.0702
   37CHL1   H14 2681   5.992   3.805   7.597 -0.6049  0.3687 -1.4940
   37CHL1   C15 2682   5.897   3.693   7.752  0.1394 -0.1267 -0.9042
   37CHL1  H15A 2683   5.800   3.639   7.760  0.3857 -0.7386 -1.8124
   37CHL1  H15B 2684   5.970   3.610   7.747 -0.1745 -0.4491 -0.2498
   37CHL1   C16 2685   5.917   3.781   7.871 -0.0157 -0.9456  0.0116
   37CHL1  H16A 2686   5.828   3.757   7.934 -0.3866 -1.6653 -0.7671
   37CHL1  H16B 2687   6.008   3.777   7.935  1.0513  2.3819 -1.0957
   37CHL1   C17 2688   5.905   3.929   7.814 -0.5054 -0.2157 -0.2805
   37CHL1   H17 2689   6.007   3.956   7.780 -1.1151  0.2302 -1.8104
   37CHL1   C13 2690   5.838   3.915   7.678 -0.2593 -0.3493  1.2345
   37CHL1   C18 2691   5.683   3.908   7.695 -0.0610 -0.1747 -0.0353
   37CHL1  H18A 2692   5.640   3.994   7.751  0.2893  1.0769 -1.5931
   37CHL1  H18B 2693   5.635   3.905   7.595  1.2396  0.7068 -0.7235
   37CHL1  H18C 2694   5.654   3.816   7.748 -1.7465  1.0103  1.1940
   37CHL1   C12 2695   5.871   4.022   7.571  0.3963 -0.0057  0.5158
   37CHL1  H12A 2696   5.821   4.119   7.595 -0.0975  0.4850 -2.2007
   37CHL1  H12B 2697   5.981   4.032   7.572  0.7330 -2.5108 -1.5312
   37CHL1   C11 2698   5.815   3.968   7.432  0.6329  0.0470  0.2808
   37CHL1  H11A 2699   5.708   3.994   7.425  0.6759  0.3193  0.5919
   37CHL1  H11B 2700   5.849   4.031   7.347 -0.3187  1.0506  0.6356
   37CHL1    C9 2701   5.851   3.826   7.392 -0.8269 -0.2793  0.6583
   37CHL1    H9 2702   5.962   3.821   7.390 -0.7980  0.5788  0.1025
   37CHL1   C10 2703   5.797   3.775   7.254  0.7002 -0.2136  0.4485
   37CHL1   C19 2704   5.641   3.768   7.244 -0.1595 -0.5169  0.2049
   37CHL1  H19A 2705   5.602   3.713   7.333  2.0380 -0.5810  1.1992
   37CHL1  H19B 2706   5.603   3.872   7.251  2.6980  0.5420  2.0739
   37CHL1  H19C 2707   5.598   3.727   7.151 -0.5629 -0.4206  0.3480
   37CHL1    C1 2708   5.841   3.873   7.143  0.3034  0.1031 -0.6388
   37CHL1   H1A 2709   5.803   3.977   7.142 -1.5690 -0.5463 -1.6765
   37CHL1   H1B 2710   5.951   3.888   7.148  1.0752 -4.2990 -0.4138
   37CHL1    C2 2711   5.816   3.821   7.008 -0.2340 -0.7049  0.3382
   37CHL1   H2A 2712   5.871   3.886   6.938  0.8984  0.5260  2.2662
   37CHL1   H2B 2713   5.711   3.813   6.973 -0.3488  2.2321 -0.2169
   37CHL1   C20 2714   5.859   4.031   7.918 -0.7851  0.1752 -0.0799
   37CHL1   H20 2715   5.749   4.016   7.924 -0.7468 -0.5443 -0.9486
   37CHL1   C21 2716   5.879   4.173   7.881  0.1083  0.7021  0.7641
   37CHL1  H21A 2717   5.832   4.199   7.784  0.6503  3.4817  1.1854
   37CHL1  H21B 2718   5.986   4.198   7.865  0.2433 -1.4412 -3.2825
   37CHL1  H21C 2719   5.834   4.249   7.948  1.2925  2.5659 -0.4613
   37CHL1   C22 2720   5.916   4.006   8.055  0.1565 -0.3260 -0.4686
   37CHL1  H22A 2721   5.872   4.077   8.128  3.0446  1.1804 -0.0383
   37CHL1  H22B 2722   5.885   3.905   8.088  0.5837 -0.4287 -0.3819
   37CHL1   C23 2723   6.068   4.022   8.080 -0.7104  0.2988 -0.7060
   37CHL1  H23A 2724   6.125   3.937   8.036  0.6466  0.8539 -0.0944
   37CHL1  H23B 2725   6.092   4.115   8.024 -1.2186  0.2443 -1.0179
   37CHL1   C24 2726   6.108   4.038   8.230  0.6222 -0.1032 -0.2679
   37CHL1  H24A 2727   6.055   4.128   8.269  2.0382  2.2517 -3.3492
   37CHL1  H24B 2728   6.060   3.954   8.285 -0.4268  0.5401 -0.1725
   37CHL1   C25 2729   6.257   4.039   8.256 -0.2659 -0.2382  0.0103
   37CHL1   H25 2730   6.302   3.962   8.191  2.8923  1.2547  0.2530
   37CHL1   C26 2731   6.313   4.183   8.239  0.4464 -0.0608  0.6785
   37CHL1  H26A 2732   6.421   4.194   8.258  1.2047 -0.7165 -2.6007
   37CHL1  H26B 2733   6.302   4.215   8.133  2.1462  0.8540  0.7506
   37CHL1  H26C 2734   6.260   4.258   8.302 -0.2499  0.8712 -0.9586
   37CHL1   C27 2735   6.291   3.987   8.404  0.2476  0.4532  0.3625
   37CHL1  H27A 2736   6.231   3.896   8.424  1.0211  0.0808  1.0809
   37CHL1  H27B 2737   6.399   3.960   8.400  0.3553  0.8608  0.4989
   37CHL1  H27C 2738   6.279   4.066   8.481 -1.6556 -0.3821  0.9615
   38CHL1    C3 2739   3.559   0.794   6.815  0.6771 -0.2636 -0.6611
   38CHL1    H3 2740   3.449   0.810   6.817  0.8854  1.2585  0.2952
   38CHL1    O3 2741   3.605   0.780   6.682  0.4049  0.3794 -0.2859
   38CHL1   H3' 2742   3.555   0.702   6.659 -1.2950  2.0836 -2.8272
   38CHL1    C4 2743   3.616   0.924   6.874 -0.4058  0.9099  0.7465
   38CHL1   H4A 2744   3.720   0.905   6.841 -0.9439 -1.4986  0.1871
   38CHL1   H4B 2745   3.585   1.015   6.820  1.0469  0.5082 -0.8578
   38CHL1    C5 2746   3.592   0.944   7.021 -0.9085  0.5224  0.1355
   38CHL1    C6 2747   3.536   1.051   7.072  0.0849 -0.5171  0.3867
   38CHL1    H6 2748   3.511   1.136   7.005  0.5408 -1.3709 -0.9079
   38CHL1    C7 2749   3.507   1.077   7.221 -0.4680  0.0378  0.0488
   38CHL1   H7A 2750   3.536   1.180   7.249 -1.3566  0.0733  0.8642
   38CHL1   H7B 2751   3.397   1.085   7.236 -0.6285  3.5644 -1.8707
   38CHL1    C8 2752   3.584   0.983   7.314 -0.4188 -0.5393  0.2705
   38CHL1    H8 2753   3.688   1.020   7.309 -1.2872  2.0085 -0.6906
   38CHL1   C14 2754   3.527   0.980   7.461 -0.3168 -1.3274 -0.2803
   38CHL1   H14 2755   3.420   0.950   7.464 -0.8668  0.5142  2.8941
   38CHL1   C15 2756   3.528   1.122   7.530 -0.2337  0.0199  0.2920
   38CHL1  H15A 2757   3.623   1.180   7.529  0.8761 -1.6811  1.5320
   38CHL1  H15B 2758   3.448   1.178   7.477  1.5651  2.1363 -0.3454
   38CHL1   C16 2759   3.495   1.080   7.672  0.4112 -0.3243 -0.7391
   38CHL1  H16A 2760   3.573   1.126   7.736 -0.6709 -0.1629  0.5098
   38CHL1  H16B 2761   3.388   1.100   7.694 -0.1366 -1.3652 -2.2895
   38CHL1   C17 2762   3.518   0.928   7.683 -0.1787 -0.2200 -0.0455
   38CHL1   H17 2763   3.416   0.884   7.680 -1.3110  2.1922 -0.0578
   38CHL1   C13 2764   3.600   0.886   7.556  0.9073  0.1076  0.3844
   38CHL1   C18 2765   3.747   0.929   7.584  0.6607  0.1850  0.7505
   38CHL1  H18A 2766   3.797   0.848   7.642 -0.0126  0.1457  1.2916
   38CHL1  H18B 2767   3.803   0.919   7.489 -0.3384 -1.0771  0.2598
   38CHL1  H18C 2768   3.756   1.032   7.626  0.6514 -0.0531  1.3511
   38CHL1   C12 2769   3.586   0.741   7.503  0.1659  0.0027  0.4904
   38CHL1  H12A 2770   3.641   0.665   7.563  0.9846 -0.1977 -0.4811
   38CHL1  H12B 2771   3.478   0.713   7.496  0.0970 -0.3332  2.3972
   38CHL1   C11 2772   3.639   0.729   7.359 -0.4108  0.8416 -0.7004
   38CHL1  H11A 2773   3.750   0.730   7.354 -0.4444  2.0821 -1.9598
   38CHL1  H11B 2774   3.598   0.630   7.327  0.3238  0.5266 -0.6959
   38CHL1    C9 2775   3.583   0.838   7.260  0.0762  0.7621 -0.0563
   38CHL1    H9 2776   3.475   0.813   7.261  0.4495 -0.9984  1.6486
   38CHL1   C10 2777   3.630   0.820   7.110 -0.5996  0.2066  0.4806
   38CHL1   C19 2778   3.784   0.817   7.120  0.2134 -0.3270  0.0480
   38CHL1  H19A 2779   3.830   0.878   7.201  1.3621 -0.9556 -0.1147
   38CHL1  H19B 2780   3.817   0.713   7.142  0.2013 -0.2324  0.5264
   38CHL1  H19C 2781   3.828   0.833   7.020 -0.9639  0.7595 -0.3330
   38CHL1    C1 2782   3.581   0.691   7.046 -0.2480 -0.2899 -0.3533
   38CHL1   H1A 2783   3.633   0.609   7.100  1.3920  1.5619  0.9864
   38CHL1   H1B 2784   3.470   0.682   7.056 -0.0719 -2.5809  0.1203
   38CHL1    C2 2785   3.607   0.672   6.891  0.2966  0.4890 -0.8372
   38CHL1   H2A 2786   3.566   0.581   6.841 -0.5928  0.7378 -0.5852
   38CHL1   H2B 2787   3.715   0.653   6.874  0.3210 -2.0541  1.4019
   38CHL1   C20 2788   3.578   0.890   7.824  0.0441  0.4066 -0.4152
   38CHL1   H20 2789   3.682   0.926   7.837  0.4193 -0.0989 -1.8832
   38CHL1   C21 2790   3.582   0.741   7.838  0.3672  0.6365  0.1451
   38CHL1  H21A 2791   3.485   0.696   7.810 -0.4097  1.4045  1.4869
   38CHL1  H21B 2792   3.597   0.704   7.942  0.4271 -2.3139 -0.8466
   38CHL1  H21C 2793   3.658   0.689   7.777 -0.9096 -1.0124 -0.0852
   38CHL1   C22 2794   3.491   0.953   7.935  0.0454  0.0042 -0.0613
   38CHL1  H22A 2795   3.477   1.063   7.924  0.0910 -0.1682 -2.2564
   38CHL1  H22B 2796   3.386   0.917   7.942  0.2956 -0.3722  2.8782
   38CHL1   C23 2797   3.548   0.936   8.080  0.2260  0.0832  0.5442
   38CHL1  H23A 2798   3.551   0.828   8.105 -1.8144 -0.1113  0.1434
   38CHL1  H23B 2799   3.649   0.980   8.069  0.7348 -1.3891 -1.2444
   38CHL1   C24 2800   3.461   1.002   8.184  0.6836  0.1985 -0.0270
   38CHL1  H24A 2801   3.451   1.109   8.158 -1.0266 -0.4007 -2.1640
   38CHL1  H24B 2802   3.357   0.965   8.181  0.8594 -0.7263  2.6287
   38CHL1   C25 2803   3.508   0.978   8.333 -0.2949 -0.3902  0.1808
   38CHL1   H25 2804   3.600   1.039   8.348  0.6170 -1.7527  0.2520
   38CHL1   C26 2805   3.398   1.037   8.423 -0.4665 -0.5593  0.9392
   38CHL1  H26A 2806   3.390   1.140   8.384 -1.8773 -0.7858  0.5934
   38CHL1  H26B 2807   3.301   0.984   8.410 -0.7124  0.3338 -1.1673
   38CHL1  H26C 2808   3.438   1.016   8.525  2.5436  0.9882  0.2091
   38CHL1   C27 2809   3.538   0.831   8.376 -0.6688 -0.4660 -0.0369
   38CHL1  H27A 2810   3.591   0.831   8.474 -1.1475  3.0055  0.3404
   38CHL1  H27B 2811   3.448   0.766   8.390  0.7659 -2.2440  1.4544
   38CHL1  H27C 2812   3.598   0.775   8.302 -2.0827 -1.2141 -0.6679
   39CHL1    C3 2813   6.263   4.198   6.773  0.4145  0.1875  0.3428
   39CHL1    H3 2814   6.240   4.306   6.759 -0.9161 -0.3724 -2.5835
   39CHL1    O3 2815   6.254   4.144   6.646 -0.4855 -0.6393 -0.0942
   39CHL1   H3' 2816   6.328   4.182   6.597 -1.1912  0.0374 -0.6611
   39CHL1    C4 2817   6.393   4.182   6.838 -0.0272  0.3207 -0.1088
   39CHL1   H4A 2818   6.412   4.072   6.837 -0.8849  0.1621 -0.0948
   39CHL1   H4B 2819   6.471   4.227   6.773  1.2328  1.6138  2.2133
   39CHL1    C5 2820   6.393   4.229   6.982 -0.8557 -1.0053  0.9685
   39CHL1    C6 2821   6.490   4.323   7.010 -0.5499 -0.1517 -1.6258
   39CHL1    H6 2822   6.561   4.366   6.937  1.1725 -2.1381 -1.2251
   39CHL1    C7 2823   6.501   4.394   7.143  0.3095 -0.4321  0.2308
   39CHL1   H7A 2824   6.603   4.390   7.187 -0.9632 -0.3044  3.5084
   39CHL1   H7B 2825   6.474   4.502   7.139 -0.1795 -0.5732 -0.6302
   39CHL1    C8 2826   6.417   4.319   7.245  0.2489 -0.1482  0.5536
   39CHL1    H8 2827   6.470   4.224   7.270  2.1423  0.6372 -0.2852
   39CHL1   C14 2828   6.398   4.410   7.372 -0.2017  0.7716 -0.5059
   39CHL1   H14 2829   6.336   4.495   7.335 -2.8837 -0.2673  1.2923
   39CHL1   C15 2830   6.520   4.481   7.429 -0.2562  0.0407 -0.0147
   39CHL1  H15A 2831   6.617   4.426   7.428 -0.1603  0.1882  0.5409
   39CHL1  H15B 2832   6.543   4.579   7.383  0.2479  0.1005  0.3479
   39CHL1   C16 2833   6.482   4.504   7.577  0.1236 -0.5355  0.4451
   39CHL1  H16A 2834   6.554   4.456   7.646  2.2952  1.4047 -0.3427
   39CHL1  H16B 2835   6.473   4.609   7.614 -0.4038  0.5277 -2.4285
   39CHL1   C17 2836   6.331   4.455   7.590 -0.2127  0.1170  0.1986
   39CHL1   H17 2837   6.270   4.540   7.554 -0.7464 -1.2164 -2.2812
   39CHL1   C13 2838   6.322   4.342   7.488  0.1510  0.6590 -0.5947
   39CHL1   C18 2839   6.393   4.220   7.550 -0.1335 -0.3348  0.4878
   39CHL1  H18A 2840   6.483   4.245   7.609 -1.2412 -0.5484  2.3547
   39CHL1  H18B 2841   6.335   4.157   7.622  0.0390 -1.7280 -0.5373
   39CHL1  H18C 2842   6.420   4.154   7.464 -1.0134 -0.9402  0.6631
   39CHL1   C12 2843   6.180   4.298   7.446 -0.3531  0.2301 -0.6076
   39CHL1  H12A 2844   6.129   4.229   7.516  1.2490 -0.6112 -0.2250
   39CHL1  H12B 2845   6.115   4.387   7.429 -1.6764 -0.0880  2.2099
   39CHL1   C11 2846   6.190   4.222   7.317 -0.5786 -0.0379 -0.1665
   39CHL1  H11A 2847   6.214   4.118   7.345 -0.3853  0.2544  0.7683
   39CHL1  H11B 2848   6.088   4.204   7.275  0.1765  1.4188 -2.9320
   39CHL1    C9 2849   6.276   4.282   7.194 -0.4968 -0.7741  0.4921
   39CHL1    H9 2850   6.216   4.372   7.166 -1.1030 -1.3165  0.0343
   39CHL1   C10 2851   6.282   4.186   7.075  0.5619 -0.8732 -0.0401
   39CHL1   C19 2852   6.320   4.044   7.130  1.0187  0.6136  1.1305
   39CHL1  H19A 2853   6.227   3.995   7.164  1.3500 -0.6440  0.3110
   39CHL1  H19B 2854   6.367   3.978   7.054 -2.6209 -1.5327  0.5128
   39CHL1  H19C 2855   6.388   4.046   7.218 -1.5179 -2.1286  3.3694
   39CHL1    C1 2856   6.144   4.193   7.000 -0.3743 -0.1272  0.3549
   39CHL1   H1A 2857   6.056   4.156   7.057  0.9076 -1.1698  1.7455
   39CHL1   H1B 2858   6.115   4.298   6.978 -6.2790 -1.0540  1.9061
   39CHL1    C2 2859   6.148   4.134   6.856  0.3107 -0.4684 -0.0156
   39CHL1   H2A 2860   6.051   4.134   6.802  0.7962 -1.0241 -0.9002
   39CHL1   H2B 2861   6.177   4.028   6.873  0.7042 -0.1322  1.5712
   39CHL1   C20 2862   6.289   4.424   7.731 -1.0387  0.3129 -0.0704
   39CHL1   H20 2863   6.331   4.328   7.768 -1.4551  0.2977  0.3711
   39CHL1   C21 2864   6.134   4.407   7.750  0.2663  0.2817  0.4245
   39CHL1  H21A 2865   6.065   4.490   7.725 -0.8383 -1.1862 -1.5944
   39CHL1  H21B 2866   6.136   4.367   7.854  0.2494  0.9822  0.7042
   39CHL1  H21C 2867   6.091   4.324   7.691  0.3464 -0.2007  1.0330
   39CHL1   C22 2868   6.348   4.528   7.835  0.2871  0.1836  0.1355
   39CHL1  H22A 2869   6.457   4.512   7.842  0.7112  3.0299  2.0367
   39CHL1  H22B 2870   6.334   4.635   7.807  0.4139  0.3081  0.5350
   39CHL1   C23 2871   6.308   4.501   7.982 -0.6260  0.0975  0.2659
   39CHL1  H23A 2872   6.200   4.522   7.985 -0.8766 -1.2156  1.6261
   39CHL1  H23B 2873   6.329   4.393   8.003  2.0656  0.2642 -1.0292
   39CHL1   C24 2874   6.382   4.597   8.078 -0.5918  0.5149  0.9197
   39CHL1  H24A 2875   6.492   4.583   8.067 -0.7779 -2.0567  1.6811
   39CHL1  H24B 2876   6.356   4.697   8.037 -0.6237 -0.0421 -0.4575
   39CHL1   C25 2877   6.346   4.577   8.226 -0.0423  0.9934 -0.1583
   39CHL1   H25 2878   6.388   4.477   8.250 -0.9451 -0.1557 -3.0306
   39CHL1   C26 2879   6.397   4.684   8.318  0.1041 -0.9973  0.1506
   39CHL1  H26A 2880   6.504   4.702   8.298  0.3181 -0.6111  1.5681
   39CHL1  H26B 2881   6.350   4.783   8.300  1.9008  0.1303  1.4212
   39CHL1  H26C 2882   6.386   4.663   8.426  1.2954  1.8075  0.8897
   39CHL1   C27 2883   6.194   4.570   8.240 -0.0484  0.6065 -0.6600
   39CHL1  H27A 2884   6.152   4.661   8.191 -1.6644  1.0148  1.3224
   39CHL1  H27B 2885   6.153   4.476   8.197 -2.7021  0.9168  0.9491
   39CHL1  H27C 2886   6.151   4.555   8.341 -1.7663 -1.5092 -1.6279
   40CHL1    C3 2887   4.708   3.299   6.963 -0.0391 -0.6321 -0.5399
   40CHL1    H3 2888   4.643   3.210   6.955 -3.0956  1.4590 -0.3372
   40CHL1    O3 2889   4.710   3.351   6.831  0.2205  0.2373 -0.3794
   40CHL1   H3' 2890   4.635   3.411   6.830 -0.3718 -0.4380  0.8326
   40CHL1    C4 2891   4.645   3.416   7.051 -0.2146  0.6445  0.7595
   40CHL1   H4A 2892   4.708   3.507   7.039 -0.9431  1.0812  0.1280
   40CHL1   H4B 2893   4.542   3.437   7.014  0.0282 -1.6277 -1.4841
   40CHL1    C5 2894   4.652   3.378   7.200  0.1189 -0.3753  0.1249
   40CHL1    C6 2895   4.536   3.367   7.275 -0.5722 -0.0142 -0.2810
   40CHL1    H6 2896   4.442   3.405   7.233 -0.6115  0.9897  0.6636
   40CHL1    C7 2897   4.536   3.327   7.419  0.1796 -0.4844  0.3560
   40CHL1   H7A 2898   4.462   3.392   7.472  0.9765  0.5153  0.2714
   40CHL1   H7B 2899   4.507   3.220   7.425 -1.3532 -0.1570 -0.6283
   40CHL1    C8 2900   4.677   3.350   7.482 -0.1076  0.2151 -0.2751
   40CHL1    H8 2901   4.692   3.459   7.495  2.0093 -0.2156  1.3532
   40CHL1   C14 2902   4.675   3.295   7.622 -0.8266  0.1593 -0.3579
   40CHL1   H14 2903   4.668   3.185   7.607  1.8464 -0.6638  3.1673
   40CHL1   C15 2904   4.569   3.341   7.721 -0.2165  0.2497  0.1350
   40CHL1  H15A 2905   4.562   3.451   7.738  0.5753  0.2187  0.7349
   40CHL1  H15B 2906   4.468   3.301   7.701 -0.7087  0.8535  1.3448
   40CHL1   C16 2907   4.614   3.281   7.854 -0.1391  0.3823 -0.4475
   40CHL1  H16A 2908   4.586   3.353   7.934 -2.2715  0.8556 -1.5205
   40CHL1  H16B 2909   4.559   3.187   7.873  0.7318  0.4740  3.3325
   40CHL1   C17 2910   4.768   3.257   7.839 -0.1665 -0.4286  0.2922
   40CHL1   H17 2911   4.791   3.149   7.840 -1.8506 -0.8334 -0.3792
   40CHL1   C13 2912   4.806   3.316   7.698 -0.4221  0.3543 -0.1987
   40CHL1   C18 2913   4.829   3.470   7.712 -0.2620  0.5464 -0.6871
   40CHL1  H18A 2914   4.924   3.478   7.770  0.0224  0.6641 -1.1663
   40CHL1  H18B 2915   4.836   3.514   7.610 -3.8328 -1.1684 -1.8029
   40CHL1  H18C 2916   4.753   3.526   7.771 -0.4892  0.2337 -0.6834
   40CHL1   C12 2917   4.912   3.246   7.624  0.3733  0.7056  0.5391
   40CHL1  H12A 2918   5.009   3.248   7.678  1.5285  0.2508 -1.4230
   40CHL1  H12B 2919   4.870   3.144   7.617 -1.9545  1.3536  3.3057
   40CHL1   C11 2920   4.927   3.304   7.481 -0.2246  0.0113 -0.2471
   40CHL1  H11A 2921   4.973   3.405   7.490  2.0276 -0.8649 -1.2749
   40CHL1  H11B 2922   5.010   3.252   7.430  2.1835  1.8322  1.5373
   40CHL1    C9 2923   4.793   3.290   7.395  0.2269  0.0835 -1.3468
   40CHL1    H9 2924   4.774   3.181   7.390 -2.1795  0.2770  1.1376
   40CHL1   C10 2925   4.793   3.341   7.251 -0.2825 -0.4734  0.5960
   40CHL1   C19 2926   4.899   3.456   7.243 -0.1598  0.6406 -0.4420
   40CHL1  H19A 2927   5.004   3.422   7.259 -0.1397 -0.6295 -2.7427
   40CHL1  H19B 2928   4.905   3.500   7.141  4.3419  0.5327 -0.4037
   40CHL1  H19C 2929   4.873   3.534   7.317 -0.3406  1.4113 -1.2990
   40CHL1    C1 2930   4.846   3.228   7.155  0.1085  0.5834  0.4234
   40CHL1   H1A 2931   4.951   3.212   7.187  0.6301  2.8737  0.0270
   40CHL1   H1B 2932   4.797   3.132   7.182 -0.3483  0.1934 -1.6235
   40CHL1    C2 2933   4.847   3.268   7.006 -0.5348  0.3340  0.2327
   40CHL1   H2A 2934   4.893   3.186   6.946  1.7930  0.0262  2.3000
   40CHL1   H2B 2935   4.916   3.354   7.000 -2.0883  1.5929 -0.1839
   40CHL1   C20 2936   4.839   3.306   7.970  0.3797  0.1559  0.4852
   40CHL1   H20 2937   4.828   3.416   7.975  1.2100  0.1895  2.7365
   40CHL1   C21 2938   4.989   3.283   7.959 -0.2603  0.1407 -0.3794
   40CHL1  H21A 2939   5.031   3.353   7.884  0.5529 -1.3950 -1.4164
   40CHL1  H21B 2940   5.013   3.178   7.932 -2.4594 -0.9781  1.6642
   40CHL1  H21C 2941   5.047   3.295   8.054 -0.4520 -0.1267 -0.2273
   40CHL1   C22 2942   4.782   3.255   8.099  0.0155  0.6022  0.1318
   40CHL1  H22A 2943   4.673   3.258   8.120  0.5586 -0.0091  3.6001
   40CHL1  H22B 2944   4.811   3.148   8.096 -3.2560 -0.4018 -0.2642
   40CHL1   C23 2945   4.854   3.307   8.234  0.1286 -0.0648 -0.0166
   40CHL1  H23A 2946   4.964   3.296   8.232  0.5250  2.8208  1.5062
   40CHL1  H23B 2947   4.834   3.416   8.230  0.9969  0.1107  0.3283
   40CHL1   C24 2948   4.784   3.232   8.343 -0.2907 -0.7365  0.4271
   40CHL1  H24A 2949   4.675   3.242   8.327  0.1006  0.8612 -1.7997
   40CHL1  H24B 2950   4.804   3.123   8.334 -0.4307 -0.6699 -0.9635
   40CHL1   C25 2951   4.806   3.264   8.488  0.0725 -0.1515 -0.5363
   40CHL1   H25 2952   4.779   3.371   8.498  2.9389  0.5901  0.1571
   40CHL1   C26 2953   4.724   3.179   8.581  0.1252 -0.1150 -1.0874
   40CHL1  H26A 2954   4.616   3.188   8.558 -0.6648 -0.8754  1.8469
   40CHL1  H26B 2955   4.735   3.069   8.581 -2.0409 -0.3951 -2.2869
   40CHL1  H26C 2956   4.729   3.202   8.690 -1.5820 -1.5358 -0.6562
   40CHL1   C27 2957   4.954   3.247   8.524 -0.3282 -0.3910  0.2355
   40CHL1  H27A 2958   5.028   3.306   8.467 -0.0869 -0.7227  0.2034
   40CHL1  H27B 2959   4.954   3.273   8.632 -0.8777 -1.7830  0.5930
   40CHL1  H27C 2960   4.983   3.141   8.507  1.8195  0.0324  0.9356
   41CHL1    C3 2961   4.734   3.774   6.749  0.0502  0.5203  0.0461
   41CHL1    H3 2962   4.737   3.667   6.781  1.0225  1.0749  2.0015
   41CHL1    O3 2963   4.731   3.788   6.608 -0.4509 -0.2159 -0.4384
   41CHL1   H3' 2964   4.651   3.837   6.587 -0.2029  0.4648  0.2051
   41CHL1    C4 2965   4.615   3.840   6.817  0.4324 -0.2050  0.6384
   41CHL1   H4A 2966   4.608   3.942   6.773 -2.5153 -1.9645 -3.6531
   41CHL1   H4B 2967   4.518   3.809   6.773  0.1027  1.7738 -0.1480
   41CHL1    C5 2968   4.620   3.818   6.968  0.4966  0.2109  0.0472
   41CHL1    C6 2969   4.522   3.754   7.035 -0.4400  0.4590  0.4281
   41CHL1    H6 2970   4.438   3.719   6.973 -0.1028  1.7043 -0.7706
   41CHL1    C7 2971   4.522   3.729   7.185 -0.1294  0.2719  0.7213
   41CHL1   H7A 2972   4.428   3.724   7.245  0.5062 -0.9357  1.6759
   41CHL1   H7B 2973   4.574   3.633   7.201  0.6301  0.8424  1.7963
   41CHL1    C8 2974   4.614   3.833   7.255  0.8377  0.0802 -0.4921
   41CHL1    H8 2975   4.564   3.932   7.259  0.9342  0.0900  2.7165
   41CHL1   C14 2976   4.642   3.804   7.405 -0.1964  0.3655  0.0488
   41CHL1   H14 2977   4.699   3.709   7.407  0.0751  0.4822 -1.3279
   41CHL1   C15 2978   4.530   3.768   7.503  0.4861 -0.0672  0.2478
   41CHL1  H15A 2979   4.452   3.847   7.506  0.9372  0.3936  0.0270
   41CHL1  H15B 2980   4.472   3.678   7.473 -2.3638  1.4883  0.7881
   41CHL1   C16 2981   4.605   3.748   7.639  0.1005  0.3537 -0.1608
   41CHL1  H16A 2982   4.547   3.797   7.720 -1.4455  0.3381 -1.2064
   41CHL1  H16B 2983   4.617   3.640   7.663 -0.6994  0.6325  1.6683
   41CHL1   C17 2984   4.738   3.830   7.623  0.3202  0.1241  0.1809
   41CHL1   H17 2985   4.821   3.760   7.602  0.8331  0.7566  0.0457
   41CHL1   C13 2986   4.725   3.902   7.489 -0.1796 -0.3709  0.8333
   41CHL1   C18 2987   4.653   4.038   7.498 -0.1461 -0.5348  0.1521
   41CHL1  H18A 2988   4.727   4.103   7.548 -1.1836  1.0700 -0.3350
   41CHL1  H18B 2989   4.621   4.064   7.394 -0.7346  1.4171  0.7855
   41CHL1  H18C 2990   4.571   4.021   7.571  1.5267  0.3367  2.3427
   41CHL1   C12 2991   4.857   3.918   7.412  0.3388  0.0198 -0.6103
   41CHL1  H12A 2992   4.912   4.002   7.460 -3.0797  2.0948 -0.0049
   41CHL1  H12B 2993   4.919   3.826   7.412 -2.7420 -2.1688 -0.3979
   41CHL1   C11 2994   4.835   3.951   7.260  0.3909 -0.4904 -0.6539
   41CHL1  H11A 2995   4.791   4.053   7.264  0.2621 -0.5880  1.4498
   41CHL1  H11B 2996   4.934   3.963   7.211 -0.0587  0.4333 -1.3617
   41CHL1    C9 2997   4.748   3.849   7.186 -0.0932 -0.9268  0.6560
   41CHL1    H9 2998   4.793   3.748   7.192  0.6064 -0.8344 -1.9427
   41CHL1   C10 2999   4.738   3.881   7.037 -0.3670  0.8849 -0.1704
   41CHL1   C19 3000   4.742   4.034   7.012 -0.0271 -0.0285  0.2433
   41CHL1  H19A 3001   4.679   4.078   7.092  2.3164 -2.5890  3.8024
   41CHL1  H19B 3002   4.845   4.075   7.022 -0.3401  1.3392 -1.6667
   41CHL1  H19C 3003   4.707   4.065   6.912 -0.9885 -0.8926  0.2986
   41CHL1    C1 3004   4.865   3.823   6.965  0.0502  0.2342  0.1491
   41CHL1   H1A 3005   4.954   3.872   7.010 -0.4389  1.5507 -0.2741
   41CHL1   H1B 3006   4.865   3.715   6.991 -0.9961 -0.2336 -1.6391
   41CHL1    C2 3007   4.862   3.834   6.812 -0.2447  0.2579  0.4365
   41CHL1   H2A 3008   4.960   3.792   6.779  0.6448  1.8389  0.9332
   41CHL1   H2B 3009   4.871   3.942   6.789 -1.9325 -0.0775 -2.2140
   41CHL1   C20 3010   4.759   3.913   7.754 -0.4594  0.2649  0.4919
   41CHL1   H20 3011   4.681   3.990   7.772  0.7644  1.5937  0.3224
   41CHL1   C21 3012   4.896   3.988   7.749  0.4596 -0.2992  0.1094
   41CHL1  H21A 3013   4.921   4.047   7.839 -1.6438 -2.4146  2.2252
   41CHL1  H21B 3014   4.888   4.067   7.671 -1.2907  1.8636  2.3128
   41CHL1  H21C 3015   4.985   3.928   7.718  0.2617 -0.7680  0.4396
   41CHL1   C22 3016   4.757   3.819   7.870 -0.5353  0.2738 -0.8258
   41CHL1  H22A 3017   4.675   3.743   7.874 -0.5311  0.2766 -0.6892
   41CHL1  H22B 3018   4.856   3.768   7.871 -0.3399  0.6539  0.6024
   41CHL1   C23 3019   4.752   3.877   8.014  0.4957  0.2819  1.0975
   41CHL1  H23A 3020   4.783   3.797   8.084  1.5083 -0.8543 -0.5892
   41CHL1  H23B 3021   4.821   3.965   8.018 -1.5576  2.0071  0.5874
   41CHL1   C24 3022   4.611   3.937   8.040  0.0496 -0.5336  0.7249
   41CHL1  H24A 3023   4.594   4.024   7.973 -1.7826 -0.9587  0.5624
   41CHL1  H24B 3024   4.550   3.851   8.005  2.3245 -0.7177 -3.3742
   41CHL1   C25 3025   4.572   3.980   8.184 -0.1323  0.6316  0.5786
   41CHL1   H25 3026   4.626   4.075   8.206 -0.7113  1.2940 -0.7068
   41CHL1   C26 3027   4.423   4.030   8.184 -0.1602  0.3410 -0.4589
   41CHL1  H26A 3028   4.358   3.974   8.114  0.7752  0.4153 -1.4186
   41CHL1  H26B 3029   4.380   4.018   8.286  3.9761  1.9573  1.7397
   41CHL1  H26C 3030   4.412   4.139   8.162 -2.1611  0.9464  2.8647
   41CHL1   C27 3031   4.581   3.883   8.305 -0.5451 -0.1412 -0.2622
   41CHL1  H27A 3032   4.569   3.924   8.407  0.2085 -0.1886 -0.1417
   41CHL1  H27B 3033   4.498   3.809   8.299 -1.7134  1.1441 -0.3508
   41CHL1  H27C 3034   4.676   3.825   8.298 -0.7907 -0.4283 -1.3245
   42CHL1    C3 3035   3.365   5.408   6.886  0.4654 -0.6560 -1.2359
   42CHL1    H3 3036   3.348   5.515   6.860  0.8774 -0.2426  0.1123
   42CHL1    O3 3037   3.354   5.344   6.759  0.1245 -0.1845 -0.2960
   42CHL1   H3' 3038   3.424   5.371   6.700 -3.3593  1.5930 -4.0748
   42CHL1    C4 3039   3.500   5.379   6.952 -0.4299 -0.3791  0.1137
   42CHL1   H4A 3040   3.533   5.273   6.943  1.1324  0.0320  0.6784
   42CHL1   H4B 3041   3.571   5.433   6.886  0.7514 -0.1079  1.5377
   42CHL1    C5 3042   3.501   5.420   7.106 -0.0683 -0.1289  0.4614
   42CHL1    C6 3043   3.603   5.495   7.158 -0.9722  0.1873  0.1982
   42CHL1    H6 3044   3.690   5.516   7.095 -0.3636 -0.9355  0.6381
   42CHL1    C7 3045   3.627   5.538   7.302 -0.1247  0.5528 -0.0583
   42CHL1   H7A 3046   3.722   5.501   7.348 -0.5106  1.3735  1.4659
   42CHL1   H7B 3047   3.621   5.649   7.302 -0.6744  0.5254 -0.1021
   42CHL1    C8 3048   3.513   5.472   7.395 -0.4961  0.5861 -0.2072
   42CHL1    H8 3049   3.545   5.371   7.430 -2.5977  0.1620  0.6055
   42CHL1   C14 3050   3.485   5.560   7.517 -0.0346  0.3993  1.0458
   42CHL1   H14 3051   3.433   5.652   7.483 -0.1776  0.2918  0.9705
   42CHL1   C15 3052   3.614   5.611   7.584 -0.3768  0.7388 -0.0161
   42CHL1  H15A 3053   3.682   5.526   7.607 -2.0093 -0.3543  0.9915
   42CHL1  H15B 3054   3.677   5.684   7.529  3.6697 -0.1355  2.9329
   42CHL1   C16 3055   3.563   5.665   7.722 -0.0640 -0.6142 -0.2754
   42CHL1  H16A 3056   3.636   5.624   7.794 -0.6613 -0.4247  0.4575
   42CHL1  H16B 3057   3.552   5.776   7.729 -0.6967 -0.7697  1.9029
   42CHL1   C17 3058   3.409   5.615   7.735 -0.2433 -0.0787 -0.0345
   42CHL1   H17 3059   3.350   5.701   7.697  2.0935  0.3344 -3.0811
   42CHL1   C13 3060   3.398   5.504   7.630 -0.3435  0.0969  0.3389
   42CHL1   C18 3061   3.474   5.381   7.690  0.1121 -0.1972 -0.5336
   42CHL1  H18A 3062   3.577   5.386   7.732  0.4132 -4.0811 -0.4384
   42CHL1  H18B 3063   3.412   5.333   7.770 -0.5746 -0.8010 -1.4084
   42CHL1  H18C 3064   3.483   5.303   7.611 -1.7078  0.1107 -1.0818
   42CHL1   C12 3065   3.264   5.471   7.571  0.1343 -0.0453 -0.4115
   42CHL1  H12A 3066   3.200   5.417   7.643  1.1480  1.2813  1.5751
   42CHL1  H12B 3067   3.209   5.563   7.542 -0.7484 -0.8855 -1.4793
   42CHL1   C11 3068   3.278   5.386   7.440 -1.2117 -0.1989  0.3761
   42CHL1  H11A 3069   3.310   5.281   7.460  0.6313  0.4272  0.9117
   42CHL1  H11B 3070   3.182   5.371   7.387 -1.3933  0.6599  0.4635
   42CHL1    C9 3071   3.380   5.449   7.327  0.2209 -0.5578 -0.4199
   42CHL1    H9 3072   3.345   5.554   7.316  0.8231 -0.3585 -0.4540
   42CHL1   C10 3073   3.377   5.379   7.188 -0.7063  0.3007  0.1203
   42CHL1   C19 3074   3.386   5.232   7.215 -0.9659  0.1913 -0.6247
   42CHL1  H19A 3075   3.419   5.169   7.129  1.7044  0.0618  0.3948
   42CHL1  H19B 3076   3.474   5.208   7.278 -1.0706  0.2911 -0.4407
   42CHL1  H19C 3077   3.294   5.181   7.250 -1.2273 -1.2309 -3.1315
   42CHL1    C1 3078   3.246   5.419   7.114  0.4639  0.0560  0.3182
   42CHL1   H1A 3079   3.159   5.391   7.176 -0.8818 -1.3389 -2.0461
   42CHL1   H1B 3080   3.242   5.530   7.106  0.1460 -0.0875 -2.6013
   42CHL1    C2 3081   3.244   5.349   6.976  0.7551 -1.0911  0.9707
   42CHL1   H2A 3082   3.141   5.374   6.941  1.0278  1.3160  1.6827
   42CHL1   H2B 3083   3.245   5.238   6.979 -1.4116 -1.2262 -0.6997
   42CHL1   C20 3084   3.358   5.570   7.873  0.2383 -0.1484  0.0490
   42CHL1   H20 3085   3.278   5.493   7.863  1.1015 -1.2007  0.9730
   42CHL1   C21 3086   3.277   5.695   7.915  0.4079  0.0394  0.5599
   42CHL1  H21A 3087   3.222   5.663   8.006 -0.4191 -3.3854 -0.9812
   42CHL1  H21B 3088   3.206   5.726   7.836  1.3171  2.0499  0.4568
   42CHL1  H21C 3089   3.354   5.774   7.928  0.2390  0.0077  1.9271
   42CHL1   C22 3090   3.465   5.536   7.989 -0.1612 -0.1747 -0.4351
   42CHL1  H22A 3091   3.521   5.448   7.951  2.6929  1.5408 -0.5127
   42CHL1  H22B 3092   3.525   5.630   7.993  1.8300 -1.3295 -1.6785
   42CHL1   C23 3093   3.411   5.486   8.129  0.5149  0.1164  0.0817
   42CHL1  H23A 3094   3.342   5.561   8.173  0.5121  1.5653 -2.2055
   42CHL1  H23B 3095   3.351   5.393   8.115 -0.0045  0.4366  0.1452
   42CHL1   C24 3096   3.527   5.469   8.232 -0.0654 -0.7420  0.5176
   42CHL1  H24A 3097   3.597   5.392   8.194  1.0754  1.1586 -1.5473
   42CHL1  H24B 3098   3.583   5.565   8.241 -1.1051 -0.0414 -0.1635
   42CHL1   C25 3099   3.477   5.436   8.377  0.6913 -0.0183 -0.2009
   42CHL1   H25 3100   3.399   5.508   8.408  0.1052 -1.2561  1.3674
   42CHL1   C26 3101   3.419   5.294   8.391 -0.2203 -0.3647  0.4629
   42CHL1  H26A 3102   3.494   5.212   8.384 -0.8495 -0.8131 -1.9894
   42CHL1  H26B 3103   3.389   5.277   8.497  0.7688  4.3736  1.7355
   42CHL1  H26C 3104   3.340   5.256   8.323 -0.4617 -0.6168  0.8788
   42CHL1   C27 3105   3.583   5.449   8.485 -0.5148  0.2254 -0.5867
   42CHL1  H27A 3106   3.549   5.440   8.590  0.2670 -1.9779 -0.4790
   42CHL1  H27B 3107   3.637   5.546   8.476 -2.7439  1.6477  0.3622
   42CHL1  H27C 3108   3.654   5.364   8.477  1.0722  1.3636  0.6929
   43CHL1    C3 3109   5.201   2.991   6.858  0.0458  0.0408  0.2044
   43CHL1    H3 3110   5.157   3.092   6.850  0.3103  0.2807  1.4845
   43CHL1    O3 3111   5.184   2.928   6.736 -0.2051 -0.1054  0.6158
   43CHL1   H3' 3112   5.211   2.837   6.750 -1.5438 -0.6878 -0.4401
   43CHL1    C4 3113   5.351   2.999   6.880 -0.0719 -0.2564  0.3623
   43CHL1   H4A 3114   5.395   2.897   6.882  0.3143 -0.0874  0.6366
   43CHL1   H4B 3115   5.396   3.041   6.787  0.6376 -0.5158  0.5823
   43CHL1    C5 3116   5.387   3.071   7.005 -0.6728  0.0415  0.3892
   43CHL1    C6 3117   5.464   3.173   7.006 -0.3534  0.4172 -0.3214
   43CHL1    H6 3118   5.521   3.214   6.921  1.9100 -0.2365  0.8096
   43CHL1    C7 3119   5.491   3.242   7.138 -1.2309 -0.1155 -0.6447
   43CHL1   H7A 3120   5.601   3.251   7.146 -1.1030 -2.5329  1.3492
   43CHL1   H7B 3121   5.443   3.342   7.143 -3.1971 -0.9529 -1.7564
   43CHL1    C8 3122   5.452   3.164   7.260 -0.0368 -0.2713 -0.5620
   43CHL1    H8 3123   5.521   3.080   7.281 -3.6623 -3.3000  0.2512
   43CHL1   C14 3124   5.456   3.260   7.376  0.1930  0.8754  0.6218
   43CHL1   H14 3125   5.386   3.345   7.365 -0.8524  0.3332  2.6002
   43CHL1   C15 3126   5.586   3.330   7.395 -0.3851 -0.3189 -0.7309
   43CHL1  H15A 3127   5.676   3.274   7.362 -0.2529 -1.8917  1.9970
   43CHL1  H15B 3128   5.588   3.427   7.340 -0.5029  1.2745  1.8866
   43CHL1   C16 3129   5.594   3.367   7.548 -0.2991  0.2312  0.2722
   43CHL1  H16A 3130   5.679   3.314   7.596 -0.3082 -0.1022 -0.0647
   43CHL1  H16B 3131   5.602   3.477   7.557  2.4326  0.2943 -1.7264
   43CHL1   C17 3132   5.453   3.321   7.593 -0.0166  0.3782 -0.9796
   43CHL1   H17 3133   5.395   3.414   7.572  0.3838  0.8486 -0.0328
   43CHL1   C13 3134   5.419   3.195   7.506 -0.2553  0.7593 -0.0117
   43CHL1   C18 3135   5.512   3.080   7.547 -0.0403 -0.1355 -0.1909
   43CHL1  H18A 3136   5.501   3.001   7.470  0.7717  0.4387 -0.9076
   43CHL1  H18B 3137   5.617   3.116   7.550  0.4700 -1.6510  1.3638
   43CHL1  H18C 3138   5.477   3.044   7.646 -3.7895 -0.5172 -1.4911
   43CHL1   C12 3139   5.269   3.157   7.498 -0.7522  0.5370  0.0636
   43CHL1  H12A 3140   5.227   3.116   7.592  0.4204 -0.7187  0.0674
   43CHL1  H12B 3141   5.218   3.253   7.478  1.1640  0.9980 -3.4207
   43CHL1   C11 3142   5.248   3.055   7.378 -0.3664  0.1507 -0.1719
   43CHL1  H11A 3143   5.294   2.957   7.403  0.0084  0.9730  2.7392
   43CHL1  H11B 3144   5.140   3.030   7.363 -1.0010  0.4845  3.0859
   43CHL1    C9 3145   5.316   3.097   7.244  0.6872 -1.2114  0.3459
   43CHL1    H9 3146   5.260   3.186   7.209 -0.4631 -1.8077  0.6388
   43CHL1   C10 3147   5.307   3.002   7.123 -0.2552 -0.0978  0.1027
   43CHL1   C19 3148   5.380   2.864   7.154  0.7699  0.1109 -0.6888
   43CHL1  H19A 3149   5.489   2.884   7.157  0.5861  2.0012 -2.9355
   43CHL1  H19B 3150   5.344   2.810   7.244 -2.2981  0.6277 -1.4624
   43CHL1  H19C 3151   5.351   2.789   7.076  0.1911  0.4022 -0.7646
   43CHL1    C1 3152   5.162   2.970   7.096 -0.1599 -0.7881 -0.0377
   43CHL1   H1A 3153   5.113   2.917   7.181 -1.3387  1.7053  0.9416
   43CHL1   H1B 3154   5.107   3.066   7.092  2.3083  0.7530  0.6162
   43CHL1    C2 3155   5.138   2.901   6.962  0.1362  0.6532 -0.4841
   43CHL1   H2A 3156   5.028   2.897   6.947 -0.4964  1.5632  3.0819
   43CHL1   H2B 3157   5.186   2.801   6.955 -0.5919  0.2878 -0.4074
   43CHL1   C20 3158   5.471   3.296   7.745 -0.0136  0.1608  0.3082
   43CHL1   H20 3159   5.525   3.201   7.768 -0.6248  0.1621  1.8631
   43CHL1   C21 3160   5.335   3.257   7.804  0.2874  0.0258  0.0004
   43CHL1  H21A 3161   5.254   3.323   7.767  1.5402  0.3591 -2.3764
   43CHL1  H21B 3162   5.329   3.264   7.915  0.8248 -1.9234  0.1890
   43CHL1  H21C 3163   5.304   3.152   7.783  0.0289  0.2648 -0.8668
   43CHL1   C22 3164   5.544   3.406   7.817  0.3565  0.4649  0.2608
   43CHL1  H22A 3165   5.641   3.444   7.779  2.1263 -1.6762  2.2949
   43CHL1  H22B 3166   5.469   3.486   7.837 -0.6482 -0.1567 -0.9034
   43CHL1   C23 3167   5.598   3.359   7.954  0.0825 -0.1404 -0.3428
   43CHL1  H23A 3168   5.526   3.327   8.031 -0.2712  2.1381  0.3355
   43CHL1  H23B 3169   5.661   3.270   7.933  0.0162  0.1201 -1.7873
   43CHL1   C24 3170   5.696   3.472   7.997 -0.5202  0.4793  0.1578
   43CHL1  H24A 3171   5.773   3.502   7.923  2.3902 -1.6564  2.0774
   43CHL1  H24B 3172   5.639   3.567   8.012  0.1413  0.7969  0.7087
   43CHL1   C25 3173   5.765   3.435   8.128  0.1414  1.2270 -0.0186
   43CHL1   H25 3174   5.688   3.408   8.203  0.1457  1.1889 -0.0284
   43CHL1   C26 3175   5.862   3.315   8.108  0.1205  0.2225 -0.1376
   43CHL1  H26A 3176   5.935   3.308   8.192  0.5097 -1.6223 -0.5708
   43CHL1  H26B 3177   5.812   3.215   8.106  2.3409 -0.9544 -0.3441
   43CHL1  H26C 3178   5.917   3.345   8.017  0.5468 -1.0366 -0.3271
   43CHL1   C27 3179   5.847   3.550   8.184  0.6251  0.2802  0.5690
   43CHL1  H27A 3180   5.892   3.517   8.280  2.9356 -0.4787 -0.7040
   43CHL1  H27B 3181   5.925   3.587   8.115  2.9123 -2.4837  1.4610
   43CHL1  H27C 3182   5.780   3.637   8.199  2.2811  1.5632  0.7262
   44CHL1    C3 3183   5.784   1.704   6.754  0.0944  0.7079  0.4210
   44CHL1    H3 3184   5.685   1.655   6.768 -0.0764  0.8682 -0.2112
   44CHL1    O3 3185   5.809   1.713   6.614  0.3562 -0.1334 -0.0572
   44CHL1   H3' 3186   5.901   1.740   6.613  0.7808 -1.3365  1.6174
   44CHL1    C4 3187   5.771   1.847   6.811 -0.1234  0.4388 -0.1626
   44CHL1   H4A 3188   5.869   1.895   6.790  0.9574 -0.8886  1.5932
   44CHL1   H4B 3189   5.679   1.885   6.762 -1.2144 -2.4087 -0.5260
   44CHL1    C5 3190   5.758   1.861   6.962  0.2032  0.1174 -0.0613
   44CHL1    C6 3191   5.663   1.931   7.021  0.0594 -0.4955 -0.0139
   44CHL1    H6 3192   5.591   1.991   6.963  0.1298 -0.5554 -0.1647
   44CHL1    C7 3193   5.651   1.963   7.163 -0.0974 -0.3777 -0.6934
   44CHL1   H7A 3194   5.638   2.072   7.180 -0.3464 -0.3042 -1.3443
   44CHL1   H7B 3195   5.548   1.927   7.185 -0.4804  1.0894  0.0800
   44CHL1    C8 3196   5.764   1.910   7.254 -1.0358 -0.0288  0.6199
   44CHL1    H8 3197   5.851   1.978   7.243  0.6919 -2.0837  0.9429
   44CHL1   C14 3198   5.716   1.886   7.397  0.3618 -0.8783 -0.0202
   44CHL1   H14 3199   5.648   1.798   7.391 -0.5242 -0.2145  0.0035
   44CHL1   C15 3200   5.632   1.992   7.473 -0.3270  0.3038  0.9840
   44CHL1  H15A 3201   5.697   2.079   7.447  0.8569 -0.7819  0.2297
   44CHL1  H15B 3202   5.524   1.999   7.447 -0.1507 -0.7025 -0.0650
   44CHL1   C16 3203   5.640   1.947   7.621 -0.2007 -0.3522 -0.1092
   44CHL1  H16A 3204   5.647   2.038   7.685  1.1756 -0.3056 -0.2846
   44CHL1  H16B 3205   5.539   1.914   7.653 -0.5008  0.2996 -0.3661
   44CHL1   C17 3206   5.749   1.832   7.629 -0.0266 -0.7092  0.1353
   44CHL1   H17 3207   5.700   1.732   7.631  0.0933 -0.7604  0.4077
   44CHL1   C13 3208   5.824   1.845   7.494 -0.0305 -0.6053 -0.4143
   44CHL1   C18 3209   5.933   1.958   7.499  0.1551  0.3688  0.0849
   44CHL1  H18A 3210   5.976   1.957   7.396 -1.5857 -1.3477 -0.6845
   44CHL1  H18B 3211   5.878   2.054   7.515 -1.7292  0.2833 -4.3700
   44CHL1  H18C 3212   6.018   1.941   7.568  1.0168  1.0260 -0.7788
   44CHL1   C12 3213   5.880   1.712   7.452 -0.0109 -0.1949  0.0732
   44CHL1  H12A 3214   5.959   1.676   7.521  0.8252  2.1949  0.4704
   44CHL1  H12B 3215   5.792   1.644   7.453 -0.4232  0.3286  0.2248
   44CHL1   C11 3216   5.925   1.715   7.300 -0.0995  0.0931 -0.6848
   44CHL1  H11A 3217   6.017   1.777   7.301 -0.2957  0.4002  0.7955
   44CHL1  H11B 3218   5.957   1.614   7.264  1.2084  0.0949  0.3962
   44CHL1    C9 3219   5.818   1.771   7.204 -0.4042 -0.5080  0.3473
   44CHL1    H9 3220   5.730   1.703   7.208 -0.7507 -0.2218 -1.5229
   44CHL1   C10 3221   5.858   1.774   7.053  0.1749  0.0272  0.2778
   44CHL1   C19 3222   5.993   1.846   7.046 -0.0769 -0.0208  0.2396
   44CHL1  H19A 3223   5.995   1.946   7.093 -0.2617  0.4038 -0.6327
   44CHL1  H19B 3224   6.071   1.779   7.089  1.4010 -0.3409 -2.6403
   44CHL1  H19C 3225   6.015   1.839   6.937  0.5629 -1.3672  0.4349
   44CHL1    C1 3226   5.865   1.638   6.990  0.4644  0.1615  0.4524
   44CHL1   H1A 3227   5.934   1.573   7.047 -1.2290  0.1412  2.6363
   44CHL1   H1B 3228   5.765   1.593   7.010  0.5211  0.2135  0.8680
   44CHL1    C2 3229   5.884   1.629   6.834 -0.2780  0.4378  0.5190
   44CHL1   H2A 3230   5.871   1.522   6.808  3.1497  0.3099 -1.3171
   44CHL1   H2B 3231   5.990   1.652   6.808  0.6309 -1.9893  1.7407
   44CHL1   C20 3232   5.825   1.840   7.764 -0.1872  0.0591  0.8825
   44CHL1   H20 3233   5.892   1.929   7.762 -0.6192  0.3772 -0.1671
   44CHL1   C21 3234   5.916   1.715   7.772  0.2029 -0.0305  0.1856
   44CHL1  H21A 3235   5.859   1.620   7.769  0.8077 -0.3702 -0.9876
   44CHL1  H21B 3236   5.965   1.718   7.872 -1.6656 -1.8370  1.2197
   44CHL1  H21C 3237   5.998   1.716   7.698 -1.2655  0.9563 -1.4955
   44CHL1   C22 3238   5.745   1.862   7.900 -0.3414 -0.4930 -0.2411
   44CHL1  H22A 3239   5.825   1.859   7.977 -1.5599  0.7623  1.1418
   44CHL1  H22B 3240   5.700   1.964   7.906  1.4841  0.4663 -1.9391
   44CHL1   C23 3241   5.651   1.748   7.933  0.7367  0.5752 -1.0830
   44CHL1  H23A 3242   5.571   1.748   7.856 -0.5345  1.7723  0.1717
   44CHL1  H23B 3243   5.700   1.649   7.919  0.4856 -0.0364  1.6975
   44CHL1   C24 3244   5.602   1.747   8.082 -0.4898 -0.6528  0.0890
   44CHL1  H24A 3245   5.695   1.722   8.138  0.7624  1.3651 -0.9792
   44CHL1  H24B 3246   5.577   1.852   8.111  2.2208  0.4960 -1.3542
   44CHL1   C25 3247   5.489   1.652   8.108 -0.5641  0.8379 -0.5227
   44CHL1   H25 3248   5.403   1.679   8.042 -0.8550 -0.5309 -0.7294
   44CHL1   C26 3249   5.533   1.510   8.080 -0.0096 -0.2476 -0.9130
   44CHL1  H26A 3250   5.454   1.436   8.105  1.0844 -0.8443  1.0078
   44CHL1  H26B 3251   5.574   1.501   7.977  1.9302  2.0963 -0.4434
   44CHL1  H26C 3252   5.610   1.484   8.155  1.2501 -0.9834 -2.4055
   44CHL1   C27 3253   5.437   1.658   8.254 -0.1197  0.0306  0.2838
   44CHL1  H27A 3254   5.516   1.618   8.321  0.5672  0.8412 -0.0190
   44CHL1  H27B 3255   5.410   1.765   8.271 -0.5717 -0.1114  0.4922
   44CHL1  H27C 3256   5.348   1.594   8.270 -0.1291 -0.0584 -0.1167
   45CHL1    C3 3257   3.224   0.563   6.716 -0.4434  0.4667  0.0113
   45CHL1    H3 3258   3.325   0.541   6.757  0.5305  1.5244 -1.7091
   45CHL1    O3 3259   3.229   0.526   6.578  0.1919 -0.0140 -0.1965
   45CHL1   H3' 3260   3.167   0.582   6.531 -0.4154 -1.9894 -1.9446
   45CHL1    C4 3261   3.132   0.460   6.792  0.1648  0.4191 -0.8336
   45CHL1   H4A 3262   3.028   0.453   6.754  0.0014  0.6642 -0.4385
   45CHL1   H4B 3263   3.170   0.356   6.781 -0.8072 -0.2250  1.2554
   45CHL1    C5 3264   3.118   0.491   6.941 -0.4882 -0.3742  0.0098
   45CHL1    C6 3265   3.155   0.401   7.030  0.0037 -0.3116  0.3287
   45CHL1    H6 3266   3.193   0.303   6.996  1.4952 -0.2756  1.7700
   45CHL1    C7 3267   3.164   0.417   7.177  0.1559 -0.0848 -0.4962
   45CHL1   H7A 3268   3.132   0.324   7.228  0.3370  0.0964 -0.0404
   45CHL1   H7B 3269   3.269   0.416   7.214 -0.1890 -1.8733  0.5616
   45CHL1    C8 3270   3.104   0.553   7.221  0.1489  0.1809 -0.0726
   45CHL1    H8 3271   2.994   0.533   7.227  0.0346  0.8155  0.0274
   45CHL1   C14 3272   3.141   0.582   7.363 -0.0479 -0.3869  0.8779
   45CHL1   H14 3273   3.250   0.603   7.369  0.8177 -3.4326 -1.5955
   45CHL1   C15 3274   3.125   0.467   7.467  0.2246 -0.3529 -0.0113
   45CHL1  H15A 3275   3.026   0.417   7.454  0.4005 -0.3470 -1.5611
   45CHL1  H15B 3276   3.204   0.390   7.462  1.7775  1.1134  0.7728
   45CHL1   C16 3277   3.149   0.547   7.599 -0.1757  0.7472  0.3500
   45CHL1  H16A 3278   3.070   0.528   7.675 -2.4027  1.4431 -1.6450
   45CHL1  H16B 3279   3.252   0.536   7.638  0.4542  0.7556 -1.2357
   45CHL1   C17 3280   3.130   0.703   7.561  0.4442 -0.1241 -0.3347
   45CHL1   H17 3281   3.229   0.751   7.548  0.9457 -0.4665  1.7166
   45CHL1   C13 3282   3.063   0.699   7.423 -0.5397  0.2387  0.2548
   45CHL1   C18 3283   2.912   0.668   7.435 -0.5096 -0.6016 -0.6612
   45CHL1  H18A 3284   2.872   0.634   7.337 -0.4053  1.0684 -1.3160
   45CHL1  H18B 3285   2.911   0.589   7.513 -0.0562 -0.4058 -0.4518
   45CHL1  H18C 3286   2.857   0.753   7.479  0.3747 -1.4515  2.2911
   45CHL1   C12 3287   3.096   0.818   7.335 -0.0901  0.5002  0.0775
   45CHL1  H12A 3288   3.044   0.910   7.371 -0.3813 -0.1196  1.2767
   45CHL1  H12B 3289   3.206   0.832   7.332  0.2663 -1.8501  0.5214
   45CHL1   C11 3290   3.048   0.797   7.196  0.6554 -0.5193  0.3327
   45CHL1  H11A 3291   2.939   0.775   7.205  1.1270 -2.1695  3.6031
   45CHL1  H11B 3292   3.067   0.891   7.140 -0.1173 -1.3848 -1.4652
   45CHL1    C9 3293   3.118   0.675   7.124 -0.0237  0.0253 -0.4911
   45CHL1    H9 3294   3.228   0.691   7.124  0.0981 -0.4406  1.5786
   45CHL1   C10 3295   3.091   0.638   6.976  0.3261  0.0289 -0.0724
   45CHL1   C19 3296   2.943   0.667   6.952 -0.5605  0.5888  0.0855
   45CHL1  H19A 3297   2.875   0.624   7.028 -1.2036  0.0478 -0.7877
   45CHL1  H19B 3298   2.916   0.775   6.947 -1.3307  0.5649  2.4541
   45CHL1  H19C 3299   2.909   0.628   6.854 -0.8306  2.7035 -0.7147
   45CHL1    C1 3300   3.176   0.735   6.884  0.2956  0.0241  0.1242
   45CHL1   H1A 3301   3.120   0.830   6.902 -0.7989 -0.7133  0.7652
   45CHL1   H1B 3302   3.279   0.736   6.923  0.7862  2.1274 -1.0212
   45CHL1    C2 3303   3.172   0.700   6.737 -0.2867 -0.3799 -0.4825
   45CHL1   H2A 3304   3.231   0.772   6.676  0.6859  1.7797  2.7472
   45CHL1   H2B 3305   3.066   0.695   6.706 -1.6565  1.4100  3.2830
   45CHL1   C20 3306   3.055   0.781   7.673 -0.6733  0.1014 -0.5082
   45CHL1   H20 3307   2.951   0.742   7.672 -0.7114 -0.2308 -5.0542
   45CHL1   C21 3308   3.039   0.932   7.639  0.4127 -0.1155  0.0520
   45CHL1  H21A 3309   3.007   0.994   7.726 -1.6894  0.2029 -0.8982
   45CHL1  H21B 3310   2.963   0.945   7.559  1.6935  1.2954 -0.9787
   45CHL1  H21C 3311   3.129   0.977   7.592 -2.2652  4.3215 -1.4735
   45CHL1   C22 3312   3.126   0.759   7.812 -0.1708  0.9789  0.1855
   45CHL1  H22A 3313   3.152   0.654   7.837  0.8693  1.3577  0.7673
   45CHL1  H22B 3314   3.220   0.816   7.798  0.3792 -0.1207 -0.7661
   45CHL1   C23 3315   3.042   0.795   7.938 -0.1884 -0.5753  0.0522
   45CHL1  H23A 3316   3.038   0.906   7.931  1.2846 -0.4414  0.9010
   45CHL1  H23B 3317   2.939   0.754   7.929  0.2528 -1.6590 -0.2603
   45CHL1   C24 3318   3.108   0.762   8.067  0.1707  0.5491  0.1346
   45CHL1  H24A 3319   3.125   0.653   8.076  1.8868  0.6703 -1.1732
   45CHL1  H24B 3320   3.205   0.810   8.092 -1.6980  2.7774  4.0826
   45CHL1   C25 3321   3.020   0.790   8.199  0.0588 -0.5139  1.1325
   45CHL1   H25 3322   2.927   0.732   8.185  1.0757 -1.7307 -1.0817
   45CHL1   C26 3323   3.095   0.738   8.325 -0.2829 -0.4027 -0.0298
   45CHL1  H26A 3324   3.112   0.628   8.318  0.7817 -0.4308  1.9862
   45CHL1  H26B 3325   3.199   0.778   8.326  0.4956 -2.2621  1.8284
   45CHL1  H26C 3326   3.037   0.759   8.417 -1.0146 -2.8376  0.1274
   45CHL1   C27 3327   2.980   0.938   8.207 -0.5786 -0.0169  0.1503
   45CHL1  H27A 3328   2.924   0.959   8.300 -1.9835  1.1239 -0.9060
   45CHL1  H27B 3329   3.077   0.992   8.197  0.0563 -1.3881 -1.5689
   45CHL1  H27C 3330   2.921   0.950   8.114 -1.0953 -0.3580  0.4343
   46CHL1    C3 3331   0.262   0.893   6.981  0.3260  1.0740  0.0154
   46CHL1    H3 3332   0.278   1.002   6.990 -0.3416  1.0789  1.4514
   46CHL1    O3 3333   0.272   0.851   6.845  0.3197 -0.5674  0.0183
   46CHL1   H3' 3334   0.284   0.759   6.869  2.7762  0.1622  2.1220
   46CHL1    C4 3335   0.365   0.829   7.082 -0.3470  0.7639 -0.1715
   46CHL1   H4A 3336   0.367   0.720   7.064 -0.8795  0.3341  2.0623
   46CHL1   H4B 3337   0.466   0.860   7.047  0.3261 -1.9895 -0.8820
   46CHL1    C5 3338   0.337   0.875   7.227  0.4405  0.5396 -0.1861
   46CHL1    C6 3339   0.429   0.939   7.309 -0.0687 -0.5191 -0.5262
   46CHL1    H6 3340   0.532   0.957   7.274  0.4123  0.0829  1.1072
   46CHL1    C7 3341   0.415   0.977   7.450 -0.1553  0.4309 -0.3745
   46CHL1   H7A 3342   0.503   0.937   7.505 -1.3252 -0.8261  0.6398
   46CHL1   H7B 3343   0.403   1.087   7.455  0.2525  0.4362  0.7162
   46CHL1    C8 3344   0.290   0.896   7.506 -0.1417 -0.1714  0.2393
   46CHL1    H8 3345   0.324   0.790   7.507 -4.5696 -1.8604  3.1973
   46CHL1   C14 3346   0.257   0.945   7.650  0.1012 -0.1654 -0.5863
   46CHL1   H14 3347   0.205   1.043   7.645  1.1077  0.4301  0.2986
   46CHL1   C15 3348   0.381   0.964   7.747  1.3089  0.2691  0.3650
   46CHL1  H15A 3349   0.441   0.870   7.747  0.9542  0.0401  0.2866
   46CHL1  H15B 3350   0.446   1.051   7.724  0.9650  0.0728 -1.4730
   46CHL1   C16 3351   0.312   0.956   7.886  1.5163  0.2753 -0.2289
   46CHL1  H16A 3352   0.368   0.875   7.938 -0.8328 -0.2115  1.7033
   46CHL1  H16B 3353   0.318   1.045   7.952 -1.1019 -1.1342  2.1592
   46CHL1   C17 3354   0.155   0.924   7.865  0.0360 -0.2981  0.0910
   46CHL1   H17 3355   0.103   1.022   7.865  0.0205 -0.2871  1.7198
   46CHL1   C13 3356   0.155   0.861   7.725 -0.2838  0.1464 -0.5622
   46CHL1   C18 3357   0.217   0.718   7.731 -0.3176  0.2296  0.1804
   46CHL1  H18A 3358   0.139   0.651   7.773  0.2787 -0.4232  0.2715
   46CHL1  H18B 3359   0.246   0.676   7.633 -1.9360  0.0415 -0.2449
   46CHL1  H18C 3360   0.301   0.714   7.804  0.3392  0.7668 -0.5400
   46CHL1   C12 3361   0.033   0.881   7.638 -0.2864  0.0385  0.5962
   46CHL1  H12A 3362  -0.039   0.808   7.680 -1.9686  1.1237 -0.2820
   46CHL1  H12B 3363  -0.018   0.980   7.645 -1.0157 -0.3652  1.0959
   46CHL1   C11 3364   0.039   0.836   7.486 -0.1688  0.0017  0.4123
   46CHL1  H11A 3365   0.045   0.726   7.502  4.9471  0.2812  2.3425
   46CHL1  H11B 3366  -0.053   0.850   7.426  0.7312  2.4356 -0.5496
   46CHL1    C9 3367   0.169   0.895   7.414 -0.2745  0.0998 -0.0398
   46CHL1    H9 3368   0.148   1.002   7.390 -1.3219 -0.2471 -0.7926
   46CHL1   C10 3369   0.197   0.840   7.271  0.3968 -0.1095  0.4792
   46CHL1   C19 3370   0.189   0.688   7.279 -0.4032  0.3376  0.6467
   46CHL1  H19A 3371   0.257   0.658   7.362  2.6567  2.8987 -0.7124
   46CHL1  H19B 3372   0.082   0.662   7.288 -0.0758 -0.5612  2.3825
   46CHL1  H19C 3373   0.223   0.636   7.187 -3.0377  1.9147 -1.3436
   46CHL1    C1 3374   0.100   0.892   7.162  0.5131 -0.2203 -0.2240
   46CHL1   H1A 3375   0.006   0.855   7.208  1.7063 -0.0757  2.5204
   46CHL1   H1B 3376   0.100   1.003   7.171 -0.5588 -0.0111 -2.1443
   46CHL1    C2 3377   0.121   0.855   7.018 -0.5768 -0.0828 -0.3435
   46CHL1   H2A 3378   0.050   0.911   6.955 -1.0533  1.5717  1.5539
   46CHL1   H2B 3379   0.121   0.744   7.008 -1.6260 -0.0128 -1.2759
   46CHL1   C20 3380   0.090   0.851   7.987 -0.3132  1.2074 -0.0119
   46CHL1   H20 3381   0.151   0.759   8.004 -1.9983  0.1612  0.6798
   46CHL1   C21 3382  -0.063   0.821   7.963 -0.3231  0.1439 -0.1025
   46CHL1  H21A 3383  -0.108   0.770   8.050  1.4247 -1.4550 -0.0840
   46CHL1  H21B 3384  -0.083   0.748   7.882 -2.0214  0.9998 -0.4949
   46CHL1  H21C 3385  -0.118   0.916   7.943  0.3277  0.2707 -1.4866
   46CHL1   C22 3386   0.107   0.936   8.117  1.4403  0.5250  0.2474
   46CHL1  H22A 3387   0.215   0.964   8.122  1.0489  2.1463 -0.1070
   46CHL1  H22B 3388   0.043   1.026   8.109 -0.1456 -0.7274 -2.2069
   46CHL1   C23 3389   0.067   0.855   8.244  0.0043  0.2094 -0.4766
   46CHL1  H23A 3390  -0.036   0.814   8.229  0.7654 -1.3515 -1.6376
   46CHL1  H23B 3391   0.142   0.778   8.272  0.6829  1.5998  1.7962
   46CHL1   C24 3392   0.053   0.943   8.375 -0.3078  0.0489 -0.0900
   46CHL1  H24A 3393   0.140   1.008   8.400 -0.9583  1.6533 -1.7440
   46CHL1  H24B 3394  -0.039   1.003   8.359  0.5974  1.5563  0.1796
   46CHL1   C25 3395   0.014   0.864   8.501  0.5422  0.2621  0.6599
   46CHL1   H25 3396  -0.075   0.802   8.479  0.9592  0.2935 -1.2740
   46CHL1   C26 3397   0.138   0.788   8.547 -0.3012 -0.4338  0.2736
   46CHL1  H26A 3398   0.210   0.871   8.564  0.1125 -0.7408  0.0592
   46CHL1  H26B 3399   0.121   0.727   8.638 -0.1192 -2.0016 -0.7074
   46CHL1  H26C 3400   0.173   0.715   8.470  1.3571  1.0859 -0.4904
   46CHL1   C27 3401  -0.039   0.963   8.607 -0.0211 -0.2355  0.2305
   46CHL1  H27A 3402   0.047   1.026   8.640  0.9746 -0.5900 -1.5562
   46CHL1  H27B 3403  -0.109   1.041   8.569  2.5925  3.1015  1.6969
   46CHL1  H27C 3404  -0.082   0.905   8.691  0.9412  3.2782  3.4113
   47CHL1    C3 3405   0.418   1.783   6.712 -0.0649  0.7594  0.6303
   47CHL1    H3 3406   0.407   1.877   6.771  0.7761  0.8435  0.6644
   47CHL1    O3 3407   0.406   1.812   6.575 -0.1814 -0.2123 -0.2012
   47CHL1   H3' 3408   0.411   1.907   6.563  1.4128 -0.1305  0.7986
   47CHL1    C4 3409   0.570   1.746   6.747 -0.1875 -0.2950 -0.0882
   47CHL1   H4A 3410   0.589   1.649   6.696 -2.9677 -0.6688 -0.6021
   47CHL1   H4B 3411   0.629   1.832   6.709 -0.9428 -0.1056 -0.8974
   47CHL1    C5 3412   0.595   1.710   6.892  0.6353  0.6091 -0.1932
   47CHL1    C6 3413   0.686   1.774   6.968  0.0182  0.5719 -0.6925
   47CHL1    H6 3414   0.750   1.849   6.919 -0.6805  1.3020 -0.4977
   47CHL1    C7 3415   0.709   1.744   7.110 -0.6726 -0.1069  0.5464
   47CHL1   H7A 3416   0.815   1.740   7.143 -1.2036  1.5983  2.7223
   47CHL1   H7B 3417   0.672   1.831   7.169 -1.5601  0.9922 -1.5281
   47CHL1    C8 3418   0.641   1.617   7.161 -0.2284 -0.4829  0.0247
   47CHL1    H8 3419   0.704   1.536   7.119 -0.3321 -1.4049  1.5995
   47CHL1   C14 3420   0.648   1.611   7.311  0.1748 -0.4252  0.1443
   47CHL1   H14 3421   0.590   1.699   7.346  0.6391 -0.0916  0.0758
   47CHL1   C15 3422   0.790   1.602   7.374 -0.3522  0.0039  0.1125
   47CHL1  H15A 3423   0.858   1.535   7.317  0.6941  1.2855 -0.2038
   47CHL1  H15B 3424   0.835   1.703   7.377 -2.3869  1.0479 -1.7898
   47CHL1   C16 3425   0.769   1.559   7.522  0.1836 -0.0603  0.4246
   47CHL1  H16A 3426   0.844   1.480   7.543  0.6488  0.5585  1.1227
   47CHL1  H16B 3427   0.790   1.639   7.596  5.0690 -2.2865  1.8644
   47CHL1   C17 3428   0.616   1.500   7.526  0.0911  0.0647  0.7266
   47CHL1   H17 3429   0.555   1.578   7.577 -1.0247 -0.1186 -0.2871
   47CHL1   C13 3430   0.571   1.495   7.376  0.6156  0.3998  0.3002
   47CHL1   C18 3431   0.622   1.359   7.323  0.4771  0.0423 -0.0685
   47CHL1  H18A 3432   0.726   1.341   7.358 -0.2116  0.6302  2.4801
   47CHL1  H18B 3433   0.556   1.279   7.366  0.0910 -0.4799 -1.5832
   47CHL1  H18C 3434   0.606   1.341   7.215 -0.1443  0.0626  0.0165
   47CHL1   C12 3435   0.416   1.518   7.342  0.2347  0.8766  0.3595
   47CHL1  H12A 3436   0.367   1.423   7.373  1.2718  0.3283  0.3823
   47CHL1  H12B 3437   0.377   1.615   7.379  0.8809  1.6510 -0.9271
   47CHL1   C11 3438   0.402   1.520   7.190 -0.1303 -0.5638 -1.0912
   47CHL1  H11A 3439   0.426   1.416   7.157  1.7875 -0.1419 -1.1614
   47CHL1  H11B 3440   0.294   1.524   7.165 -0.3277 -0.3679 -0.2192
   47CHL1    C9 3441   0.497   1.620   7.115  0.4059 -0.2442  0.4044
   47CHL1    H9 3442   0.459   1.724   7.132  0.1074 -0.4217  0.8491
   47CHL1   C10 3443   0.491   1.610   6.958 -0.3297  0.6815  0.3479
   47CHL1   C19 3444   0.517   1.466   6.912  0.6813 -0.1014 -0.8037
   47CHL1  H19A 3445   0.430   1.398   6.924  0.5140 -0.0656 -1.6900
   47CHL1  H19B 3446   0.541   1.461   6.803  0.4850 -0.6058 -0.8268
   47CHL1  H19C 3447   0.607   1.435   6.969  0.3136  0.3078  0.0120
   47CHL1    C1 3448   0.347   1.640   6.910  0.3576  0.0009  0.1188
   47CHL1   H1A 3449   0.285   1.551   6.932  0.5589  0.0239  0.7802
   47CHL1   H1B 3450   0.316   1.733   6.963 -0.1735  0.2773 -0.6600
   47CHL1    C2 3451   0.335   1.664   6.755  0.3559 -0.0968  0.1792
   47CHL1   H2A 3452   0.226   1.680   6.745  0.0477 -2.6518 -1.2149
   47CHL1   H2B 3453   0.351   1.569   6.701  2.1627  0.4511 -0.3415
   47CHL1   C20 3454   0.604   1.372   7.610 -0.2063 -0.1270 -0.1799
   47CHL1   H20 3455   0.664   1.288   7.570 -1.5314 -1.3530  0.3286
   47CHL1   C21 3456   0.451   1.339   7.630 -0.2244 -0.5142  0.7695
   47CHL1  H21A 3457   0.440   1.280   7.724 -0.2260  0.0305  1.1167
   47CHL1  H21B 3458   0.404   1.280   7.548  0.7556  0.0601 -0.2223
   47CHL1  H21C 3459   0.394   1.433   7.645 -1.0416 -0.8400 -0.1877
   47CHL1   C22 3460   0.672   1.393   7.751 -1.0269 -0.3408 -0.0291
   47CHL1  H22A 3461   0.679   1.295   7.802  2.0787  0.3804  1.1440
   47CHL1  H22B 3462   0.779   1.422   7.742 -1.2405  0.7607  0.7312
   47CHL1   C23 3463   0.612   1.497   7.843  0.9744 -0.3545 -0.7597
   47CHL1  H23A 3464   0.627   1.596   7.797  0.4271 -1.1393 -2.7036
   47CHL1  H23B 3465   0.502   1.479   7.845  1.0677 -1.2169 -2.2698
   47CHL1   C24 3466   0.677   1.506   7.985  0.2107  0.5270 -0.0590
   47CHL1  H24A 3467   0.666   1.405   8.028  0.5144  1.0871  1.3879
   47CHL1  H24B 3468   0.787   1.523   7.977  0.2347 -0.2468 -1.8803
   47CHL1   C25 3469   0.601   1.596   8.083 -0.1512 -0.7508 -0.5219
   47CHL1   H25 3470   0.493   1.586   8.060 -0.1983  1.0691 -1.2721
   47CHL1   C26 3471   0.621   1.553   8.225 -0.5658 -0.1648 -0.0851
   47CHL1  H26A 3472   0.729   1.566   8.246 -0.4668  1.9873 -1.5953
   47CHL1  H26B 3473   0.572   1.616   8.302  1.4168  1.0808  0.2312
   47CHL1  H26C 3474   0.593   1.446   8.239 -1.2017  0.0121  0.0337
   47CHL1   C27 3475   0.642   1.742   8.066  0.1649 -0.0049 -0.1152
   47CHL1  H27A 3476   0.753   1.749   8.066  0.2698 -0.2851 -3.2291
   47CHL1  H27B 3477   0.606   1.772   7.965 -0.1755  1.1030  0.3212
   47CHL1  H27C 3478   0.597   1.800   8.149 -0.3474 -0.9116  0.2466
   48CHL1    C3 3479   6.188   4.489   6.339  0.3161  0.5023  0.1433
   48CHL1    H3 3480   6.236   4.404   6.391 -0.4407  0.1316  0.2371
   48CHL1    O3 3481   6.174   4.456   6.202 -0.3365 -0.2131  0.0723
   48CHL1   H3' 3482   6.132   4.370   6.201  2.0863 -1.4840  0.6795
   48CHL1    C4 3483   6.050   4.523   6.401  0.4365 -0.2222 -0.4303
   48CHL1   H4A 3484   6.011   4.604   6.335 -1.4813 -1.3686 -0.7714
   48CHL1   H4B 3485   5.990   4.430   6.393  0.7438 -0.8615  3.0008
   48CHL1    C5 3486   6.046   4.561   6.549 -0.3946  0.4004 -0.4251
   48CHL1    C6 3487   5.971   4.496   6.640  0.4340  0.6397 -0.0240
   48CHL1    H6 3488   5.907   4.414   6.605  2.2182 -0.8049 -0.0132
   48CHL1    C7 3489   5.975   4.526   6.785 -0.6411  0.1557 -0.6182
   48CHL1   H7A 3490   5.876   4.544   6.832  0.7880  1.2000  2.2765
   48CHL1   H7B 3491   6.032   4.441   6.830  1.1142  2.1411  1.1439
   48CHL1    C8 3492   6.066   4.649   6.829  0.4079 -0.0434  0.8705
   48CHL1    H8 3493   6.007   4.740   6.807  0.5600  0.2755  1.7386
   48CHL1   C14 3494   6.106   4.638   6.977 -0.1356  0.4101  0.2365
   48CHL1   H14 3495   6.175   4.552   6.986  1.2516  1.1651 -2.3291
   48CHL1   C15 3496   5.997   4.605   7.077  0.4107  0.5644  0.2728
   48CHL1  H15A 3497   5.903   4.660   7.057  0.3595  0.3388 -0.1097
   48CHL1  H15B 3498   5.961   4.501   7.070 -1.4813  1.2704 -1.4624
   48CHL1   C16 3499   6.050   4.654   7.210 -0.6492 -0.3886  0.0064
   48CHL1  H16A 3500   5.980   4.710   7.275 -0.3563  0.3978 -0.3524
   48CHL1  H16B 3501   6.091   4.570   7.270 -1.3478 -0.3563  0.5423
   48CHL1   C17 3502   6.184   4.728   7.176 -0.3826  0.7252 -0.0415
   48CHL1   H17 3503   6.272   4.663   7.199 -0.2402  1.3682  1.3327
   48CHL1   C13 3504   6.182   4.758   7.025 -0.8951 -0.3042  0.3213
   48CHL1   C18 3505   6.105   4.891   6.998 -0.3138  0.8584  0.7671
   48CHL1  H18A 3506   6.150   4.974   7.056  0.4822  0.5763  0.5806
   48CHL1  H18B 3507   6.116   4.925   6.892 -0.3932  0.3395  0.5869
   48CHL1  H18C 3508   5.997   4.883   7.022 -0.6230 -1.1116 -0.9516
   48CHL1   C12 3509   6.319   4.746   6.948  0.0793  0.6019  0.1114
   48CHL1  H12A 3510   6.402   4.808   6.986 -0.0435  0.0684  1.2858
   48CHL1  H12B 3511   6.358   4.644   6.970 -0.2195  0.2195 -1.0226
   48CHL1   C11 3512   6.304   4.743   6.793  0.4016  0.3438 -0.0351
   48CHL1  H11A 3513   6.271   4.845   6.764 -0.1667  0.6136  1.4692
   48CHL1  H11B 3514   6.403   4.731   6.744 -0.5391  0.3938 -2.0620
   48CHL1    C9 3515   6.196   4.649   6.743 -0.4938  0.2635 -0.0900
   48CHL1    H9 3516   6.246   4.554   6.773  2.5205  2.6725  3.4386
   48CHL1   C10 3517   6.160   4.653   6.590 -0.4194 -0.3503 -0.2874
   48CHL1   C19 3518   6.108   4.798   6.558 -0.0971  0.7982  0.5952
   48CHL1  H19A 3519   6.060   4.803   6.458  0.7643 -2.3263 -0.0909
   48CHL1  H19B 3520   6.040   4.835   6.638 -0.2965 -0.4418  1.0116
   48CHL1  H19C 3521   6.195   4.867   6.561  0.7281 -0.1201 -1.0524
   48CHL1    C1 3522   6.296   4.642   6.507  1.0593  0.4340  0.4157
   48CHL1   H1A 3523   6.366   4.726   6.525  1.9894 -0.5371  1.6137
   48CHL1   H1B 3524   6.334   4.546   6.549 -2.3033 -1.1801  0.0934
   48CHL1    C2 3525   6.276   4.617   6.357 -0.0876  0.5122  0.4730
   48CHL1   H2A 3526   6.372   4.606   6.303 -0.9789 -1.2881 -0.8252
   48CHL1   H2B 3527   6.225   4.708   6.317  1.5694  0.8637 -0.9494
   48CHL1   C20 3528   6.212   4.845   7.275  0.0175  0.0695 -0.4493
   48CHL1   H20 3529   6.122   4.908   7.260 -0.4203 -0.2092  0.8767
   48CHL1   C21 3530   6.339   4.922   7.247 -0.4961 -0.7402  0.0240
   48CHL1  H21A 3531   6.338   4.987   7.158  2.3118  1.4825  1.4299
   48CHL1  H21B 3532   6.418   4.845   7.234  1.1207  0.5547  1.6387
   48CHL1  H21C 3533   6.361   4.999   7.325 -1.6580  2.3354 -2.4994
   48CHL1   C22 3534   6.223   4.796   7.421 -0.0636  0.0399 -0.2562
   48CHL1  H22A 3535   6.157   4.709   7.445 -0.4351  0.6057  0.8892
   48CHL1  H22B 3536   6.324   4.764   7.453 -0.0858  1.1985  1.0982
   48CHL1   C23 3537   6.177   4.904   7.517  0.1716  0.0701  0.2086
   48CHL1  H23A 3538   6.240   4.995   7.507  2.1607 -1.1809  0.6478
   48CHL1  H23B 3539   6.072   4.932   7.493  0.5071 -0.6930 -2.4597
   48CHL1   C24 3540   6.203   4.866   7.664 -0.2931  0.3654 -0.5425
   48CHL1  H24A 3541   6.176   4.760   7.680  4.7690 -1.0571  0.4842
   48CHL1  H24B 3542   6.313   4.858   7.676 -0.5502 -0.3393  1.9193
   48CHL1   C25 3543   6.138   4.961   7.768  0.2751 -0.1790  0.1919
   48CHL1   H25 3544   6.034   4.985   7.738  0.2568  0.3631  0.6730
   48CHL1   C26 3545   6.138   4.901   7.906  0.7203  0.4908 -0.7210
   48CHL1  H26A 3546   6.100   4.977   7.979 -1.2593  0.5515 -1.7487
   48CHL1  H26B 3547   6.058   4.825   7.918 -0.5170  1.6093 -1.6055
   48CHL1  H26C 3548   6.239   4.873   7.941  0.5045  1.3768  0.6995
   48CHL1   C27 3549   6.216   5.099   7.765 -0.6323 -0.9057 -0.3814
   48CHL1  H27A 3550   6.168   5.155   7.848 -0.6422  0.6381 -1.3849
   48CHL1  H27B 3551   6.324   5.080   7.782  0.3592  4.5570  1.5692
   48CHL1  H27C 3552   6.196   5.144   7.666  2.1439 -0.5984 -0.8847
   49CHL1    C3 3553   3.260   0.107   6.632 -0.0231 -0.0715  0.4168
   49CHL1    H3 3554   3.205   0.199   6.659 -1.3011 -0.7554  0.2395
   49CHL1    O3 3555   3.229   0.089   6.495 -0.0127 -0.5177 -0.1127
   49CHL1   H3' 3556   3.214   0.176   6.457 -0.3600 -1.3116 -1.9026
   49CHL1    C4 3557   3.406   0.134   6.659 -0.3554 -0.6238 -0.1705
   49CHL1   H4A 3558   3.457   0.041   6.628  0.0311 -0.9677  1.4159
   49CHL1   H4B 3559   3.437   0.226   6.605 -2.3459  0.3563  0.2432
   49CHL1    C5 3560   3.434   0.143   6.810 -0.1998 -0.2944 -0.5309
   49CHL1    C6 3561   3.486   0.256   6.867 -0.4363  0.1356 -0.1564
   49CHL1    H6 3562   3.501   0.339   6.797  0.2674 -0.1458 -0.3430
   49CHL1    C7 3563   3.524   0.271   7.012 -0.0259  0.2488 -0.2591
   49CHL1   H7A 3564   3.631   0.301   7.022 -0.2065  1.3301 -1.2330
   49CHL1   H7B 3565   3.476   0.360   7.059 -1.8686 -0.1524 -1.2810
   49CHL1    C8 3566   3.499   0.146   7.095 -0.2990 -0.0477  0.4421
   49CHL1    H8 3567   3.595   0.090   7.087 -0.0724  0.2942  0.7476
   49CHL1   C14 3568   3.479   0.171   7.243  0.0773 -0.7244 -0.3181
   49CHL1   H14 3569   3.377   0.214   7.253 -0.2027 -1.8143  2.1373
   49CHL1   C15 3570   3.572   0.276   7.313  0.8641 -0.6043  0.0177
   49CHL1  H15A 3571   3.679   0.248   7.303  0.9604 -0.4600  0.5894
   49CHL1  H15B 3572   3.551   0.380   7.281  1.5500  0.1281  1.8442
   49CHL1   C16 3573   3.529   0.258   7.460 -0.5934  0.2787  0.1129
   49CHL1  H16A 3574   3.622   0.237   7.517 -0.0323  0.1531 -0.8277
   49CHL1  H16B 3575   3.476   0.353   7.483 -1.1234  0.0610 -0.2001
   49CHL1   C17 3576   3.443   0.127   7.476 -0.0191 -0.0978  0.1620
   49CHL1   H17 3577   3.336   0.158   7.481 -0.3042 -1.1769  1.3622
   49CHL1   C13 3578   3.469   0.056   7.339  0.0957  0.1453  0.5785
   49CHL1   C18 3579   3.601  -0.023   7.342 -0.1078  0.6349  0.2783
   49CHL1  H18A 3580   3.580  -0.114   7.403 -0.4611  0.2031 -0.4692
   49CHL1  H18B 3581   3.628  -0.061   7.241 -0.0049 -0.8224  0.8407
   49CHL1  H18C 3582   3.683   0.025   7.400 -0.2707 -1.6389  2.5824
   49CHL1   C12 3583   3.364  -0.046   7.288  0.1013  0.0719  0.1752
   49CHL1  H12A 3584   3.374  -0.143   7.341 -0.0714 -0.5050 -0.8085
   49CHL1  H12B 3585   3.265  -0.001   7.309  0.5629  0.7901  0.8396
   49CHL1   C11 3586   3.367  -0.067   7.134 -0.0153  0.0067 -0.1495
   49CHL1  H11A 3587   3.438  -0.152   7.125  1.9874  1.2322  2.6770
   49CHL1  H11B 3588   3.267  -0.107   7.107  0.1984  0.1989 -1.2897
   49CHL1    C9 3589   3.387   0.056   7.045 -0.1406 -0.2611  0.1794
   49CHL1    H9 3590   3.296   0.116   7.068  1.0939  0.9085  2.2093
   49CHL1   C10 3591   3.380   0.026   6.896 -0.9576 -0.0962 -0.4286
   49CHL1   C19 3592   3.470  -0.099   6.867  0.4860 -0.0173  0.3463
   49CHL1  H19A 3593   3.417  -0.190   6.903 -2.0845  0.7672 -1.1358
   49CHL1  H19B 3594   3.492  -0.107   6.759 -0.9569  1.7097 -0.1352
   49CHL1  H19C 3595   3.567  -0.089   6.920  1.8235  1.7244 -2.2604
   49CHL1    C1 3596   3.235   0.008   6.856 -0.0009  0.3324 -0.3748
   49CHL1   H1A 3597   3.193  -0.075   6.917  0.5689 -1.5728 -2.4087
   49CHL1   H1B 3598   3.177   0.099   6.880  0.1311  0.3357 -0.0705
   49CHL1    C2 3599   3.203  -0.014   6.705  0.3562 -0.5343 -0.0422
   49CHL1   H2A 3600   3.095  -0.030   6.685  0.1569  0.0558  0.5281
   49CHL1   H2B 3601   3.268  -0.097   6.670  1.9194  0.6832 -0.1778
   49CHL1   C20 3602   3.476   0.054   7.608  0.7405  0.8850 -0.3756
   49CHL1   H20 3603   3.575   0.005   7.600  0.1634 -0.2987 -0.4494
   49CHL1   C21 3604   3.394  -0.075   7.627 -0.0533 -0.3828  0.3614
   49CHL1  H21A 3605   3.412  -0.121   7.727  1.1658 -0.6851  0.0200
   49CHL1  H21B 3606   3.432  -0.148   7.552 -0.8705 -0.1673 -0.2756
   49CHL1  H21C 3607   3.286  -0.055   7.610  0.2558  0.0004 -1.3600
   49CHL1   C22 3608   3.460   0.140   7.734  0.5387  0.4818  0.3709
   49CHL1  H22A 3609   3.462   0.074   7.823 -1.8129  0.8911  0.7988
   49CHL1  H22B 3610   3.538   0.218   7.726 -0.1799  1.1821  0.0445
   49CHL1   C23 3611   3.325   0.218   7.744 -0.0062  0.0517 -0.3840
   49CHL1  H23A 3612   3.309   0.276   7.651  0.7602  1.4394  0.3035
   49CHL1  H23B 3613   3.243   0.143   7.749  1.8865 -2.0798  2.3229
   49CHL1   C24 3614   3.307   0.312   7.867  0.1906 -0.6504  0.8915
   49CHL1  H24A 3615   3.369   0.404   7.856 -1.1044  0.0016 -1.7721
   49CHL1  H24B 3616   3.207   0.362   7.862 -0.5795 -2.0356  1.7380
   49CHL1   C25 3617   3.316   0.236   7.999 -0.5217  0.2100 -0.4804
   49CHL1   H25 3618   3.408   0.174   7.999 -1.2425 -0.8970  0.1843
   49CHL1   C26 3619   3.325   0.333   8.119  0.1639  0.0604 -0.2646
   49CHL1  H26A 3620   3.403   0.412   8.111  0.3472 -0.1753 -0.8646
   49CHL1  H26B 3621   3.229   0.377   8.152  1.7068  2.0708  1.8668
   49CHL1  H26C 3622   3.340   0.269   8.209 -1.7364 -0.6431 -0.3970
   49CHL1   C27 3623   3.203   0.130   8.017 -0.1566 -0.4053 -0.2886
   49CHL1  H27A 3624   3.206   0.072   8.112 -1.0646 -2.8612 -1.6570
   49CHL1  H27B 3625   3.098   0.168   8.017  0.0619  0.2402 -1.2833
   49CHL1  H27C 3626   3.220   0.060   7.932  3.1821  1.0741 -1.0078
   50CHL1    C3 3627   2.992   1.796   6.881 -0.0854 -0.1099  0.2495
   50CHL1    H3 3628   2.883   1.816   6.868 -0.4013 -1.1076  1.1907
   50CHL1    O3 3629   3.055   1.774   6.756  0.3392 -0.3998 -0.3750
   50CHL1   H3' 3630   3.145   1.801   6.778  0.5964 -1.5710  0.1102
   50CHL1    C4 3631   3.064   1.908   6.952  0.8219 -0.2133  0.3902
   50CHL1   H4A 3632   3.173   1.901   6.931  0.7602  0.6239 -0.2468
   50CHL1   H4B 3633   3.028   2.000   6.901 -0.3435 -1.1387 -0.5075
   50CHL1    C5 3634   3.038   1.924   7.102 -0.3010 -0.5777 -0.4506
   50CHL1    C6 3635   3.007   2.045   7.156  0.3331 -0.2898 -0.5230
   50CHL1    H6 3636   3.004   2.135   7.093  1.6136  0.3923  0.3374
   50CHL1    C7 3637   2.980   2.062   7.303 -0.0960  0.0293  0.1725
   50CHL1   H7A 3638   3.029   2.157   7.333  0.5227  0.5198 -2.2443
   50CHL1   H7B 3639   2.869   2.066   7.314 -0.4600  2.5004 -2.9515
   50CHL1    C8 3640   3.027   1.949   7.394 -0.0152  0.3950  0.1546
   50CHL1    H8 3641   3.135   1.958   7.418 -0.3108  1.7203  1.0829
   50CHL1   C14 3642   2.967   1.959   7.536 -0.6074 -0.8428 -0.2906
   50CHL1   H14 3643   2.861   1.939   7.511 -0.2363 -1.3603 -1.5082
   50CHL1   C15 3644   2.977   2.090   7.614  0.3375  0.7459 -1.1574
   50CHL1  H15A 3645   3.079   2.135   7.611  1.3486 -1.2116  0.8464
   50CHL1  H15B 3646   2.897   2.157   7.576 -1.9129 -1.8482 -1.3321
   50CHL1   C16 3647   2.942   2.047   7.757 -0.4350 -0.1472 -0.2254
   50CHL1  H16A 3648   3.012   2.077   7.838 -0.6335 -1.7379  0.5817
   50CHL1  H16B 3649   2.842   2.091   7.780 -0.3586 -0.3865  0.6115
   50CHL1   C17 3650   2.939   1.887   7.761 -0.5056 -0.1595  0.2482
   50CHL1   H17 3651   2.832   1.867   7.740 -0.4769 -0.1930  0.1319
   50CHL1   C13 3652   3.006   1.843   7.636 -0.3521 -0.3104 -0.1793
   50CHL1   C18 3653   3.162   1.835   7.665 -0.8475  0.5286 -0.1610
   50CHL1  H18A 3654   3.189   1.914   7.738 -1.7156 -1.1066  2.0405
   50CHL1  H18B 3655   3.194   1.741   7.714 -0.8777  0.9164  0.6099
   50CHL1  H18C 3656   3.230   1.831   7.577 -0.8552 -0.9067 -0.1210
   50CHL1   C12 3657   2.958   1.714   7.575 -0.2425  0.4758  0.4817
   50CHL1  H12A 3658   2.968   1.632   7.649 -1.8709  3.0187  3.7817
   50CHL1  H12B 3659   2.848   1.721   7.558  0.1182  1.2965 -2.0144
   50CHL1   C11 3660   3.023   1.692   7.435 -0.4711 -0.6443  0.7766
   50CHL1  H11A 3661   3.129   1.665   7.449 -0.4794 -0.2008  1.8511
   50CHL1  H11B 3662   2.976   1.600   7.394  0.5412 -0.7660 -0.1467
   50CHL1    C9 3663   2.989   1.813   7.333 -0.0882 -0.3638  0.0045
   50CHL1    H9 3664   2.878   1.810   7.321 -0.2406 -0.3817  1.2583
   50CHL1   C10 3665   3.050   1.794   7.188 -0.3443  0.8230 -0.0984
   50CHL1   C19 3666   3.202   1.756   7.200 -0.0462  0.1239  0.1595
   50CHL1  H19A 3667   3.250   1.826   7.271  0.8935 -1.1260  0.7978
   50CHL1  H19B 3668   3.201   1.650   7.232 -0.4974 -0.2646 -1.0527
   50CHL1  H19C 3669   3.258   1.760   7.104 -1.1813 -3.1384 -0.7655
   50CHL1    C1 3670   2.976   1.684   7.109 -0.8955  0.0409 -0.0747
   50CHL1   H1A 3671   2.994   1.588   7.162  0.5761  0.8651  0.9929
   50CHL1   H1B 3672   2.867   1.701   7.118 -1.2985 -2.8981  2.0645
   50CHL1    C2 3673   3.018   1.670   6.963 -0.2820 -0.1514 -0.0357
   50CHL1   H2A 3674   2.958   1.590   6.915 -2.3613  0.4390  1.4112
   50CHL1   H2B 3675   3.126   1.644   6.958 -0.3100 -1.1325  2.5881
   50CHL1   C20 3676   2.967   1.830   7.901 -0.4589  0.9569 -0.7855
   50CHL1   H20 3677   3.077   1.834   7.919 -0.2264 -0.5549 -1.7005
   50CHL1   C21 3678   2.918   1.678   7.907 -0.3726 -0.3007 -0.1143
   50CHL1  H21A 3679   2.996   1.630   7.845  2.1009  0.3830  2.2885
   50CHL1  H21B 3680   2.823   1.661   7.851  0.1115  1.2879 -1.5106
   50CHL1  H21C 3681   2.910   1.645   8.013 -1.6140  3.5392  1.1574
   50CHL1   C22 3682   2.893   1.895   8.017 -0.6199  0.4440  0.8142
   50CHL1  H22A 3683   2.906   2.005   8.027  0.2668  0.2957  1.4889
   50CHL1  H22B 3684   2.784   1.875   8.007 -0.8372  2.4421 -1.8953
   50CHL1   C23 3685   2.950   1.854   8.161 -0.0784 -0.3020  0.5901
   50CHL1  H23A 3686   2.928   1.937   8.231  0.0154  2.4131 -2.3392
   50CHL1  H23B 3687   2.895   1.763   8.192  4.1602 -3.5641 -0.4960
   50CHL1   C24 3688   3.100   1.832   8.189 -0.2198  0.1781  0.3182
   50CHL1  H24A 3689   3.116   1.810   8.297 -0.5628 -1.4480  0.0611
   50CHL1  H24B 3690   3.129   1.740   8.133  0.4367  1.0202 -0.7569
   50CHL1   C25 3691   3.196   1.949   8.146 -0.4716 -0.0278  0.0459
   50CHL1   H25 3692   3.180   1.985   8.042  0.8726  2.6418  0.6837
   50CHL1   C26 3693   3.168   2.071   8.242  0.2012  0.0161  0.3903
   50CHL1  H26A 3694   3.237   2.153   8.215  0.3181 -0.4439 -0.7590
   50CHL1  H26B 3695   3.063   2.102   8.222  0.1434 -0.4388 -0.0135
   50CHL1  H26C 3696   3.172   2.047   8.351 -1.8991 -0.8462  0.3398
   50CHL1   C27 3697   3.344   1.906   8.159 -1.1302 -0.0361  0.2695
   50CHL1  H27A 3698   3.403   1.980   8.100 -0.6271 -1.0226 -0.4905
   50CHL1  H27B 3699   3.388   1.911   8.261  1.6661  3.5553 -0.8904
   50CHL1  H27C 3700   3.370   1.810   8.110 -2.9465  0.7236 -2.4432
   51CHL1    C3 3701   1.616   6.217   6.972 -0.0138  0.1322  0.1034
   51CHL1    H3 3702   1.682   6.134   7.004 -1.9394 -1.6061 -0.2012
   51CHL1    O3 3703   1.641   6.266   6.839 -0.1140 -0.4064 -0.0059
   51CHL1   H3' 3704   1.589   6.344   6.817  1.5442  0.2337 -1.8970
   51CHL1    C4 3705   1.471   6.164   6.972 -0.5739 -0.5126  0.8445
   51CHL1   H4A 3706   1.405   6.241   6.926 -0.0689 -0.1171  0.7687
   51CHL1   H4B 3707   1.451   6.094   6.889 -0.2039  2.8082 -2.3095
   51CHL1    C5 3708   1.420   6.137   7.111  0.2952  0.3569 -0.0132
   51CHL1    C6 3709   1.370   6.013   7.133  0.4388  0.6225  0.6153
   51CHL1    H6 3710   1.365   5.938   7.053 -0.2093 -0.8420  1.9775
   51CHL1    C7 3711   1.327   5.964   7.268 -0.1090  0.2728  0.1133
   51CHL1   H7A 3712   1.226   5.917   7.270 -0.5974  1.2820 -0.2272
   51CHL1   H7B 3713   1.401   5.886   7.298  1.6688  1.8546 -0.0196
   51CHL1    C8 3714   1.321   6.071   7.371 -0.3558  0.3932 -0.4874
   51CHL1    H8 3715   1.226   6.128   7.364  0.4998  1.8042 -0.8680
   51CHL1   C14 3716   1.315   6.019   7.515 -0.2071  0.0812 -0.0571
   51CHL1   H14 3717   1.415   5.976   7.538  1.1565  2.1898 -1.6404
   51CHL1   C15 3718   1.223   5.897   7.552  0.3768 -0.2525 -0.1648
   51CHL1  H15A 3719   1.119   5.910   7.514  1.2543 -1.8206 -3.4426
   51CHL1  H15B 3720   1.265   5.807   7.502 -1.2066 -0.7897 -0.6046
   51CHL1   C16 3721   1.223   5.891   7.702 -0.4126 -0.7035  0.1849
   51CHL1  H16A 3722   1.115   5.906   7.723 -0.2410  2.0716 -0.4700
   51CHL1  H16B 3723   1.263   5.796   7.743  0.2099 -0.0506  1.1569
   51CHL1   C17 3724   1.292   6.019   7.757  0.0659 -0.7012 -0.1817
   51CHL1   H17 3725   1.397   5.989   7.776  0.6105 -0.2525 -2.2269
   51CHL1   C13 3726   1.291   6.116   7.635 -0.1847 -0.4573  0.1344
   51CHL1   C18 3727   1.155   6.191   7.619 -0.5144 -0.5522 -0.0443
   51CHL1  H18A 3728   1.071   6.119   7.629 -0.3220 -0.4870  3.0199
   51CHL1  H18B 3729   1.144   6.275   7.692 -0.8629 -0.7007  0.0743
   51CHL1  H18C 3730   1.148   6.240   7.520  0.3393  0.7216  0.4961
   51CHL1   C12 3731   1.408   6.213   7.624 -0.2786  0.2521 -0.1883
   51CHL1  H12A 3732   1.396   6.293   7.700 -1.8634  0.0746 -0.2199
   51CHL1  H12B 3733   1.500   6.155   7.644  0.4473  0.9339 -1.4020
   51CHL1   C11 3734   1.427   6.274   7.482  0.0636 -0.6733 -0.2094
   51CHL1  H11A 3735   1.341   6.344   7.476  0.3044 -0.2577  0.8728
   51CHL1  H11B 3736   1.521   6.334   7.486 -1.0599  1.1164  1.8518
   51CHL1    C9 3737   1.429   6.174   7.361 -0.8233 -0.3175 -0.5928
   51CHL1    H9 3738   1.523   6.122   7.389 -1.1406 -0.8433 -0.4769
   51CHL1   C10 3739   1.431   6.242   7.224 -0.5175  0.1211 -0.3818
   51CHL1   C19 3740   1.309   6.344   7.215  0.8812 -0.1668  0.9000
   51CHL1  H19A 3741   1.300   6.377   7.109 -1.5016  1.6769  1.5971
   51CHL1  H19B 3742   1.213   6.295   7.239 -0.0748  1.4365  0.4706
   51CHL1  H19C 3743   1.316   6.441   7.268  0.3305  0.1522  0.3982
   51CHL1    C1 3744   1.567   6.313   7.208 -0.1700 -0.4098  0.4917
   51CHL1   H1A 3745   1.567   6.413   7.257  0.4579 -0.2466  0.1736
   51CHL1   H1B 3746   1.651   6.253   7.250 -0.3974 -0.3638  1.0123
   51CHL1    C2 3747   1.610   6.342   7.065 -0.4630 -0.6452 -0.3524
   51CHL1   H2A 3748   1.716   6.377   7.062  0.8949 -3.0908  5.1876
   51CHL1   H2B 3749   1.550   6.422   7.018 -0.2032  1.4219  2.5367
   51CHL1   C20 3750   1.227   6.064   7.896  0.0905 -0.4970  0.3560
   51CHL1   H20 3751   1.124   6.092   7.866  1.0480  4.1392  0.7315
   51CHL1   C21 3752   1.283   6.202   7.946  0.9051 -0.2262 -0.3268
   51CHL1  H21A 3753   1.267   6.278   7.867 -0.5489  0.2467  0.3862
   51CHL1  H21B 3754   1.391   6.179   7.965  0.7774  0.7929  1.9860
   51CHL1  H21C 3755   1.239   6.228   8.044 -2.0103  0.9926 -1.8519
   51CHL1   C22 3756   1.223   5.949   7.995 -0.0855 -0.3032 -0.8528
   51CHL1  H22A 3757   1.154   5.976   8.078  1.8188  0.8754  0.4069
   51CHL1  H22B 3758   1.180   5.854   7.955 -1.1959 -1.0184  1.7578
   51CHL1   C23 3759   1.358   5.915   8.063  0.0163  0.4391  0.6895
   51CHL1  H23A 3760   1.434   5.891   7.986  0.2140  0.0408  1.0061
   51CHL1  H23B 3761   1.378   6.006   8.124  1.0320  0.4124  0.4097
   51CHL1   C24 3762   1.347   5.796   8.155 -0.5826  0.3836  0.1443
   51CHL1  H24A 3763   1.269   5.815   8.231  0.7223 -0.7242  1.8143
   51CHL1  H24B 3764   1.327   5.711   8.087  0.0299  0.6709 -0.4169
   51CHL1   C25 3765   1.480   5.773   8.238  0.2420  0.3409  0.3740
   51CHL1   H25 3766   1.565   5.768   8.167 -1.5467 -4.0288 -1.8728
   51CHL1   C26 3767   1.503   5.885   8.343 -0.1876 -0.2190  0.1035
   51CHL1  H26A 3768   1.514   5.983   8.291 -2.2069  0.0974  0.1782
   51CHL1  H26B 3769   1.414   5.887   8.410  0.1821 -1.7908  0.6631
   51CHL1  H26C 3770   1.594   5.869   8.404  0.6799  0.3578 -1.0140
   51CHL1   C27 3771   1.478   5.633   8.320  0.2170  0.3774  0.7051
   51CHL1  H27A 3772   1.489   5.549   8.248 -3.7647  0.6236 -0.4531
   51CHL1  H27B 3773   1.567   5.641   8.386  1.1767  1.9935 -0.6975
   51CHL1  H27C 3774   1.382   5.624   8.376 -0.5370 -3.0425 -0.9086
   52CHL1    C3 3775   5.127   0.545   7.030  0.4898  0.0404 -0.1412
   52CHL1    H3 3776   5.162   0.441   7.013  0.6277 -0.8746  4.4458
   52CHL1    O3 3777   5.136   0.610   6.906 -0.5193  0.5603  0.3087
   52CHL1   H3' 3778   5.231   0.613   6.901 -0.4229  0.0926  1.5588
   52CHL1    C4 3779   4.985   0.537   7.083 -0.6404 -0.5169  0.1221
   52CHL1   H4A 3780   4.955   0.642   7.104 -0.4858 -0.7913  1.8180
   52CHL1   H4B 3781   4.923   0.502   6.997  3.2776 -0.6565 -2.9189
   52CHL1    C5 3782   4.972   0.447   7.202 -0.1251 -0.2529  0.0209
   52CHL1    C6 3783   4.891   0.345   7.200 -0.0477  0.5561 -0.2123
   52CHL1    H6 3784   4.829   0.325   7.112  0.1137  0.0431 -0.2127
   52CHL1    C7 3785   4.875   0.252   7.316  0.4849  0.4730  0.1381
   52CHL1   H7A 3786   4.769   0.224   7.331  0.6904 -0.9838 -0.8521
   52CHL1   H7B 3787   4.942   0.166   7.292  0.6231 -0.3470  3.0638
   52CHL1    C8 3788   4.936   0.317   7.450 -0.7999 -0.3585 -0.1855
   52CHL1    H8 3789   4.873   0.401   7.486 -0.1821 -0.5673  1.5016
   52CHL1   C14 3790   4.947   0.211   7.559 -0.1163  0.0982  0.2500
   52CHL1   H14 3791   5.026   0.145   7.517 -0.2942  0.2210 -0.2819
   52CHL1   C15 3792   4.827   0.131   7.595 -0.4181  0.9718 -0.5083
   52CHL1  H15A 3793   4.743   0.195   7.628 -2.2440 -0.1022 -2.7697
   52CHL1  H15B 3794   4.774   0.074   7.515 -2.0524  1.7864 -0.0383
   52CHL1   C16 3795   4.872   0.043   7.715 -0.0226 -0.1883 -0.5427
   52CHL1  H16A 3796   4.804   0.031   7.803  2.2914  0.0583  1.3973
   52CHL1  H16B 3797   4.899  -0.060   7.684 -2.5025 -0.7873 -0.9817
   52CHL1   C17 3798   5.007   0.114   7.761 -0.1675 -0.1112 -0.4106
   52CHL1   H17 3799   5.093   0.060   7.716 -0.4001  1.2760 -2.6701
   52CHL1   C13 3800   5.007   0.253   7.693 -0.8731 -0.0130 -0.3489
   52CHL1   C18 3801   4.914   0.357   7.759 -0.4932 -0.5679  0.5727
   52CHL1  H18A 3802   4.811   0.323   7.785 -1.1764  1.6262  1.0300
   52CHL1  H18B 3803   4.959   0.386   7.857 -1.3620 -1.3146  1.2071
   52CHL1  H18C 3804   4.905   0.445   7.691  2.9038 -0.2537  0.3552
   52CHL1   C12 3805   5.146   0.311   7.665 -0.0517 -0.0347 -0.7700
   52CHL1  H12A 3806   5.194   0.352   7.756  1.9526  0.4930 -1.9846
   52CHL1  H12B 3807   5.200   0.220   7.632  1.7495  0.4637  0.6236
   52CHL1   C11 3808   5.146   0.424   7.562 -0.0194  0.5567 -0.1555
   52CHL1  H11A 3809   5.080   0.501   7.607 -2.0620 -1.4906  0.5408
   52CHL1  H11B 3810   5.249   0.463   7.544 -0.2239  0.3828 -1.8496
   52CHL1    C9 3811   5.078   0.372   7.429 -0.4665 -0.4156  0.1392
   52CHL1    H9 3812   5.137   0.285   7.393 -1.7165 -1.4865  0.6354
   52CHL1   C10 3813   5.069   0.484   7.315 -0.2410  0.3510 -0.1031
   52CHL1   C19 3814   4.996   0.608   7.374  0.5276  0.2101 -0.2131
   52CHL1  H19A 3815   5.049   0.653   7.460 -1.8231  1.7326  0.5178
   52CHL1  H19B 3816   4.987   0.697   7.309 -2.0386  1.4637  1.6669
   52CHL1  H19C 3817   4.889   0.595   7.401  0.3385  1.8945 -0.0825
   52CHL1    C1 3818   5.208   0.526   7.263 -1.1785 -0.5141  0.7962
   52CHL1   H1A 3819   5.253   0.580   7.349 -1.2552 -0.5846  0.8806
   52CHL1   H1B 3820   5.279   0.440   7.260  0.5636  0.7808  2.4659
   52CHL1    C2 3821   5.221   0.607   7.129  0.4061  0.1880  1.0203
   52CHL1   H2A 3822   5.328   0.600   7.102  0.5804  2.4491  0.9050
   52CHL1   H2B 3823   5.191   0.711   7.157 -4.0017 -0.7321  0.4064
   52CHL1   C20 3824   5.026   0.099   7.917  0.5630 -0.1264  0.0662
   52CHL1   H20 3825   4.956   0.169   7.969  1.2271 -1.1790  2.5353
   52CHL1   C21 3826   5.166   0.137   7.955 -0.2084  0.4638 -0.2189
   52CHL1  H21A 3827   5.181   0.133   8.065  0.4994  1.1620 -0.2832
   52CHL1  H21B 3828   5.186   0.244   7.934 -0.5444  0.5547 -0.0871
   52CHL1  H21C 3829   5.242   0.079   7.898  0.3097  0.3771  0.5534
   52CHL1   C22 3830   4.993  -0.045   7.973  0.3328 -0.3531  0.5826
   52CHL1  H22A 3831   4.884  -0.064   7.972  0.1453  0.5235  1.8493
   52CHL1  H22B 3832   5.057  -0.122   7.923  0.9312  0.7092 -0.3324
   52CHL1   C23 3833   5.009  -0.065   8.123 -0.7865  0.2665  0.0150
   52CHL1  H23A 3834   5.119  -0.062   8.133 -0.5108 -3.6954 -0.3923
   52CHL1  H23B 3835   4.964   0.028   8.165  1.8610  2.0287 -0.7671
   52CHL1   C24 3836   4.953  -0.188   8.188  0.2427 -0.3633 -0.1926
   52CHL1  H24A 3837   4.842  -0.186   8.175  0.3883 -0.4314 -1.6660
   52CHL1  H24B 3838   4.991  -0.275   8.130  0.5195  0.2126 -0.8943
   52CHL1   C25 3839   4.981  -0.200   8.341 -0.2830  0.5472  0.3757
   52CHL1   H25 3840   5.091  -0.194   8.355 -0.1807 -0.3043 -0.0148
   52CHL1   C26 3841   4.912  -0.091   8.430  0.3480 -0.3015 -0.2025
   52CHL1  H26A 3842   4.933  -0.118   8.536 -0.9795 -1.2024 -0.1531
   52CHL1  H26B 3843   4.954   0.010   8.411 -2.2314  1.3844  2.4205
   52CHL1  H26C 3844   4.804  -0.094   8.406  0.3530 -0.7756 -0.1756
   52CHL1   C27 3845   4.929  -0.345   8.386 -0.7046 -0.3933  0.8244
   52CHL1  H27A 3846   4.822  -0.371   8.374 -1.4771  2.7197 -0.0219
   52CHL1  H27B 3847   5.004  -0.412   8.338 -0.5324 -0.5232  1.2687
   52CHL1  H27C 3848   4.962  -0.351   8.492 -0.9676  0.7472  0.9872
   53CHL1    C3 3849   0.100   2.225   6.896 -0.4290  0.3760 -0.2358
   53CHL1    H3 3850   0.044   2.269   6.981 -0.1501  1.5287 -0.6248
   53CHL1    O3 3851   0.021   2.243   6.776 -0.7484 -0.2038 -0.4124
   53CHL1   H3' 3852   0.077   2.223   6.701 -1.2278 -1.2015 -0.5120
   53CHL1    C4 3853   0.233   2.294   6.888 -0.1447 -0.2556  0.1138
   53CHL1   H4A 3854   0.295   2.266   6.800  0.0851  1.7926 -0.4166
   53CHL1   H4B 3855   0.201   2.398   6.866 -1.1456 -0.5416  0.1463
   53CHL1    C5 3856   0.308   2.286   7.016 -0.0971  0.1349 -0.4816
   53CHL1    C6 3857   0.352   2.390   7.091 -0.9308 -0.9440 -0.7665
   53CHL1    H6 3858   0.332   2.494   7.062 -0.5201 -0.6815 -0.1345
   53CHL1    C7 3859   0.435   2.387   7.223 -0.0217  0.1153 -0.6993
   53CHL1   H7A 3860   0.524   2.453   7.229 -1.0233  1.5530 -1.0869
   53CHL1   H7B 3861   0.365   2.430   7.298 -0.7984 -1.1674 -0.6522
   53CHL1    C8 3862   0.466   2.239   7.268  0.1841  0.0307  0.5961
   53CHL1    H8 3863   0.561   2.216   7.216  0.1610  2.3748 -0.5784
   53CHL1   C14 3864   0.478   2.228   7.412 -0.0299 -0.2984 -0.5303
   53CHL1   H14 3865   0.381   2.239   7.465  0.1976  2.1659 -0.4896
   53CHL1   C15 3866   0.563   2.333   7.495  0.4618  0.2345 -0.1414
   53CHL1  H15A 3867   0.649   2.363   7.431  1.3161 -0.5767  0.6044
   53CHL1  H15B 3868   0.493   2.419   7.506 -1.5429 -1.1627 -1.3841
   53CHL1   C16 3869   0.614   2.265   7.617  0.3645 -0.4880  0.0332
   53CHL1  H16A 3870   0.725   2.258   7.623  0.2887 -0.9675  1.2586
   53CHL1  H16B 3871   0.564   2.312   7.705 -0.1209 -0.8472 -0.0470
   53CHL1   C17 3872   0.555   2.120   7.611 -0.8195 -0.3111 -0.1229
   53CHL1   H17 3873   0.453   2.129   7.656 -0.4637 -0.4115  0.7166
   53CHL1   C13 3874   0.532   2.092   7.456 -0.6206 -0.1002 -0.4982
   53CHL1   C18 3875   0.672   2.052   7.395  0.1253  0.2954 -0.1707
   53CHL1  H18A 3876   0.667   2.037   7.285  0.7025  0.5758 -0.2398
   53CHL1  H18B 3877   0.747   2.130   7.421  0.3898 -0.6626  2.1816
   53CHL1  H18C 3878   0.703   1.957   7.444 -0.3701  0.0910 -0.2427
   53CHL1   C12 3879   0.418   1.995   7.425 -1.0027 -0.4953  0.6567
   53CHL1  H12A 3880   0.433   1.890   7.459  0.1838 -1.1560 -1.6946
   53CHL1  H12B 3881   0.331   2.021   7.489 -0.6920  1.3749  0.3700
   53CHL1   C11 3882   0.367   1.999   7.280  0.1325  0.7482  0.9182
   53CHL1  H11A 3883   0.442   1.938   7.225  1.5883  1.7500  1.7281
   53CHL1  H11B 3884   0.270   1.944   7.275 -1.2320  3.1026 -0.1414
   53CHL1    C9 3885   0.354   2.141   7.215  0.0596  0.0751  0.4489
   53CHL1    H9 3886   0.260   2.171   7.265 -0.7642  3.3316 -2.5998
   53CHL1   C10 3887   0.327   2.140   7.065 -0.3477  0.6381 -0.0664
   53CHL1   C19 3888   0.443   2.072   6.992  0.3225 -0.1860  0.5377
   53CHL1  H19A 3889   0.466   1.964   7.001  0.4916 -0.6880 -3.7939
   53CHL1  H19B 3890   0.421   2.088   6.884 -0.6341 -1.1491  0.5756
   53CHL1  H19C 3891   0.541   2.114   7.025  1.2009 -1.3396 -0.5181
   53CHL1    C1 3892   0.205   2.045   7.039 -0.4344 -0.1143  0.0778
   53CHL1   H1A 3893   0.227   1.936   7.037  2.2022  0.3551 -0.5017
   53CHL1   H1B 3894   0.127   2.057   7.117  0.7958  2.3961  1.0165
   53CHL1    C2 3895   0.133   2.075   6.907 -0.5047  0.4242  0.6671
   53CHL1   H2A 3896   0.046   2.006   6.905 -1.7226  1.9249 -0.7213
   53CHL1   H2B 3897   0.184   2.037   6.816 -2.0548  0.5067 -0.2679
   53CHL1   C20 3898   0.637   2.018   7.695  0.7903  0.0330 -0.6606
   53CHL1   H20 3899   0.744   2.023   7.665  0.5682 -0.3546 -1.5458
   53CHL1   C21 3900   0.585   1.863   7.697 -0.0898 -0.1115 -0.2103
   53CHL1  H21A 3901   0.488   1.857   7.751 -1.4853 -0.0913 -2.5845
   53CHL1  H21B 3902   0.665   1.799   7.741  2.1487  2.8672  0.4121
   53CHL1  H21C 3903   0.556   1.831   7.595 -1.5303 -1.0938  0.4796
   53CHL1   C22 3904   0.642   2.058   7.849 -0.1356  0.1714  0.0908
   53CHL1  H22A 3905   0.698   1.976   7.899  0.7343  0.7226  0.0306
   53CHL1  H22B 3906   0.711   2.144   7.849 -0.7552  0.6836 -0.9865
   53CHL1   C23 3907   0.508   2.091   7.921  0.1032 -0.2233  1.0907
   53CHL1  H23A 3908   0.447   2.166   7.867 -0.7413 -1.1033  0.7953
   53CHL1  H23B 3909   0.450   1.996   7.922 -0.2655 -0.0023  1.8103
   53CHL1   C24 3910   0.550   2.127   8.068  0.4169  0.3355  0.2453
   53CHL1  H24A 3911   0.600   2.050   8.130  1.0573 -1.5265 -2.3972
   53CHL1  H24B 3912   0.631   2.202   8.053 -0.2762  1.1612  0.5756
   53CHL1   C25 3913   0.443   2.210   8.146 -0.0714 -0.5352  0.1707
   53CHL1   H25 3914   0.354   2.143   8.146  0.5206 -1.3269  0.9706
   53CHL1   C26 3915   0.471   2.241   8.290 -0.3607  0.0458 -0.3117
   53CHL1  H26A 3916   0.465   2.151   8.355  2.6820  0.1972  0.3590
   53CHL1  H26B 3917   0.578   2.269   8.299 -0.7984  1.7530 -0.1214
   53CHL1  H26C 3918   0.413   2.328   8.328 -0.3954 -0.7039  1.4410
   53CHL1   C27 3919   0.418   2.343   8.078  0.5134 -0.1903 -0.5543
   53CHL1  H27A 3920   0.516   2.395   8.070  1.0604 -0.7302  1.8514
   53CHL1  H27B 3921   0.374   2.337   7.976  0.8234  2.6915 -0.9461
   53CHL1  H27C 3922   0.351   2.407   8.140  1.6617  2.4302 -1.8701
   54CHL1    C3 3923   2.304   4.881   6.744  0.6194  0.4260 -0.6259
   54CHL1    H3 3924   2.243   4.969   6.771  2.8659  1.6168  0.8954
   54CHL1    O3 3925   2.306   4.888   6.603 -0.6026  0.3625  0.4798
   54CHL1   H3' 3926   2.220   4.858   6.575 -1.4503  2.8756  0.0668
   54CHL1    C4 3927   2.444   4.909   6.796 -0.8930  0.7068  0.1640
   54CHL1   H4A 3928   2.508   4.828   6.755  2.0612  3.1440 -0.4032
   54CHL1   H4B 3929   2.476   5.008   6.756 -1.1609  2.1476  3.1975
   54CHL1    C5 3930   2.454   4.915   6.947  1.0044 -0.1174 -0.6154
   54CHL1    C6 3931   2.493   5.018   7.019 -0.5841 -0.5508  0.0678
   54CHL1    H6 3932   2.535   5.100   6.958 -0.2249 -1.8385 -1.4649
   54CHL1    C7 3933   2.507   5.020   7.168  0.3322  0.2246 -0.4393
   54CHL1   H7A 3934   2.611   5.045   7.197  0.3686  1.3638 -1.4352
   54CHL1   H7B 3935   2.438   5.093   7.215 -1.2427 -1.6333  0.2311
   54CHL1    C8 3936   2.484   4.884   7.237 -0.0064  0.6899 -0.2397
   54CHL1    H8 3937   2.577   4.822   7.245 -0.7746 -0.2621  4.6034
   54CHL1   C14 3938   2.438   4.913   7.376  0.7367  0.8569  0.4954
   54CHL1   H14 3939   2.344   4.971   7.358 -1.6316 -2.1622  2.1698
   54CHL1   C15 3940   2.524   5.007   7.465 -0.2046  0.3439 -0.1464
   54CHL1  H15A 3941   2.629   4.971   7.452 -0.5475  0.0626 -2.6411
   54CHL1  H15B 3942   2.527   5.115   7.439  0.2345  0.2969 -0.3097
   54CHL1   C16 3943   2.467   4.973   7.607 -0.4399 -0.2692  0.3231
   54CHL1  H16A 3944   2.549   4.948   7.678 -0.1884  0.8723  0.4409
   54CHL1  H16B 3945   2.410   5.062   7.639  0.3577 -0.3101  1.9688
   54CHL1   C17 3946   2.365   4.860   7.601 -0.2077  0.0055 -0.1795
   54CHL1   H17 3947   2.268   4.912   7.585  0.9695  2.4284  0.2352
   54CHL1   C13 3948   2.394   4.793   7.463 -0.1267 -0.4966 -0.4670
   54CHL1   C18 3949   2.517   4.705   7.485 -0.0968  0.1170 -0.6405
   54CHL1  H18A 3950   2.495   4.608   7.533 -0.3574  0.1209 -0.7498
   54CHL1  H18B 3951   2.557   4.671   7.387  2.1502  0.4426  0.0928
   54CHL1  H18C 3952   2.591   4.759   7.548 -2.1753 -0.3586  2.4223
   54CHL1   C12 3953   2.283   4.727   7.385 -0.4568  0.5883  0.5620
   54CHL1  H12A 3954   2.237   4.639   7.434 -2.4304  0.6684 -1.0013
   54CHL1  H12B 3955   2.198   4.798   7.376 -0.7505  0.0678 -0.9995
   54CHL1   C11 3956   2.322   4.681   7.242  0.2152  0.0652 -0.6347
   54CHL1  H11A 3957   2.397   4.599   7.250 -0.2330 -0.2251  1.1446
   54CHL1  H11B 3958   2.237   4.635   7.187  0.9542  0.4783 -2.1709
   54CHL1    C9 3959   2.374   4.803   7.168 -0.5906  0.0558  0.0665
   54CHL1    H9 3960   2.286   4.871   7.180  0.3622  1.0981  1.6805
   54CHL1   C10 3961   2.393   4.783   7.014 -0.2153  0.0729  0.3836
   54CHL1   C19 3962   2.493   4.668   6.997  0.4102 -0.4550 -0.7754
   54CHL1  H19A 3963   2.454   4.570   7.029  2.5610 -0.8701  0.7994
   54CHL1  H19B 3964   2.536   4.647   6.896  1.8192 -0.4374 -0.1957
   54CHL1  H19C 3965   2.582   4.691   7.060 -1.7237  0.6521  2.0270
   54CHL1    C1 3966   2.254   4.754   6.957 -0.0836  0.3779  0.2342
   54CHL1   H1A 3967   2.216   4.652   6.981 -0.1864  0.3565 -0.0117
   54CHL1   H1B 3968   2.183   4.836   6.980  1.7418  3.1428 -3.1005
   54CHL1    C2 3969   2.236   4.755   6.797 -0.2261 -0.1928 -1.0304
   54CHL1   H2A 3970   2.133   4.748   6.756 -0.5278 -0.1187 -0.3019
   54CHL1   H2B 3971   2.275   4.664   6.746  0.5626  0.9235 -2.4859
   54CHL1   C20 3972   2.356   4.783   7.732 -0.3079 -0.3306  0.5977
   54CHL1   H20 3973   2.447   4.729   7.763 -1.7835 -3.6082 -0.3053
   54CHL1   C21 3974   2.252   4.673   7.706  0.2899  0.5450 -0.4320
   54CHL1  H21A 3975   2.301   4.593   7.647  1.5542  0.2580  0.9556
   54CHL1  H21B 3976   2.161   4.712   7.655 -0.6237  1.2857  1.6271
   54CHL1  H21C 3977   2.203   4.635   7.799 -6.0884  1.8062 -2.7702
   54CHL1   C22 3978   2.327   4.868   7.856 -0.3780  0.2638 -0.2244
   54CHL1  H22A 3979   2.407   4.946   7.857 -0.5059  0.3958 -0.2127
   54CHL1  H22B 3980   2.230   4.916   7.834  1.0171  2.4851 -2.0067
   54CHL1   C23 3981   2.331   4.803   7.995 -1.0297  0.8840 -0.9713
   54CHL1  H23A 3982   2.274   4.707   7.996  1.4313 -0.7143 -2.1931
   54CHL1  H23B 3983   2.435   4.764   7.999 -0.7024  1.8360  1.2294
   54CHL1   C24 3984   2.316   4.896   8.114  0.0354 -0.2883 -0.5577
   54CHL1  H24A 3985   2.368   4.991   8.087 -2.3269  0.9754 -0.9824
   54CHL1  H24B 3986   2.210   4.929   8.123  0.2437  0.3825 -0.4669
   54CHL1   C25 3987   2.358   4.841   8.249  0.0686  0.1914  0.3309
   54CHL1   H25 3988   2.459   4.797   8.236 -0.2258 -0.8818  1.5863
   54CHL1   C26 3989   2.365   4.954   8.350 -0.4868  0.0076  0.0259
   54CHL1  H26A 3990   2.294   5.035   8.325 -0.5484  0.4426  1.5562
   54CHL1  H26B 3991   2.361   4.920   8.455  0.0557  0.5145  0.2140
   54CHL1  H26C 3992   2.466   5.000   8.337  0.2381 -1.3574  0.6325
   54CHL1   C27 3993   2.265   4.731   8.300 -0.6407  0.2380 -0.2161
   54CHL1  H27A 3994   2.180   4.777   8.356 -0.0212  0.7995  0.2823
   54CHL1  H27B 3995   2.236   4.660   8.220 -1.6419  0.5872 -0.1834
   54CHL1  H27C 3996   2.321   4.684   8.384 -2.1791  1.8047  1.8034
   55CHL1    C3 3997   3.940   5.933   6.795  0.3836  0.3559  0.0804
   55CHL1    H3 3998   3.834   5.909   6.776 -0.8229  3.0162  2.7090
   55CHL1    O3 3999   4.026   5.897   6.683 -0.1570  0.6670  0.0315
   55CHL1   H3' 4000   4.112   5.898   6.726  0.1584  2.8516 -0.5288
   55CHL1    C4 4001   3.953   6.086   6.829 -0.4961 -0.1228 -0.0333
   55CHL1   H4A 4002   4.061   6.106   6.842 -0.1481 -1.0175 -1.3215
   55CHL1   H4B 4003   3.917   6.143   6.740 -0.5807  0.5930  0.4560
   55CHL1    C5 4004   3.872   6.117   6.951 -0.1371 -0.5772  0.4766
   55CHL1    C6 4005   3.782   6.215   6.947 -0.6554 -0.4066  0.4212
   55CHL1    H6 4006   3.775   6.280   6.858  0.0582  0.0410  0.6780
   55CHL1    C7 4007   3.698   6.256   7.070  0.8441 -0.4606  0.6442
   55CHL1   H7A 4008   3.693   6.367   7.081  1.2021  0.0425 -2.9483
   55CHL1   H7B 4009   3.595   6.217   7.056 -0.1831  2.6219 -1.7054
   55CHL1    C8 4010   3.759   6.198   7.201 -0.2192 -0.1542 -0.0833
   55CHL1    H8 4011   3.850   6.260   7.216 -0.8317  0.4095  1.4844
   55CHL1   C14 4012   3.662   6.222   7.315  0.6843 -0.6875 -0.0297
   55CHL1   H14 4013   3.580   6.150   7.293 -0.2027 -0.2187  1.5651
   55CHL1   C15 4014   3.602   6.361   7.337  0.5956 -0.2593 -0.2536
   55CHL1  H15A 4015   3.672   6.446   7.323  0.6180 -0.4472 -1.3575
   55CHL1  H15B 4016   3.516   6.369   7.266 -2.0661 -3.3900  2.2879
   55CHL1   C16 4017   3.558   6.349   7.481  0.1323 -0.0620  0.5954
   55CHL1  H16A 4018   3.602   6.437   7.531 -2.1067  0.6650  1.4142
   55CHL1  H16B 4019   3.447   6.349   7.481  0.1257  1.2591  0.4863
   55CHL1   C17 4020   3.614   6.221   7.545 -0.8178  0.0837  0.1814
   55CHL1   H17 4021   3.537   6.142   7.541 -2.1403  1.2010  1.9464
   55CHL1   C13 4022   3.726   6.176   7.444 -0.4864 -0.5004 -0.3143
   55CHL1   C18 4023   3.855   6.265   7.466  0.2449 -0.2568 -0.5483
   55CHL1  H18A 4024   3.843   6.365   7.418 -0.1951 -0.7473 -1.4807
   55CHL1  H18B 4025   3.886   6.273   7.572  3.1563  0.1322 -1.3359
   55CHL1  H18C 4026   3.939   6.216   7.411  2.3763  2.8541 -0.3521
   55CHL1   C12 4027   3.756   6.031   7.445  0.3718  0.8095 -0.1038
   55CHL1  H12A 4028   3.814   6.002   7.535  1.3805  1.1577 -0.6283
   55CHL1  H12B 4029   3.660   5.975   7.445  0.7781  0.0627 -1.8450
   55CHL1   C11 4030   3.840   5.992   7.323  0.5439  0.1585 -0.2195
   55CHL1  H11A 4031   3.943   6.028   7.343  0.2399  0.5043  0.7726
   55CHL1  H11B 4032   3.836   5.881   7.315 -0.8397  0.1610  0.1364
   55CHL1    C9 4033   3.800   6.051   7.186  0.0194  0.4909  0.1512
   55CHL1    H9 4034   3.706   6.000   7.155 -0.2869  0.1073  1.6184
   55CHL1   C10 4035   3.899   6.025   7.074 -0.0407 -0.5582  0.2543
   55CHL1   C19 4036   4.043   6.057   7.116 -0.1627 -0.1840 -0.0149
   55CHL1  H19A 4037   4.055   6.165   7.138  3.0016 -0.6812  1.1352
   55CHL1  H19B 4038   4.077   5.997   7.202  2.0414 -0.5749 -1.0871
   55CHL1  H19C 4039   4.116   6.046   7.033 -1.8946  1.7084 -1.9259
   55CHL1    C1 4040   3.893   5.883   7.030 -0.1340  0.9933  0.3792
   55CHL1   H1A 4041   3.918   5.824   7.121 -0.9773  0.1656  0.0901
   55CHL1   H1B 4042   3.788   5.855   7.006 -0.1979  1.0218  0.6199
   55CHL1    C2 4043   3.986   5.850   6.913  0.0309 -0.4800  0.0257
   55CHL1   H2A 4044   3.982   5.743   6.881  1.3308 -0.9717  1.3786
   55CHL1   H2B 4045   4.093   5.861   6.938  0.0340 -0.6643  0.0983
   55CHL1   C20 4046   3.657   6.241   7.697 -0.3784 -0.5430  0.1603
   55CHL1   H20 4047   3.747   6.305   7.705 -0.7100 -0.1647  0.9330
   55CHL1   C21 4048   3.678   6.108   7.766 -0.2335  0.4167 -0.6314
   55CHL1  H21A 4049   3.772   6.053   7.741 -1.6010 -1.8941 -0.9515
   55CHL1  H21B 4050   3.594   6.041   7.737  1.0508 -1.1894 -0.8072
   55CHL1  H21C 4051   3.677   6.113   7.876 -1.9256 -0.7525 -0.5612
   55CHL1   C22 4052   3.541   6.320   7.771 -0.5343  0.1809  0.4459
   55CHL1  H22A 4053   3.537   6.421   7.725 -0.8012  0.5057  1.1707
   55CHL1  H22B 4054   3.444   6.274   7.743 -1.0531  1.2040  0.5060
   55CHL1   C23 4055   3.536   6.335   7.928  0.0729  0.3434 -0.7261
   55CHL1  H23A 4056   3.518   6.229   7.957  2.9071  0.5144  2.1600
   55CHL1  H23B 4057   3.631   6.371   7.974  0.5618 -1.5943 -0.1150
   55CHL1   C24 4058   3.428   6.443   7.972  0.0263 -0.4044 -0.3940
   55CHL1  H24A 4059   3.445   6.540   7.919  0.2357 -0.8122 -1.0803
   55CHL1  H24B 4060   3.328   6.409   7.939 -0.9191  0.1686  1.7326
   55CHL1   C25 4061   3.409   6.462   8.125 -0.7554  0.3627  0.5045
   55CHL1   H25 4062   3.508   6.487   8.169 -1.1032  2.8214  0.0481
   55CHL1   C26 4063   3.334   6.591   8.147  0.2749  0.4006 -0.4811
   55CHL1  H26A 4064   3.228   6.583   8.113 -0.2191  2.4644  0.4195
   55CHL1  H26B 4065   3.320   6.621   8.253 -1.3272 -1.0925 -0.2157
   55CHL1  H26C 4066   3.383   6.677   8.097 -0.1529  0.8509 -0.1447
   55CHL1   C27 4067   3.343   6.342   8.193 -0.1279  0.4335 -0.7905
   55CHL1  H27A 4068   3.233   6.345   8.176 -0.4539  1.1365  1.1880
   55CHL1  H27B 4069   3.382   6.242   8.165  0.1205  1.1062 -3.0394
   55CHL1  H27C 4070   3.342   6.344   8.304 -1.6831 -0.7197 -0.7411
   56CHL1    C3 4071   1.759   3.875   6.968  0.9334  0.2075 -0.0075
   56CHL1    H3 4072   1.695   3.785   6.957 -0.2236  0.7242  1.9643
   56CHL1    O3 4073   1.816   3.895   6.845 -0.2472  0.5507 -0.2058
   56CHL1   H3' 4074   1.860   3.980   6.842  1.4880 -0.3370 -1.2792
   56CHL1    C4 4075   1.655   3.994   7.003  0.1215  0.4348  0.9194
   56CHL1   H4A 4076   1.705   4.092   6.995 -2.4578  2.0002  2.5742
   56CHL1   H4B 4077   1.579   3.998   6.923 -1.4127  0.1109  2.2981
   56CHL1    C5 4078   1.603   3.964   7.150  0.0958 -1.2613  0.5153
   56CHL1    C6 4079   1.470   3.957   7.186  0.3625 -0.6712  0.4281
   56CHL1    H6 4080   1.385   3.968   7.117  1.9205 -1.1543 -1.6662
   56CHL1    C7 4081   1.422   3.954   7.330 -0.3215  0.1644 -0.0195
   56CHL1   H7A 4082   1.329   4.012   7.346 -0.8439 -0.0473 -2.0395
   56CHL1   H7B 4083   1.392   3.848   7.344 -1.5472  0.6321  0.9985
   56CHL1    C8 4084   1.541   3.996   7.432  0.3374  0.0631 -0.1182
   56CHL1    H8 4085   1.548   4.106   7.419  1.2722  0.0787  0.4356
   56CHL1   C14 4086   1.496   3.963   7.565 -0.2159  0.1227  0.1013
   56CHL1   H14 4087   1.505   3.852   7.564  0.1833  0.1170 -2.9192
   56CHL1   C15 4088   1.351   3.991   7.610 -0.4550 -0.5949  0.5691
   56CHL1  H15A 4089   1.332   4.100   7.615 -1.2918 -0.7281  0.4540
   56CHL1  H15B 4090   1.261   3.958   7.552 -1.6570  1.6964  1.0127
   56CHL1   C16 4091   1.355   3.947   7.753  0.1559  0.1209 -0.6744
   56CHL1  H16A 4092   1.273   4.004   7.801 -0.4511 -0.7791 -0.6277
   56CHL1  H16B 4093   1.331   3.839   7.760 -1.4692  0.5370  1.3272
   56CHL1   C17 4094   1.505   3.969   7.802  0.3519  0.6715  0.1270
   56CHL1   H17 4095   1.555   3.870   7.816  0.7422  0.8683  0.1315
   56CHL1   C13 4096   1.591   4.014   7.677  0.9324 -0.3905 -0.1239
   56CHL1   C18 4097   1.605   4.171   7.673  0.0804 -0.3431  0.5400
   56CHL1  H18A 4098   1.646   4.209   7.577 -0.6079 -0.8647  0.0259
   56CHL1  H18B 4099   1.510   4.228   7.683  1.7211  2.2388  2.6193
   56CHL1  H18C 4100   1.675   4.206   7.751  0.3133  0.3220  0.0422
   56CHL1   C12 4101   1.732   3.938   7.666  0.2434 -0.8519  0.3191
   56CHL1  H12A 4102   1.813   3.995   7.715  1.3081  0.0332 -2.2960
   56CHL1  H12B 4103   1.729   3.832   7.701 -3.4376 -0.6490  1.0751
   56CHL1   C11 4104   1.778   3.953   7.515 -0.8066 -0.1179  0.2429
   56CHL1  H11A 4105   1.808   4.060   7.508  1.7589 -0.8562 -1.4043
   56CHL1  H11B 4106   1.872   3.895   7.500 -0.4708  0.5566 -0.3339
   56CHL1    C9 4107   1.672   3.921   7.404  1.2428  0.5613  0.3530
   56CHL1    H9 4108   1.654   3.811   7.403  1.1268  0.5721 -0.8493
   56CHL1   C10 4109   1.715   3.949   7.263  0.2063 -0.5357 -1.0641
   56CHL1   C19 4110   1.796   4.078   7.264 -1.1643  0.2030  0.2595
   56CHL1  H19A 4111   1.818   4.123   7.164  0.6560 -0.5694  0.2795
   56CHL1  H19B 4112   1.765   4.167   7.323 -0.3195  1.7668 -1.5241
   56CHL1  H19C 4113   1.899   4.059   7.302 -1.4220 -3.6346 -0.6393
   56CHL1    C1 4114   1.802   3.828   7.215  0.3196 -0.4297  0.1274
   56CHL1   H1A 4115   1.889   3.817   7.282 -0.6435  1.6605  1.8159
   56CHL1   H1B 4116   1.733   3.741   7.208 -0.2777  0.1086 -1.0062
   56CHL1    C2 4117   1.864   3.847   7.077 -0.8920  0.8948  0.3455
   56CHL1   H2A 4118   1.896   3.742   7.056 -2.4670  0.5243 -0.3529
   56CHL1   H2B 4119   1.944   3.923   7.064  0.4211 -0.6105 -1.0326
   56CHL1   C20 4120   1.513   4.043   7.932 -0.6432 -0.5566  0.1684
   56CHL1   H20 4121   1.489   4.149   7.908  1.9468 -0.3172 -1.8541
   56CHL1   C21 4122   1.657   4.026   7.991  0.1610 -0.5798  0.1329
   56CHL1  H21A 4123   1.672   4.090   8.081 -1.8677 -0.0731  0.1670
   56CHL1  H21B 4124   1.741   4.050   7.923 -0.0569  0.2927  0.1529
   56CHL1  H21C 4125   1.665   3.923   8.031  0.3613 -0.1007  1.3970
   56CHL1   C22 4126   1.414   3.985   8.027  0.1100  0.5202 -0.1334
   56CHL1  H22A 4127   1.309   4.008   7.999  0.8895  0.2825 -3.6892
   56CHL1  H22B 4128   1.425   3.875   8.025 -0.7936  0.4350 -0.5502
   56CHL1   C23 4129   1.426   4.031   8.168 -0.1554 -0.3687 -0.2191
   56CHL1  H23A 4130   1.344   3.980   8.223  0.6466 -0.8162  0.5899
   56CHL1  H23B 4131   1.529   4.010   8.204  0.4756 -0.0037 -1.7581
   56CHL1   C24 4132   1.402   4.181   8.197  0.0573  0.2725  0.1848
   56CHL1  H24A 4133   1.490   4.227   8.148 -0.9896 -0.3485 -2.4196
   56CHL1  H24B 4134   1.310   4.214   8.144 -0.7805  0.8900  1.9472
   56CHL1   C25 4135   1.395   4.226   8.342  0.2395 -0.4858  0.1001
   56CHL1   H25 4136   1.303   4.183   8.387 -0.6338  2.4929  1.4003
   56CHL1   C26 4137   1.519   4.179   8.421 -0.2117  0.2675 -0.0837
   56CHL1  H26A 4138   1.610   4.229   8.380 -0.7337  0.0522 -1.5771
   56CHL1  H26B 4139   1.550   4.073   8.414  2.1732  0.8155  0.9993
   56CHL1  H26C 4140   1.511   4.205   8.528  0.9442 -0.6757  0.2505
   56CHL1   C27 4141   1.376   4.377   8.363 -0.8428 -0.6149  0.5820
   56CHL1  H27A 4142   1.445   4.440   8.303  0.1060 -2.0967  0.0699
   56CHL1  H27B 4143   1.271   4.396   8.332 -0.2326  2.9727  0.3193
   56CHL1  H27C 4144   1.383   4.398   8.472  1.1870 -0.1206  0.3865
   57SAPC     N 4145   4.238   1.705  11.061  0.1854  0.0384 -0.2834
   57SAPC   C12 4146   4.243   1.844  10.999  0.2634 -0.0921  0.3008
   57SAPC  H12A 4147   4.331   1.893  11.040 -0.3905  0.8421  0.6153
   57SAPC  H12B 4148   4.166   1.911  11.032  1.4924  0.5638  1.9859
   57SAPC   C13 4149   4.095   1.649  11.033 -0.5829 -0.5052  0.7923
   57SAPC  H13A 4150   4.085   1.545  11.058 -0.6969 -0.6097  0.3107
   57SAPC  H13B 4151   4.015   1.709  11.074 -0.8948  0.1014 -0.6572
   57SAPC  H13C 4152   4.080   1.660  10.927 -3.2184 -2.0610  0.9236
   57SAPC   C14 4153   4.345   1.619  11.012 -0.0489  0.6077 -0.1305
   57SAPC  H14A 4154   4.326   1.609  10.906 -0.1534  0.9104 -0.1400
   57SAPC  H14B 4155   4.441   1.666  11.028 -0.2500  0.7724  0.6037
   57SAPC  H14C 4156   4.349   1.522  11.060 -1.5231  0.4146 -0.3474
   57SAPC   C15 4157   4.241   1.713  11.210  0.2144 -0.3133 -0.6795
   57SAPC  H15A 4158   4.167   1.785  11.243 -0.5168 -0.6745 -1.4883
   57SAPC  H15B 4159   4.211   1.623  11.261 -0.3477  0.0874 -0.2788
   57SAPC  H15C 4160   4.338   1.737  11.251  0.4051 -0.2807 -1.1399
   57SAPC   C11 4161   4.261   1.848  10.848 -0.7529 -0.6656 -0.1932
   57SAPC  H11A 4162   4.360   1.806  10.820  0.1854  1.0003  0.5048
   57SAPC  H11B 4163   4.279   1.952  10.812 -0.2805 -0.8775 -0.5768
   57SAPC     P 4164   4.027   1.878  10.758  0.0163  0.0448  1.0216
   57SAPC   O13 4165   3.930   1.805  10.668 -0.1226  0.0085  0.2124
   57SAPC   O14 4166   3.976   1.930  10.887  0.3631 -0.0696  0.4763
   57SAPC   O12 4167   4.158   1.788  10.772 -0.3271  0.2456 -0.5406
   57SAPC   O11 4168   4.090   1.996  10.673 -0.0860  0.3704 -0.2647
   57SAPC    C1 4169   4.158   1.968  10.548 -0.3640  0.3792 -0.0914
   57SAPC    HA 4170   4.247   1.902  10.555  0.8279  1.6476 -2.0146
   57SAPC    HB 4171   4.088   1.914  10.481 -0.5996 -1.1291  1.3293
   57SAPC    C2 4172   4.208   2.099  10.474  0.1370  0.6807 -0.0265
   57SAPC    HS 4173   4.116   2.154  10.444  1.4446  3.2607  0.4066
   57SAPC   O21 4174   4.296   2.075  10.368 -0.6878 -0.2075  0.1736
   57SAPC   C21 4175   4.246   2.066  10.247 -0.2141 -0.4006  0.1258
   57SAPC   O22 4176   4.129   2.051  10.215 -0.0674 -0.1577 -0.0028
   57SAPC   C22 4177   4.368   2.085  10.152 -0.3387  0.1288 -0.8956
   57SAPC   H2R 4178   4.428   2.173  10.182 -0.9540  0.9446 -1.9975
   57SAPC   H2S 4179   4.440   2.003  10.171  0.5745  0.8966 -0.9931
   57SAPC    C3 4180   4.287   2.190  10.584  0.6473  0.6981  0.0861
   57SAPC    HX 4181   4.353   2.121  10.642  0.8779  1.1745  0.4013
   57SAPC    HY 4182   4.210   2.228  10.654  0.9311  0.1958  0.6827
   57SAPC   O31 4183   4.358   2.301  10.520 -0.1941 -0.3833 -0.2159
   57SAPC   C31 4184   4.295   2.405  10.469  0.4050 -0.9239 -0.1782
   57SAPC   O32 4185   4.173   2.423  10.470 -0.2360 -0.1733  0.0169
   57SAPC   C32 4186   4.385   2.493  10.392  0.7065 -0.0226  0.3780
   57SAPC   H2X 4187   4.485   2.451  10.371  0.4615  0.4501 -2.0500
   57SAPC   H2Y 4188   4.395   2.587  10.450  0.8770  0.4969 -0.4815
   57SAPC   C23 4189   4.330   2.089  10.000  0.1959 -0.4370  0.4833
   57SAPC   H3R 4190   4.285   2.189   9.983 -1.4515 -0.8705  1.9932
   57SAPC   H3S 4191   4.248   2.016   9.985  1.0455 -1.8934  2.4073
   57SAPC   C24 4192   4.450   2.044   9.915  0.3258  0.6935 -0.1940
   57SAPC   H4R 4193   4.417   2.021   9.812  0.4598  0.5924 -0.2149
   57SAPC   H4S 4194   4.483   1.944   9.950  1.3747  0.2160 -2.3794
   57SAPC   C25 4195   4.557   2.149   9.896 -0.0890  0.0156  0.3116
   57SAPC   H5R 4196   4.631   2.133   9.976 -1.4198 -2.9844  1.1034
   57SAPC   C26 4197   4.564   2.250   9.800 -0.5337 -0.1521 -0.2031
   57SAPC   H6R 4198   4.656   2.310   9.802 -0.0035 -0.9085 -1.1656
   57SAPC   C27 4199   4.468   2.282   9.692 -0.2001  0.1609 -0.7396
   57SAPC   H7R 4200   4.436   2.388   9.701  2.5492  1.0286 -0.1709
   57SAPC   H7S 4201   4.376   2.222   9.705 -0.6476  1.2146  1.3512
   57SAPC   C28 4202   4.538   2.254   9.556  0.9219  0.2617 -0.0187
   57SAPC   H8R 4203   4.625   2.188   9.560 -0.8370 -2.1847  0.5207
   57SAPC   C29 4204   4.505   2.304   9.438 -0.0653 -0.3213 -0.2223
   57SAPC   H9R 4205   4.555   2.254   9.353 -0.1050 -1.5836  0.4741
   57SAPC  C210 4206   4.390   2.402   9.401  0.3541  0.2465  0.3209
   57SAPC  H10R 4207   4.361   2.480   9.475 -0.4059  2.3857 -2.0503
   57SAPC  H10S 4208   4.300   2.340   9.378  0.5831  0.3597 -0.9541
   57SAPC  C211 4209   4.430   2.498   9.293 -0.0966  0.2450 -0.7237
   57SAPC  H11R 4210   4.481   2.585   9.337 -2.0984  0.3100  1.7404
   57SAPC  C212 4211   4.411   2.482   9.160 -0.3094  0.2049 -0.2134
   57SAPC  H12R 4212   4.463   2.563   9.108  1.3191 -0.4281  0.3690
   57SAPC  C213 4213   4.352   2.359   9.094  0.4352 -0.1296  0.5876
   57SAPC  H13R 4214   4.286   2.402   9.016 -0.5814 -0.8709  1.0120
   57SAPC  H13S 4215   4.283   2.292   9.150 -0.4956 -1.9169 -2.4951
   57SAPC  C214 4216   4.458   2.280   9.032 -0.2497  0.0691 -0.3949
   57SAPC  H14R 4217   4.555   2.292   9.083  0.9084  1.2716 -2.7227
   57SAPC  C215 4218   4.456   2.214   8.920  0.7412 -0.5608 -0.3304
   57SAPC  H15R 4219   4.553   2.169   8.892  0.5501 -0.2144 -1.6352
   57SAPC  C216 4220   4.345   2.199   8.820  1.1025  0.3682  0.4995
   57SAPC  H16R 4221   4.255   2.262   8.839  0.4143 -0.4222 -0.0705
   57SAPC  H16S 4222   4.299   2.098   8.823 -0.5124  1.0135 -0.8882
   57SAPC  C217 4223   4.387   2.242   8.687 -0.1404  0.2629  0.7697
   57SAPC  H17R 4224   4.439   2.340   8.684 -1.7027  1.0835 -0.2501
   57SAPC  H17S 4225   4.298   2.242   8.621  2.4236  1.2583 -3.0904
   57SAPC  C218 4226   4.474   2.143   8.602  0.7270 -0.0950 -0.3345
   57SAPC  H18R 4227   4.443   2.037   8.618  0.0623  0.2914  1.0955
   57SAPC  H18S 4228   4.576   2.138   8.647 -0.1827 -0.3627  1.8417
   57SAPC  C219 4229   4.474   2.182   8.452  0.5031  0.2167 -0.5001
   57SAPC  H19R 4230   4.489   2.292   8.447  2.6468  0.0178  0.4525
   57SAPC  H19S 4231   4.374   2.161   8.407  1.0121 -2.5798 -0.4450
   57SAPC  C220 4232   4.587   2.120   8.368  0.1959  0.5531  0.1988
   57SAPC  H20R 4233   4.585   2.010   8.385 -0.1762  0.3553 -1.0160
   57SAPC  H20S 4234   4.682   2.154   8.415  1.7519 -0.9080 -1.7241
   57SAPC  H20T 4235   4.582   2.139   8.259 -0.1771 -0.0496  0.1038
   57SAPC   C33 4236   4.324   2.544  10.254 -0.8226  0.5615  0.4684
   57SAPC   H3X 4237   4.237   2.607  10.283 -1.1260  0.4394 -0.1638
   57SAPC   H3Y 4238   4.285   2.464  10.188 -1.7519  1.9474 -0.7431
   57SAPC   C34 4239   4.420   2.624  10.164  0.4312 -0.1340 -0.8011
   57SAPC   H4X 4240   4.519   2.573  10.158  0.6684 -0.2894  2.7490
   57SAPC   H4Y 4241   4.441   2.717  10.220 -1.0901 -0.4008  0.2604
   57SAPC   C35 4242   4.365   2.667  10.023  0.4151  0.1318 -0.4184
   57SAPC   H5X 4243   4.453   2.728   9.993  1.0844 -0.9231 -0.6571
   57SAPC   H5Y 4244   4.281   2.738  10.041 -0.1015 -0.0902 -1.7979
   57SAPC   C36 4245   4.340   2.561   9.921  0.2007  0.0993  0.4357
   57SAPC   H6X 4246   4.259   2.486   9.934  0.4747 -0.2009  0.4182
   57SAPC   H6Y 4247   4.436   2.507   9.908 -0.6112 -1.1779 -0.5955
   57SAPC   C37 4248   4.304   2.627   9.783 -0.3454  0.4185 -0.3886
   57SAPC   H7X 4249   4.267   2.540   9.724 -0.2667  0.8061 -1.0126
   57SAPC   H7Y 4250   4.394   2.671   9.735 -0.0494 -0.0113 -0.2426
   57SAPC   C38 4251   4.178   2.716   9.797 -0.1784 -0.2246 -0.2143
   57SAPC   H8X 4252   4.195   2.795   9.874 -1.5666 -1.8586  1.9039
   57SAPC   H8Y 4253   4.094   2.664   9.847  0.0156 -1.2728 -0.9533
   57SAPC   C39 4254   4.148   2.776   9.663  0.6060  0.3977 -0.2047
   57SAPC   H9X 4255   4.234   2.838   9.629 -1.2228  1.9691 -2.2891
   57SAPC   H9Y 4256   4.068   2.854   9.663  0.4371  0.3792 -3.7579
   57SAPC  C310 4257   4.108   2.683   9.540  0.3535 -0.0713  0.8685
   57SAPC  H10X 4258   4.008   2.642   9.568 -1.8285  3.9015 -0.3727
   57SAPC  H10Y 4259   4.178   2.601   9.512 -2.2475 -2.8531  1.9051
   57SAPC  C311 4260   4.096   2.759   9.405  0.4269 -0.5349  0.5744
   57SAPC  H11X 4261   4.174   2.838   9.404  0.9734 -1.0323  1.7304
   57SAPC  H11Y 4262   3.997   2.810   9.397 -0.0006 -1.4026  0.2219
   57SAPC  C312 4263   4.109   2.678   9.275 -0.4929 -0.1341  0.0542
   57SAPC  H12X 4264   4.040   2.594   9.297  0.1256 -0.5477  0.4766
   57SAPC  H12Y 4265   4.211   2.633   9.273 -1.0243 -1.3641 -0.8274
   57SAPC  C313 4266   4.078   2.752   9.142  1.1345  0.0639 -0.9588
   57SAPC  H13X 4267   4.127   2.851   9.130  2.1918  0.1028  2.7232
   57SAPC  H13Y 4268   3.970   2.778   9.144  1.0409 -0.3671 -0.0263
   57SAPC  C314 4269   4.086   2.658   9.016  0.4669  0.1383 -0.7835
   57SAPC  H14X 4270   4.020   2.570   9.033  2.0264 -0.8466  0.4923
   57SAPC  H14Y 4271   4.191   2.622   9.010  0.0658 -1.0291 -1.1370
   57SAPC  C315 4272   4.041   2.732   8.883  0.3373 -0.9785 -0.3115
   57SAPC  H15X 4273   4.110   2.816   8.865  2.0298 -1.5457  2.7041
   57SAPC  H15Y 4274   3.943   2.779   8.908  1.2811  1.5635 -1.1564
   57SAPC  C316 4275   4.042   2.642   8.764  0.5722 -0.3955  0.3414
   57SAPC  H16X 4276   3.999   2.701   8.680 -0.2587 -0.6341  0.5893
   57SAPC  H16Y 4277   3.969   2.558   8.774 -0.6271  0.6456  0.5919
   57SAPC  C317 4278   4.184   2.590   8.731  0.2472  0.2809 -0.4644
   57SAPC  H17X 4279   4.216   2.510   8.801 -0.4746 -0.9874 -1.5348
   57SAPC  H17Y 4280   4.248   2.680   8.747  1.3805 -0.6989  0.7304
   57SAPC  C318 4281   4.196   2.550   8.584  0.0047 -0.0889 -0.1446
   57SAPC  H18X 4282   4.187   2.644   8.525 -0.7212  0.1071  0.2663
   57SAPC  H18Y 4283   4.103   2.493   8.564 -2.7835  1.2411  6.2815
   57SAPC  H18Z 4284   4.287   2.491   8.558 -0.2591 -0.7012  0.2780
   58SAPC     N 4285   5.567   2.216  11.145 -0.3287  0.1959 -0.6822
   58SAPC   C12 4286   5.506   2.120  11.048 -0.0141 -0.0694  0.1921
   58SAPC  H12A 4287   5.463   2.184  10.973 -1.0571 -0.3429  0.5507
   58SAPC  H12B 4288   5.427   2.065  11.096 -0.2777 -1.2933 -1.5461
   58SAPC   C13 4289   5.467   2.305  11.210  0.2251 -0.3617  0.2411
   58SAPC  H13A 4290   5.375   2.255  11.237 -1.6924  1.8601 -1.7252
   58SAPC  H13B 4291   5.505   2.351  11.300  1.9928 -1.3377  0.0515
   58SAPC  H13C 4292   5.442   2.388  11.145 -2.6344 -1.1801  0.1576
   58SAPC   C14 4293   5.631   2.139  11.258  0.9407 -0.1265  0.4051
   58SAPC  H14A 4294   5.672   2.205  11.334 -0.4841 -1.1213  2.1287
   58SAPC  H14B 4295   5.563   2.073  11.310  1.8107 -1.0384  0.4193
   58SAPC  H14C 4296   5.716   2.082  11.224  1.9715  2.1273 -1.0359
   58SAPC   C15 4297   5.675   2.303  11.097 -0.5031  0.1705 -0.4783
   58SAPC  H15A 4298   5.741   2.236  11.045  0.1812  0.9173 -0.5842
   58SAPC  H15B 4299   5.634   2.373  11.025  0.8396  0.7190 -0.7408
   58SAPC  H15C 4300   5.717   2.367  11.173  0.7906  0.9684 -1.8126
   58SAPC   C11 4301   5.607   2.022  10.975  0.5465  0.3452  0.2233
   58SAPC  H11A 4302   5.555   1.930  10.940 -1.2569  0.8298  1.4664
   58SAPC  H11B 4303   5.684   1.975  11.040  2.0369  0.3479 -1.4496
   58SAPC     P 4304   5.626   2.100  10.726  0.0283 -0.1928 -0.1547
   58SAPC   O13 4305   5.506   2.179  10.728  0.1267 -0.5032 -0.3055
   58SAPC   O14 4306   5.736   2.156  10.647 -0.2919 -0.3481  0.2419
   58SAPC   O12 4307   5.678   2.087  10.870  0.0576 -0.5702  0.5627
   58SAPC   O11 4308   5.587   1.947  10.684 -0.0822 -0.6149  1.3546
   58SAPC    C1 4309   5.694   1.856  10.648 -0.1098  0.2290  0.0308
   58SAPC    HA 4310   5.777   1.897  10.709 -3.0137  3.0262  2.4765
   58SAPC    HB 4311   5.671   1.755  10.688  1.2471 -0.1122  0.0012
   58SAPC    C2 4312   5.738   1.871  10.501  0.2826 -0.3949  0.5523
   58SAPC    HS 4313   5.762   1.979  10.493 -2.0388  0.1810  0.6305
   58SAPC   O21 4314   5.646   1.828  10.401 -0.1467  0.1934 -0.0496
   58SAPC   C21 4315   5.564   1.926  10.361  0.0764  0.2516 -0.3413
   58SAPC   O22 4316   5.573   2.043  10.387  0.0196  0.2741  0.3904
   58SAPC   C22 4317   5.457   1.872  10.265 -0.4135 -0.4243  0.7951
   58SAPC   H2R 4318   5.406   1.787  10.314  1.7014 -1.0413  2.0519
   58SAPC   H2S 4319   5.391   1.961  10.255  0.4095  0.3315  1.8503
   58SAPC    C3 4320   5.872   1.787  10.482  0.2894 -0.5384  0.4855
   58SAPC    HX 4321   5.845   1.680  10.470 -1.3697 -0.2006  1.0569
   58SAPC    HY 4322   5.932   1.802  10.574 -0.2773  0.4696  0.7039
   58SAPC   O31 4323   5.949   1.826  10.365 -0.8487 -0.1822  0.0087
   58SAPC   C31 4324   5.989   1.956  10.356 -0.0556  0.0265 -0.0634
   58SAPC   O32 4325   5.998   2.033  10.450  0.1525  0.2273 -0.0140
   58SAPC   C32 4326   6.032   1.996  10.212 -0.1601  0.7796 -0.7523
   58SAPC   H2X 4327   5.977   1.930  10.142 -0.4887 -1.3947  1.4251
   58SAPC   H2Y 4328   6.137   1.963  10.203  0.2997  2.0181 -0.1663
   58SAPC   C23 4329   5.512   1.838  10.126  0.1227 -0.1336  0.6893
   58SAPC   H3R 4330   5.568   1.742  10.130 -1.9319 -1.8442 -3.9087
   58SAPC   H3S 4331   5.584   1.913  10.086  1.0084 -1.0869  0.4639
   58SAPC   C24 4332   5.394   1.831  10.021 -0.3377 -0.0037  0.1577
   58SAPC   H4R 4333   5.368   1.937   9.998  3.0637  0.6259 -1.3840
   58SAPC   H4S 4334   5.313   1.781  10.078 -0.5210  0.7475  0.5733
   58SAPC   C25 4335   5.439   1.756   9.897  0.0303  0.4446  0.7440
   58SAPC   H5R 4336   5.534   1.702   9.913  1.3629  2.2525 -0.6226
   58SAPC   C26 4337   5.374   1.751   9.777  0.0013  0.5676  0.3254
   58SAPC   H6R 4338   5.415   1.691   9.695  2.0913 -0.5403  2.0562
   58SAPC   C27 4339   5.247   1.829   9.753  0.1289  0.1546  0.6948
   58SAPC   H7R 4340   5.269   1.934   9.724 -0.6573  0.4685  1.2070
   58SAPC   H7S 4341   5.191   1.838   9.848  0.8135 -1.0414  1.2456
   58SAPC   C28 4342   5.158   1.767   9.647 -0.7008 -0.6391 -0.2191
   58SAPC   H8R 4343   5.071   1.713   9.686 -1.3498 -1.8653 -3.1040
   58SAPC   C29 4344   5.184   1.746   9.521  0.8367  0.3585  0.4766
   58SAPC   H9R 4345   5.104   1.707   9.457 -0.3469  2.2568  0.7212
   58SAPC  C210 4346   5.306   1.806   9.451  0.7132  0.3520 -0.1561
   58SAPC  H10R 4347   5.369   1.866   9.520  3.5615  1.6886 -3.6367
   58SAPC  H10S 4348   5.278   1.873   9.367  0.6972  0.5438  0.0013
   58SAPC  C211 4349   5.408   1.711   9.403  0.0627  0.4844  0.1156
   58SAPC  H11R 4350   5.478   1.674   9.480  1.6097  0.1110 -1.4101
   58SAPC  C212 4351   5.413   1.652   9.283 -0.3624 -0.2620  0.0413
   58SAPC  H12R 4352   5.479   1.564   9.281  0.7246  0.4650  1.5048
   58SAPC  C213 4353   5.325   1.663   9.156 -0.2083  0.5016 -0.8873
   58SAPC  H13R 4354   5.238   1.730   9.176 -0.6912 -0.5491  0.7014
   58SAPC  H13S 4355   5.284   1.561   9.149  1.1886 -0.2827  1.3908
   58SAPC  C214 4356   5.412   1.695   9.034 -0.2452 -0.0756 -0.3023
   58SAPC  H14R 4357   5.467   1.614   8.985  0.6196  0.6626 -0.5729
   58SAPC  C215 4358   5.396   1.803   8.959 -0.3884  0.2730  0.3229
   58SAPC  H15R 4359   5.480   1.819   8.889  0.3630 -0.5133  1.0222
   58SAPC  C216 4360   5.302   1.915   8.993  0.0950 -0.9335  0.0010
   58SAPC  H16R 4361   5.230   1.906   9.077 -1.1870 -0.5004 -1.0089
   58SAPC  H16S 4362   5.227   1.934   8.914  0.3875  1.9079  0.3015
   58SAPC  C217 4363   5.368   2.054   9.029  0.7706  0.0103 -0.1351
   58SAPC  H17R 4364   5.439   2.024   9.108 -0.1964  0.9517  1.1460
   58SAPC  H17S 4365   5.300   2.130   9.073  0.6669  0.6382 -1.3313
   58SAPC  C218 4366   5.452   2.112   8.908  0.2111 -0.1815 -0.7740
   58SAPC  H18R 4367   5.519   2.036   8.863 -1.6248 -1.0406 -2.1927
   58SAPC  H18S 4368   5.520   2.188   8.953 -0.9769  0.4804 -0.0354
   58SAPC  C219 4369   5.364   2.180   8.800 -0.2319  0.4545 -0.3082
   58SAPC  H19R 4370   5.302   2.263   8.840 -1.1360  0.2409 -1.2274
   58SAPC  H19S 4371   5.288   2.100   8.784 -0.0721 -0.0098  1.0866
   58SAPC  C220 4372   5.427   2.226   8.665 -0.1855 -0.4486 -0.4632
   58SAPC  H20R 4373   5.515   2.284   8.700 -1.8644  2.5587 -0.8941
   58SAPC  H20S 4374   5.366   2.299   8.608 -0.8165 -1.6624 -1.4113
   58SAPC  H20T 4375   5.469   2.138   8.611 -0.4847 -1.0187  0.2109
   58SAPC   C33 4376   6.017   2.148  10.185  0.5390 -0.1913 -0.1369
   58SAPC   H3X 4377   6.069   2.214  10.257  0.5982  1.2462 -1.4643
   58SAPC   H3Y 4378   5.911   2.166  10.213  1.3243  1.2019  2.2333
   58SAPC   C34 4379   6.040   2.187  10.036 -0.1393  0.0069 -0.8315
   58SAPC   H4X 4380   6.122   2.128   9.991 -2.2377 -1.4471 -3.0169
   58SAPC   H4Y 4381   6.049   2.298  10.033 -1.1586  0.1723  0.6511
   58SAPC   C35 4382   5.921   2.154   9.942 -0.3743  0.5539  0.5057
   58SAPC   H5X 4383   5.820   2.177   9.983 -0.7102  0.8265 -0.4346
   58SAPC   H5Y 4384   5.928   2.046   9.918  1.7127  0.7737 -0.0939
   58SAPC   C36 4385   5.946   2.214   9.806 -0.1142 -0.1901  0.2683
   58SAPC   H6X 4386   6.052   2.182   9.794 -0.1350 -0.1062 -0.1356
   58SAPC   H6Y 4387   5.935   2.324   9.814 -0.3119 -0.1694 -0.3019
   58SAPC   C37 4388   5.866   2.163   9.685  0.3106 -0.4254  0.2020
   58SAPC   H7X 4389   5.762   2.194   9.710  1.6973  3.4308  2.0132
   58SAPC   H7Y 4390   5.867   2.052   9.684  4.3998 -0.5297  0.4677
   58SAPC   C38 4391   5.920   2.232   9.560  0.0489 -0.1159  0.3968
   58SAPC   H8X 4392   6.015   2.191   9.518  0.1233  0.0212  0.4297
   58SAPC   H8Y 4393   5.941   2.336   9.590 -1.1667  0.3772 -0.4032
   58SAPC   C39 4394   5.822   2.219   9.441 -0.0500  0.5960  0.1199
   58SAPC   H9X 4395   5.719   2.253   9.465 -0.2293 -0.7076  1.3764
   58SAPC   H9Y 4396   5.818   2.117   9.397 -2.4129  1.6176 -2.3031
   58SAPC  C310 4397   5.872   2.308   9.327  0.1228  1.0593 -0.1309
   58SAPC  H10X 4398   5.983   2.301   9.321  0.1461  1.7837 -0.7511
   58SAPC  H10Y 4399   5.848   2.413   9.354 -0.5228  0.8988 -0.0636
   58SAPC  C311 4400   5.796   2.289   9.193 -0.0509  0.3012 -0.2856
   58SAPC  H11X 4401   5.687   2.304   9.210 -0.1149  0.1103 -0.5288
   58SAPC  H11Y 4402   5.809   2.182   9.167 -0.9396 -0.2632  1.4124
   58SAPC  C312 4403   5.846   2.391   9.081 -0.1906 -0.3068 -0.1805
   58SAPC  H12X 4404   5.852   2.493   9.126  0.0918  0.4937 -1.9205
   58SAPC  H12Y 4405   5.777   2.390   8.994 -0.0260 -1.8433 -0.3095
   58SAPC  C313 4406   5.993   2.363   9.031 -0.4596  0.2361 -0.6159
   58SAPC  H13X 4407   6.042   2.305   9.112 -2.2178 -0.0377  0.2999
   58SAPC  H13Y 4408   6.048   2.459   9.034 -1.5088  0.9644 -2.6285
   58SAPC  C314 4409   6.005   2.295   8.896 -0.5041  0.1882  0.0061
   58SAPC  H14X 4410   5.987   2.358   8.806 -1.1242  2.8415  1.8822
   58SAPC  H14Y 4411   5.936   2.208   8.895  1.9671 -1.8789 -0.5449
   58SAPC  C315 4412   6.138   2.222   8.868 -0.0567  0.0901  0.3429
   58SAPC  H15X 4413   6.145   2.141   8.944 -0.6664 -2.8078 -2.4990
   58SAPC  H15Y 4414   6.225   2.289   8.885 -0.4671  0.3832  1.3672
   58SAPC  C316 4415   6.145   2.165   8.724 -0.1154 -0.0744  0.8375
   58SAPC  H16X 4416   6.145   2.253   8.656  0.4238 -0.1526  0.7275
   58SAPC  H16Y 4417   6.052   2.106   8.712  0.0454 -0.2498  0.4309
   58SAPC  C317 4418   6.274   2.081   8.694  0.9936  0.6269 -0.1471
   58SAPC  H17X 4419   6.348   2.121   8.766 -0.8331  3.1779  0.4498
   58SAPC  H17Y 4420   6.305   2.090   8.588 -0.0299  4.6310 -0.2574
   58SAPC  C318 4421   6.242   1.934   8.727  0.2752 -0.1266  0.7256
   58SAPC  H18X 4422   6.157   1.908   8.661  1.2294 -0.3812 -0.4383
   58SAPC  H18Y 4423   6.221   1.905   8.832 -1.0555 -0.2376  0.4351
   58SAPC  H18Z 4424   6.332   1.875   8.698  0.5727  1.5631 -2.2428
   59SAPC     N 4425   6.716   3.709  11.322 -0.3654  0.2468 -0.1091
   59SAPC   C12 4426   6.831   3.765  11.239  0.2938  0.7334  0.4917
   59SAPC  H12A 4427   6.919   3.737  11.295  1.5390  0.3887 -1.5447
   59SAPC  H12B 4428   6.837   3.872  11.241  4.0563  0.6548  1.1943
   59SAPC   C13 4429   6.695   3.784  11.453 -0.2902 -0.2884 -0.2699
   59SAPC  H13A 4430   6.782   3.803  11.513 -2.1727  0.9493  2.2582
   59SAPC  H13B 4431   6.645   3.876  11.425  1.3985 -0.1303 -3.1793
   59SAPC  H13C 4432   6.624   3.733  11.516  1.2585 -1.7941  0.3302
   59SAPC   C14 4433   6.589   3.716  11.240 -0.5948  0.0665 -0.3813
   59SAPC  H14A 4434   6.605   3.655  11.153 -2.7385 -1.1211 -0.0021
   59SAPC  H14B 4435   6.504   3.684  11.298 -1.5737  2.2543 -0.5172
   59SAPC  H14C 4436   6.570   3.818  11.211  1.2470  1.4425  2.7061
   59SAPC   C15 4437   6.726   3.563  11.357 -0.0952 -0.5444 -0.6924
   59SAPC  H15A 4438   6.800   3.542  11.434  0.2049 -1.9235 -1.3311
   59SAPC  H15B 4439   6.627   3.531  11.386 -0.3280  2.6836  2.8481
   59SAPC  H15C 4440   6.767   3.510  11.272 -0.5695  0.6824 -1.7234
   59SAPC   C11 4441   6.864   3.710  11.093 -0.4065  0.7418  0.5394
   59SAPC  H11A 4442   6.865   3.599  11.098  3.6044  0.5479 -0.9057
   59SAPC  H11B 4443   6.972   3.737  11.087 -0.5016  0.7509 -3.5899
   59SAPC     P 4444   6.798   3.924  10.968  0.0209 -0.5309 -0.2680
   59SAPC   O13 4445   6.764   3.999  11.090  0.0607 -0.3435  0.1797
   59SAPC   O14 4446   6.936   3.954  10.922 -1.0193  0.0845 -0.3318
   59SAPC   O12 4447   6.784   3.766  10.987 -0.2763  0.0948 -0.6458
   59SAPC   O11 4448   6.707   3.967  10.852  0.1066  0.1769  0.7488
   59SAPC    C1 4449   6.583   3.896  10.836  0.6053 -0.2223  0.4780
   59SAPC    HA 4450   6.604   3.792  10.802 -0.9247 -0.2059 -0.6487
   59SAPC    HB 4451   6.524   3.904  10.930  1.0744  0.2572  0.7345
   59SAPC    C2 4452   6.496   3.960  10.718 -0.4347 -0.2541 -0.0743
   59SAPC    HS 4453   6.403   3.900  10.711  0.8727 -2.2351 -1.2792
   59SAPC   O21 4454   6.570   3.974  10.598  0.0216  0.1842  0.2544
   59SAPC   C21 4455   6.588   3.868  10.519  0.9146  0.4724 -0.1320
   59SAPC   O22 4456   6.543   3.756  10.548 -0.1447 -0.1321 -0.0657
   59SAPC   C22 4457   6.671   3.902  10.389 -0.7954  0.9426 -0.6096
   59SAPC   H2R 4458   6.618   3.973  10.323  1.3709  2.3229 -0.9626
   59SAPC   H2S 4459   6.765   3.945  10.429 -1.4001  1.7166  0.0275
   59SAPC    C3 4460   6.452   4.099  10.766  0.3497  0.4405 -0.5593
   59SAPC    HX 4461   6.541   4.160  10.792  0.5361 -0.4449  1.0166
   59SAPC    HY 4462   6.394   4.090  10.861 -0.8274 -1.0186 -1.3663
   59SAPC   O31 4463   6.348   4.150  10.683 -0.1594 -0.5639 -0.1763
   59SAPC   C31 4464   6.361   4.279  10.649  0.0723  0.8464 -0.1071
   59SAPC   O32 4465   6.417   4.362  10.713  0.1215  0.0815 -0.2152
   59SAPC   C32 4466   6.299   4.296  10.510 -0.0216  0.3567  0.0467
   59SAPC   H2X 4467   6.312   4.400  10.471 -1.6298  0.1995 -0.9926
   59SAPC   H2Y 4468   6.190   4.293  10.529 -0.4161  1.0381 -1.8315
   59SAPC   C23 4469   6.722   3.782  10.299  0.5499  0.0954 -0.4496
   59SAPC   H3R 4470   6.636   3.711  10.296  0.3083  0.3802 -0.2613
   59SAPC   H3S 4471   6.806   3.728  10.348  0.1660 -0.6308 -0.5738
   59SAPC   C24 4472   6.758   3.830  10.158 -0.4859  0.0135  0.6991
   59SAPC   H4R 4473   6.841   3.900  10.182  0.1125  0.0421 -1.3112
   59SAPC   H4S 4474   6.676   3.895  10.121 -0.1384  1.1383  1.8002
   59SAPC   C25 4475   6.805   3.720  10.068 -0.9494  0.1858  0.1717
   59SAPC   H5R 4476   6.833   3.629  10.123  1.4698  1.5083  1.2965
   59SAPC   C26 4477   6.825   3.742   9.933  0.5086  0.8916 -0.5783
   59SAPC   H6R 4478   6.859   3.653   9.877 -0.2675  0.3599 -0.2199
   59SAPC   C27 4479   6.802   3.864   9.847 -1.3256 -0.0628  0.4418
   59SAPC   H7R 4480   6.894   3.926   9.843 -0.4260 -1.4155 -0.5643
   59SAPC   H7S 4481   6.732   3.926   9.907  0.0580 -0.5439  2.6845
   59SAPC   C28 4482   6.733   3.831   9.716 -0.4007 -0.8608 -0.3360
   59SAPC   H8R 4483   6.639   3.778   9.737 -0.1564 -1.8529 -1.6118
   59SAPC   C29 4484   6.766   3.866   9.597 -0.7474 -0.2705  0.9842
   59SAPC   H9R 4485   6.696   3.834   9.519 -0.2446  0.2923  0.2932
   59SAPC  C210 4486   6.884   3.942   9.540 -0.1780 -0.7419 -0.2163
   59SAPC  H10R 4487   6.951   3.978   9.621 -1.0668  1.4961 -0.4189
   59SAPC  H10S 4488   6.846   4.036   9.495 -0.8021 -0.8304  0.1230
   59SAPC  C211 4489   6.968   3.851   9.445 -0.1064 -0.5210 -0.0542
   59SAPC  H11R 4490   7.060   3.807   9.486 -0.7602 -1.9412 -0.0492
   59SAPC  C212 4491   6.951   3.848   9.311  0.2650 -0.4231  0.1271
   59SAPC  H12R 4492   7.024   3.801   9.243 -0.9043  0.7936 -2.0795
   59SAPC  C213 4493   6.837   3.925   9.240  0.4264 -0.1270 -0.8119
   59SAPC  H13R 4494   6.750   3.934   9.309  2.0096  0.7479  1.1995
   59SAPC  H13S 4495   6.801   3.865   9.154 -0.2237  1.4988 -1.7123
   59SAPC  C214 4496   6.876   4.067   9.205  1.6027 -0.1427 -0.3119
   59SAPC  H14R 4497   6.905   4.124   9.294 -2.7628  0.3870  0.9791
   59SAPC  C215 4498   6.904   4.121   9.079 -0.2008 -0.3687 -0.4478
   59SAPC  H15R 4499   6.944   4.223   9.077  0.7341 -0.6383  1.9498
   59SAPC  C216 4500   6.885   4.053   8.942 -0.2180  0.6697 -0.1224
   59SAPC  H16R 4501   6.784   4.012   8.920  0.8148 -1.4899 -1.1500
   59SAPC  H16S 4502   6.952   3.964   8.946 -1.7210 -0.6358 -2.1445
   59SAPC  C217 4503   6.934   4.131   8.826  1.0941  0.1495  0.9568
   59SAPC  H17R 4504   7.002   4.215   8.853  0.3725  0.3314  2.2662
   59SAPC  H17S 4505   6.849   4.184   8.776  0.2547 -1.8096  0.2150
   59SAPC  C218 4506   7.005   4.051   8.715 -0.8244  0.1595  1.1766
   59SAPC  H18R 4507   6.937   3.970   8.683  0.2213 -0.1320 -0.4095
   59SAPC  H18S 4508   7.096   3.997   8.750 -0.7777 -1.2295 -0.9558
   59SAPC  C219 4509   7.057   4.139   8.597  0.5550 -0.4269  0.0938
   59SAPC  H19R 4510   6.978   4.202   8.552  0.0766 -0.4986  0.8106
   59SAPC  H19S 4511   7.087   4.079   8.508 -0.9997 -1.1665  0.0231
   59SAPC  C220 4512   7.172   4.228   8.631  0.3301  0.0236  0.1022
   59SAPC  H20R 4513   7.137   4.312   8.696  0.2819  0.1701 -0.1132
   59SAPC  H20S 4514   7.220   4.279   8.545  0.5006  0.5968  0.5279
   59SAPC  H20T 4515   7.255   4.180   8.688  0.3695 -0.2299 -0.1699
   59SAPC   C33 4516   6.340   4.190  10.402  0.1491  0.2683  0.9440
   59SAPC   H3X 4517   6.269   4.207  10.319  0.2197 -0.8487  0.6535
   59SAPC   H3Y 4518   6.324   4.086  10.437 -0.1442  0.0633  0.2040
   59SAPC   C34 4519   6.486   4.217  10.342 -0.8113  0.1219  0.3242
   59SAPC   H4X 4520   6.570   4.174  10.401 -1.3541  2.0475  2.6205
   59SAPC   H4Y 4521   6.495   4.327  10.334  2.3598  0.0102  0.7128
   59SAPC   C35 4522   6.497   4.146  10.202  0.2609 -0.6433 -0.3291
   59SAPC   H5X 4523   6.449   4.046  10.211  0.8133 -0.9899 -1.1159
   59SAPC   H5Y 4524   6.607   4.133  10.194  0.4769 -1.8395  3.0485
   59SAPC   C36 4525   6.424   4.211  10.078 -0.3475 -0.7135  0.0374
   59SAPC   H6X 4526   6.462   4.315  10.066 -0.4486 -0.5693  0.9285
   59SAPC   H6Y 4527   6.316   4.211  10.100 -0.3448  0.1863  0.0873
   59SAPC   C37 4528   6.461   4.136   9.948 -0.8053  0.0102 -0.4555
   59SAPC   H7X 4529   6.396   4.048   9.929  0.5035 -0.8448 -1.1207
   59SAPC   H7Y 4530   6.556   4.081   9.965  0.3725  1.5451 -1.8260
   59SAPC   C38 4531   6.487   4.226   9.825  0.5959  0.1101  0.6223
   59SAPC   H8X 4532   6.573   4.292   9.848  0.1943  1.4850 -1.5799
   59SAPC   H8Y 4533   6.393   4.284   9.816  0.3000 -0.4987 -0.3320
   59SAPC   C39 4534   6.512   4.147   9.692 -0.1360 -0.2139 -0.3122
   59SAPC   H9X 4535   6.417   4.100   9.659  0.7495 -1.0765 -1.7543
   59SAPC   H9Y 4536   6.588   4.068   9.705 -1.0613 -0.8523  1.5643
   59SAPC  C310 4537   6.539   4.245   9.579  0.4463 -0.2413 -0.8816
   59SAPC  H10X 4538   6.636   4.298   9.592 -1.4540  3.4683 -0.5084
   59SAPC  H10Y 4539   6.461   4.324   9.581  1.3143  0.6281 -0.2519
   59SAPC  C311 4540   6.543   4.196   9.433 -0.5125  0.3879  0.6554
   59SAPC  H11X 4541   6.482   4.103   9.428 -1.8469  1.2865 -0.8573
   59SAPC  H11Y 4542   6.648   4.174   9.407 -1.2819 -3.2891  0.0812
   59SAPC  C312 4543   6.499   4.300   9.326 -0.9551  0.1543 -0.6961
   59SAPC  H12X 4544   6.566   4.386   9.349  0.4093 -0.9246 -0.5678
   59SAPC  H12Y 4545   6.394   4.327   9.353 -0.1442 -0.6940  4.2608
   59SAPC  C313 4546   6.522   4.246   9.183  0.4319 -0.4053  0.5010
   59SAPC  H13X 4547   6.451   4.161   9.172 -0.6187  0.6870 -1.8140
   59SAPC  H13Y 4548   6.623   4.200   9.175  1.4364  1.5719  0.9928
   59SAPC  C314 4549   6.495   4.352   9.071 -0.8579 -0.5724 -0.4076
   59SAPC  H14X 4550   6.572   4.430   9.086  0.1311 -1.5932 -0.0174
   59SAPC  H14Y 4551   6.401   4.409   9.084  0.5225  1.4439  1.4829
   59SAPC  C315 4552   6.508   4.296   8.926 -0.2403  0.8205 -0.2019
   59SAPC  H15X 4553   6.436   4.213   8.912 -0.0993  1.0615 -2.8123
   59SAPC  H15Y 4554   6.615   4.270   8.908 -0.6542 -1.9598  0.9397
   59SAPC  C316 4555   6.471   4.399   8.820  0.6476 -0.0384 -0.3015
   59SAPC  H16X 4556   6.502   4.501   8.848  1.5505  0.2372 -2.1852
   59SAPC  H16Y 4557   6.361   4.396   8.800  0.5275  0.2461  0.2797
   59SAPC  C317 4558   6.528   4.367   8.683  0.3665  0.0523  0.6032
   59SAPC  H17X 4559   6.639   4.357   8.679  0.2284 -1.2306 -0.8708
   59SAPC  H17Y 4560   6.512   4.454   8.616  0.8465 -0.0398  0.3609
   59SAPC  C318 4561   6.475   4.245   8.610  0.4281  0.5358 -0.0183
   59SAPC  H18X 4562   6.489   4.153   8.672  0.3658  0.8440  0.4563
   59SAPC  H18Y 4563   6.523   4.224   8.512 -0.3894 -0.3963 -0.2413
   59SAPC  H18Z 4564   6.366   4.252   8.593  0.6282 -1.1321 -2.4908
   60SAPC     N 4565   1.385   1.676  10.927 -0.3971 -0.2554  0.2949
   60SAPC   C12 4566   1.410   1.667  10.783  0.2547  0.6601  0.2654
   60SAPC  H12A 4567   1.358   1.586  10.733  0.7241 -0.5761  1.6955
   60SAPC  H12B 4568   1.512   1.640  10.760  1.1676  1.6900  2.8004
   60SAPC   C13 4569   1.380   1.543  10.992 -0.6419 -0.0071  0.3454
   60SAPC  H13A 4570   1.478   1.500  10.979  1.1479  3.7628 -0.0620
   60SAPC  H13B 4571   1.350   1.556  11.095 -0.8051 -1.2894  0.4682
   60SAPC  H13C 4572   1.307   1.480  10.945 -1.8943 -0.1063  2.3024
   60SAPC   C14 4573   1.487   1.760  10.994  1.0729  0.2848 -0.5894
   60SAPC  H14A 4574   1.465   1.769  11.100 -0.5640 -0.2969 -0.8601
   60SAPC  H14B 4575   1.588   1.720  10.989 -0.1249 -2.9695 -0.6891
   60SAPC  H14C 4576   1.491   1.862  10.958  1.6338  0.6871  0.5386
   60SAPC   C15 4577   1.246   1.745  10.942  0.3252 -0.7096  0.0984
   60SAPC  H15A 4578   1.253   1.844  10.899 -0.8112 -0.5509  0.2532
   60SAPC  H15B 4579   1.165   1.691  10.896 -0.3678 -0.4589  0.9919
   60SAPC  H15C 4580   1.222   1.759  11.046 -0.3115 -3.2282  0.3623
   60SAPC   C11 4581   1.372   1.786  10.690  0.5882  0.2060  0.6713
   60SAPC  H11A 4582   1.261   1.796  10.684  0.6605  0.3147 -1.1484
   60SAPC  H11B 4583   1.403   1.743  10.592 -0.5365  1.8428 -0.4577
   60SAPC     P 4584   1.585   1.923  10.671 -0.1491  0.1877  0.1938
   60SAPC   O13 4585   1.651   2.031  10.745 -0.3834 -0.2219  0.4237
   60SAPC   O14 4586   1.650   1.794  10.680 -0.1199  0.5560  0.1402
   60SAPC   O12 4587   1.437   1.906  10.729  0.1772 -0.2622 -0.4995
   60SAPC   O11 4588   1.568   1.960  10.524  0.0524 -0.1545 -0.5502
   60SAPC    C1 4589   1.488   2.074  10.477 -0.6648  0.5924  0.3231
   60SAPC    HA 4590   1.496   2.163  10.542 -3.4894  2.8165 -2.0586
   60SAPC    HB 4591   1.530   2.118  10.384  1.7421  3.5489  2.6227
   60SAPC    C2 4592   1.336   2.034  10.458 -0.5270 -0.7652 -0.0685
   60SAPC    HS 4593   1.303   1.990  10.554  0.0579 -0.8917  0.0739
   60SAPC   O21 4594   1.327   1.939  10.350  0.2210 -0.1033  0.7400
   60SAPC   C21 4595   1.217   1.873  10.356  0.2781  0.4698 -0.3609
   60SAPC   O22 4596   1.121   1.899  10.427  0.1386 -0.0481  1.0553
   60SAPC   C22 4597   1.220   1.743  10.280  0.2243 -0.6386  0.1495
   60SAPC   H2R 4598   1.290   1.673  10.330 -1.3739 -2.3492  0.0895
   60SAPC   H2S 4599   1.124   1.690  10.293  0.6039 -1.0945  1.2171
   60SAPC    C3 4600   1.244   2.161  10.446  0.2547  0.6140  0.0235
   60SAPC    HX 4601   1.247   2.218  10.541  2.2299 -1.1756  1.1137
   60SAPC    HY 4602   1.135   2.142  10.447 -0.2881  3.2110 -1.0324
   60SAPC   O31 4603   1.278   2.234  10.328  0.1359  0.0539 -0.0071
   60SAPC   C31 4604   1.184   2.228  10.230 -0.5823  0.1925  0.5062
   60SAPC   O32 4605   1.076   2.176  10.243  0.5356  0.1155 -0.5870
   60SAPC   C32 4606   1.238   2.289  10.099  0.0529 -0.2075 -0.8468
   60SAPC   H2X 4607   1.350   2.289  10.103  0.0100 -0.3276  1.4705
   60SAPC   H2Y 4608   1.202   2.393  10.098  1.7612  0.4964  1.4484
   60SAPC   C23 4609   1.243   1.785  10.132 -0.4533 -0.1175  0.5299
   60SAPC   H3R 4610   1.292   1.694  10.091 -1.7927  0.2997 -2.2219
   60SAPC   H3S 4611   1.307   1.874  10.118 -0.7405 -0.0124 -0.1420
   60SAPC   C24 4612   1.111   1.803  10.055  0.4325 -0.0563 -0.4877
   60SAPC   H4R 4613   1.056   1.888  10.101 -2.7892 -1.2225 -1.8671
   60SAPC   H4S 4614   1.046   1.713  10.065 -1.8553  1.3624 -1.7315
   60SAPC   C25 4615   1.139   1.827   9.911 -0.5724  0.4481  0.2101
   60SAPC   H5R 4616   1.156   1.932   9.885  2.1962  0.1997  0.7025
   60SAPC   C26 4617   1.175   1.725   9.829 -0.0058  1.0854  0.0317
   60SAPC   H6R 4618   1.202   1.757   9.728  0.4643  0.8892  0.0936
   60SAPC   C27 4619   1.187   1.573   9.857 -0.1226  0.2146  0.4283
   60SAPC   H7R 4620   1.151   1.554   9.961  0.9131 -0.1558  0.7303
   60SAPC   H7S 4621   1.292   1.537   9.864  0.4271  1.4075 -1.1173
   60SAPC   C28 4622   1.108   1.486   9.757  0.4592  0.0041 -0.0379
   60SAPC   H8R 4623   1.028   1.535   9.700 -0.2820 -0.6189  0.4600
   60SAPC   C29 4624   1.129   1.359   9.722  0.8483 -0.2562  1.0289
   60SAPC   H9R 4625   1.058   1.323   9.646  1.2069  2.0623 -0.5104
   60SAPC  C210 4626   1.239   1.263   9.762  0.1997 -0.2207 -0.1346
   60SAPC  H10R 4627   1.188   1.192   9.831  0.0379  2.0798  2.2587
   60SAPC  H10S 4628   1.316   1.312   9.824 -1.2821  1.5754  0.3535
   60SAPC  C211 4629   1.297   1.179   9.647  0.4425 -0.7227 -0.7113
   60SAPC  H11R 4630   1.241   1.085   9.634 -1.8197  0.3485  0.6301
   60SAPC  C212 4631   1.395   1.206   9.553  0.2258  0.1668 -0.1604
   60SAPC  H12R 4632   1.423   1.132   9.478 -0.0415  0.4624 -0.5572
   60SAPC  C213 4633   1.470   1.340   9.538  0.3543  0.7113 -0.2154
   60SAPC  H13R 4634   1.574   1.322   9.505  0.1675  0.1923 -0.5437
   60SAPC  H13S 4635   1.473   1.387   9.639 -0.9262 -1.2279  0.8041
   60SAPC  C214 4636   1.402   1.439   9.444 -0.4846  0.1777  0.5420
   60SAPC  H14R 4637   1.306   1.479   9.480  0.3605  0.3225  2.7357
   60SAPC  C215 4638   1.455   1.485   9.330  0.1033  0.0476 -0.6591
   60SAPC  H15R 4639   1.402   1.570   9.284 -0.5949 -0.9976 -1.8501
   60SAPC  C216 4640   1.589   1.454   9.263  0.2357 -0.1723  0.3314
   60SAPC  H16R 4641   1.578   1.354   9.215 -0.2517 -0.4666  1.0436
   60SAPC  H16S 4642   1.675   1.441   9.332  0.4905  1.0432  0.2638
   60SAPC  C217 4643   1.629   1.562   9.160  0.0943 -0.6997 -0.6870
   60SAPC  H17R 4644   1.727   1.530   9.117  1.5507 -0.8625  2.4714
   60SAPC  H17S 4645   1.642   1.658   9.213 -0.1776 -0.2735 -1.3699
   60SAPC  C218 4646   1.534   1.598   9.037 -0.9802 -0.0321 -1.1054
   60SAPC  H18R 4647   1.450   1.660   9.077 -1.0524 -1.4660  1.1227
   60SAPC  H18S 4648   1.490   1.498   9.016  0.1554 -0.6484 -0.6129
   60SAPC  C219 4649   1.611   1.661   8.919 -0.1771  0.0768  0.5246
   60SAPC  H19R 4650   1.685   1.583   8.888 -0.5373 -0.5738  1.2740
   60SAPC  H19S 4651   1.670   1.748   8.953 -1.2257  0.6036  1.0157
   60SAPC  C220 4652   1.537   1.706   8.792  0.5413 -0.4596 -0.0812
   60SAPC  H20R 4653   1.603   1.740   8.710  1.8114  0.5127  1.2822
   60SAPC  H20S 4654   1.461   1.779   8.830  0.7797 -0.8672  1.2247
   60SAPC  H20T 4655   1.482   1.620   8.749  1.8089 -0.9298 -0.7938
   60SAPC   C33 4656   1.192   2.213   9.976  0.0307  1.7394  0.1835
   60SAPC   H3X 4657   1.082   2.205   9.965  0.0457  0.4384  0.8118
   60SAPC   H3Y 4658   1.226   2.108   9.991  0.6734  2.3291  3.9723
   60SAPC   C34 4659   1.259   2.268   9.849  0.2198 -0.1133  0.4438
   60SAPC   H4X 4660   1.370   2.268   9.851  0.2657 -1.2941 -0.6409
   60SAPC   H4Y 4661   1.233   2.375   9.837 -0.5303 -0.3166  0.2060
   60SAPC   C35 4662   1.199   2.202   9.721 -1.1871 -0.1830 -1.3209
   60SAPC   H5X 4663   1.098   2.242   9.701 -1.2952 -0.4294 -1.2668
   60SAPC   H5Y 4664   1.204   2.094   9.747 -0.2091 -0.0123 -0.7169
   60SAPC   C36 4665   1.282   2.243   9.599 -0.0346 -0.2760 -0.6670
   60SAPC   H6X 4666   1.387   2.264   9.625 -0.4133  0.5314  0.2868
   60SAPC   H6Y 4667   1.244   2.336   9.551  1.7517  0.9496  0.1955
   60SAPC   C37 4668   1.279   2.132   9.491  0.8634 -0.6595 -0.3895
   60SAPC   H7X 4669   1.170   2.122   9.471  0.5675  0.8841  0.2905
   60SAPC   H7Y 4670   1.325   2.037   9.524  1.5145  0.0273  0.7425
   60SAPC   C38 4671   1.367   2.173   9.375  0.7244 -0.5532 -0.5583
   60SAPC   H8X 4672   1.451   2.101   9.365  0.6439 -1.0987  2.1369
   60SAPC   H8Y 4673   1.421   2.267   9.402 -1.9454  0.6381  1.0435
   60SAPC   C39 4674   1.298   2.193   9.236  0.3144 -0.1747 -0.1861
   60SAPC   H9X 4675   1.254   2.295   9.229  0.2389 -0.2860 -1.7345
   60SAPC   H9Y 4676   1.219   2.115   9.226 -1.9640  1.8916  0.6484
   60SAPC  C310 4677   1.404   2.192   9.122 -0.0992 -0.9035 -0.8077
   60SAPC  H10X 4678   1.460   2.097   9.137 -0.2278 -0.6556  1.7360
   60SAPC  H10Y 4679   1.478   2.273   9.136 -1.6767  0.3180  0.8488
   60SAPC  C311 4680   1.339   2.216   8.987  0.4406  0.1800 -0.2071
   60SAPC  H11X 4681   1.278   2.309   8.989 -1.7929 -1.2272  0.9287
   60SAPC  H11Y 4682   1.267   2.133   8.968  0.9524 -0.4584  0.5618
   60SAPC  C312 4683   1.437   2.239   8.878  0.0066 -0.2777  0.0662
   60SAPC  H12X 4684   1.509   2.155   8.870 -0.3946 -0.5862 -0.3466
   60SAPC  H12Y 4685   1.507   2.323   8.898  2.0427 -1.1635 -2.7656
   60SAPC  C313 4686   1.364   2.279   8.750  0.7058 -0.1896  0.3296
   60SAPC  H13X 4687   1.290   2.360   8.768 -0.5824 -1.6879  2.2041
   60SAPC  H13Y 4688   1.318   2.191   8.699  2.2985 -1.1318  0.4670
   60SAPC  C314 4689   1.469   2.337   8.661 -0.0531  0.2012  0.7103
   60SAPC  H14X 4690   1.553   2.263   8.657  1.2344  1.6461  0.1337
   60SAPC  H14Y 4691   1.506   2.429   8.710  1.6817 -0.2075  0.2438
   60SAPC  C315 4692   1.423   2.358   8.519  0.1124 -0.5283  0.2574
   60SAPC  H15X 4693   1.495   2.415   8.458  0.5641  0.7869  1.9281
   60SAPC  H15Y 4694   1.333   2.424   8.515  1.2425  1.0241 -0.4639
   60SAPC  C316 4695   1.403   2.228   8.439  0.3676 -0.4369  0.2607
   60SAPC  H16X 4696   1.297   2.197   8.449  0.2123  0.6773  2.7175
   60SAPC  H16Y 4697   1.469   2.145   8.475  2.1936  0.6364 -0.4553
   60SAPC  C317 4698   1.439   2.251   8.290  0.2879 -0.1330  0.4964
   60SAPC  H17X 4699   1.545   2.284   8.288  0.5710 -0.9653  0.9555
   60SAPC  H17Y 4700   1.377   2.332   8.247  0.0081 -0.9583 -0.6846
   60SAPC  C318 4701   1.414   2.124   8.211  0.2652  0.5541  0.1491
   60SAPC  H18X 4702   1.442   2.142   8.105 -2.4428  1.6770 -0.4355
   60SAPC  H18Y 4703   1.305   2.105   8.219  0.1192  1.4161  0.3278
   60SAPC  H18Z 4704   1.457   2.036   8.263 -1.6761 -0.3999  0.2209
   61SAPC     N 4705   2.835   0.563  10.660  0.0310 -0.0887  0.3875
   61SAPC   C12 4706   2.718   0.473  10.705  0.0871  0.0889 -0.0130
   61SAPC  H12A 4707   2.761   0.376  10.722 -0.3775 -0.1477 -0.1554
   61SAPC  H12B 4708   2.639   0.462  10.632 -2.3693  0.9340  2.3467
   61SAPC   C13 4709   2.899   0.494  10.541  0.4579 -0.1919  0.5726
   61SAPC  H13A 4710   2.831   0.469  10.461  2.3309 -0.7212 -0.9239
   61SAPC  H13B 4711   2.970   0.563  10.495  1.8177 -0.5060  2.1108
   61SAPC  H13C 4712   2.955   0.414  10.587 -0.4361  0.0403  2.1058
   61SAPC   C14 4713   2.784   0.703  10.621  0.2253 -0.0862  0.4184
   61SAPC  H14A 4714   2.864   0.772  10.596  1.7005 -1.5450  0.9240
   61SAPC  H14B 4715   2.696   0.711  10.559 -1.5745  1.1115  2.9518
   61SAPC  H14C 4716   2.742   0.751  10.708 -0.6039  1.2540 -0.6668
   61SAPC   C15 4717   2.932   0.580  10.768 -0.1646  0.7500 -0.3432
   61SAPC  H15A 4718   3.024   0.632  10.745  1.1033 -1.1029  0.3007
   61SAPC  H15B 4719   2.881   0.636  10.846 -1.2207 -0.9422  0.2376
   61SAPC  H15C 4720   2.958   0.486  10.815  1.5170  1.2758 -0.1804
   61SAPC   C11 4721   2.625   0.532  10.820  0.0506  0.6138  0.2928
   61SAPC  H11A 4722   2.693   0.560  10.903  1.6349 -0.9543 -0.4046
   61SAPC  H11B 4723   2.568   0.445  10.861 -1.0471  1.0192 -0.3496
   61SAPC     P 4724   2.410   0.602  10.697  0.1460 -0.0157  0.4512
   61SAPC   O13 4725   2.297   0.567  10.788 -0.1867  0.1573 -0.2840
   61SAPC   O14 4726   2.380   0.717  10.610  0.2030 -0.8908 -0.7083
   61SAPC   O12 4727   2.540   0.633  10.775 -0.5610  0.2440 -0.2535
   61SAPC   O11 4728   2.460   0.479  10.618 -0.2668 -0.5112 -0.7735
   61SAPC    C1 4729   2.392   0.422  10.509  1.0098  0.3391 -0.4452
   61SAPC    HA 4730   2.431   0.319  10.500  0.3043  0.1161 -1.0742
   61SAPC    HB 4731   2.281   0.416  10.518  1.1341 -0.1434  1.0073
   61SAPC    C2 4732   2.418   0.496  10.378 -0.0912  0.6457  0.8105
   61SAPC    HS 4733   2.363   0.591  10.391  0.4018  0.7692  2.0339
   61SAPC   O21 4734   2.384   0.424  10.254 -0.3475  0.5009  0.4077
   61SAPC   C21 4735   2.257   0.390  10.240  0.0897 -0.6148 -0.3296
   61SAPC   O22 4736   2.164   0.442  10.296  0.4093 -0.5143 -0.4343
   61SAPC   C22 4737   2.244   0.281  10.139  0.3984  0.5126  0.4479
   61SAPC   H2R 4738   2.305   0.199  10.180  0.3093  0.5273  0.6122
   61SAPC   H2S 4739   2.136   0.258  10.126  0.2211  1.0166  1.0058
   61SAPC    C3 4740   2.570   0.531  10.357  0.0451  0.2192 -0.1160
   61SAPC    HX 4741   2.622   0.433  10.345 -0.7271 -0.4584  1.6111
   61SAPC    HY 4742   2.610   0.586  10.445  1.0882  2.0528 -1.6907
   61SAPC   O31 4743   2.572   0.611  10.239 -0.2888 -0.8568 -0.4209
   61SAPC   C31 4744   2.701   0.644  10.212  0.1185 -0.1043 -0.2918
   61SAPC   O32 4745   2.793   0.618  10.287 -0.8633  0.5608  0.6166
   61SAPC   C32 4746   2.700   0.743  10.091  0.6981 -0.1662  1.3786
   61SAPC   H2X 4747   2.778   0.817  10.119 -0.2017  0.6587  1.7177
   61SAPC   H2Y 4748   2.604   0.798  10.090  0.9151  0.2543 -0.8262
   61SAPC   C23 4749   2.293   0.316   9.994  0.4754 -0.2957 -0.1750
   61SAPC   H3R 4750   2.404   0.319   9.994  0.5411  0.9253 -3.5575
   61SAPC   H3S 4751   2.266   0.418   9.963  1.5748  0.2221  0.4847
   61SAPC   C24 4752   2.243   0.220   9.884  0.1553  0.8599  0.1097
   61SAPC   H4R 4753   2.251   0.261   9.781  1.3219 -2.4965 -1.2644
   61SAPC   H4S 4754   2.133   0.209   9.891  0.1635  0.8695  0.2564
   61SAPC   C25 4755   2.310   0.087   9.874 -0.1926  0.2676  0.0020
   61SAPC   H5R 4756   2.275   0.011   9.946 -1.5138  1.9047  1.1867
   61SAPC   C26 4757   2.417   0.055   9.796 -0.5199 -0.1273  0.2564
   61SAPC   H6R 4758   2.452  -0.049   9.788 -4.0279 -1.2973 -1.8912
   61SAPC   C27 4759   2.493   0.140   9.690 -0.0922  0.2672 -0.6278
   61SAPC   H7R 4760   2.599   0.108   9.681 -0.3273 -0.1672 -2.1223
   61SAPC   H7S 4761   2.499   0.242   9.735 -2.8299 -0.2474  1.1091
   61SAPC   C28 4762   2.419   0.138   9.555  0.4255  0.1661 -0.0579
   61SAPC   H8R 4763   2.316   0.178   9.553 -0.9915 -3.0780  0.8301
   61SAPC   C29 4764   2.471   0.092   9.436 -0.1691 -0.6160 -0.1351
   61SAPC   H9R 4765   2.406   0.091   9.347  0.2153 -1.2836 -0.4198
   61SAPC  C210 4766   2.607   0.036   9.412 -0.2716  0.2384  0.4782
   61SAPC  H10R 4767   2.616  -0.049   9.341  3.6479 -0.1510  1.1849
   61SAPC  H10S 4768   2.636  -0.013   9.507  4.3193  0.7072 -0.4550
   61SAPC  C211 4769   2.708   0.144   9.385 -0.1366  0.2237  0.3113
   61SAPC  H11R 4770   2.697   0.239   9.439 -1.0292  2.0808 -2.8406
   61SAPC  C212 4771   2.803   0.147   9.290 -1.0313 -0.6151  0.2302
   61SAPC  H12R 4772   2.874   0.231   9.283  0.0585 -1.3541  1.8161
   61SAPC  C213 4773   2.830   0.047   9.175  0.1154  0.2979  0.0826
   61SAPC  H13R 4774   2.818  -0.055   9.218  0.0387  0.8978  1.5554
   61SAPC  H13S 4775   2.931   0.066   9.133 -0.5636  1.6188 -1.0499
   61SAPC  C214 4776   2.728   0.049   9.061 -0.0604 -0.5101 -0.6610
   61SAPC  H14R 4777   2.630   0.015   9.096  1.6981 -2.8080  2.4925
   61SAPC  C215 4778   2.745   0.085   8.932  0.1619  0.2508 -0.0125
   61SAPC  H15R 4779   2.658   0.069   8.867  1.8381 -1.3752 -2.0078
   61SAPC  C216 4780   2.868   0.128   8.862 -0.1033 -0.3102  0.1676
   61SAPC  H16R 4781   2.944   0.124   8.944  0.0210  0.4302  0.0958
   61SAPC  H16S 4782   2.870   0.237   8.840  2.7158 -0.0694  1.1817
   61SAPC  C217 4783   2.911   0.060   8.732 -0.6831 -0.0462  0.3431
   61SAPC  H17R 4784   2.828   0.067   8.658  0.0594 -0.9427 -0.6075
   61SAPC  H17S 4785   2.930  -0.047   8.755 -0.8716 -0.1767 -0.0846
   61SAPC  C218 4786   3.035   0.128   8.668 -0.0352  0.2203 -0.6325
   61SAPC  H18R 4787   3.125   0.132   8.733  0.1205 -0.0487 -0.8265
   61SAPC  H18S 4788   2.999   0.233   8.661 -0.5219  0.3941  2.9062
   61SAPC  C219 4789   3.062   0.083   8.523 -0.3667 -0.2027  0.2203
   61SAPC  H19R 4790   3.126   0.153   8.466 -1.2177 -0.8287 -1.5755
   61SAPC  H19S 4791   2.959   0.088   8.481 -0.2933  1.4910  0.1579
   61SAPC  C220 4792   3.133  -0.048   8.504  0.0972 -0.0224  0.1807
   61SAPC  H20R 4793   3.193  -0.045   8.410  0.8602  0.5898  0.6874
   61SAPC  H20S 4794   3.060  -0.130   8.485 -1.1337  1.1059 -0.0639
   61SAPC  H20T 4795   3.195  -0.076   8.592  0.2705 -1.6887 -0.4195
   61SAPC   C33 4796   2.737   0.687   9.950  0.7130 -0.1701 -0.3396
   61SAPC   H3X 4797   2.790   0.590   9.947 -0.6465 -1.0202  1.2093
   61SAPC   H3Y 4798   2.810   0.752   9.897  1.3343 -1.5275 -1.1840
   61SAPC   C34 4799   2.626   0.665   9.856  0.7620 -0.3152  0.4811
   61SAPC   H4X 4800   2.582   0.760   9.820 -0.2821 -1.6389 -1.9536
   61SAPC   H4Y 4801   2.535   0.618   9.900  0.8487 -0.7740  0.1859
   61SAPC   C35 4802   2.678   0.583   9.730 -0.2011 -0.1468 -0.0541
   61SAPC   H5X 4803   2.733   0.494   9.767 -1.5564 -0.3391  1.6400
   61SAPC   H5Y 4804   2.762   0.645   9.691  0.4572 -0.2711  1.1232
   61SAPC   C36 4805   2.588   0.545   9.612  0.8697 -0.0539  0.1136
   61SAPC   H6X 4806   2.507   0.620   9.609  1.4330  0.7386  2.3235
   61SAPC   H6Y 4807   2.548   0.444   9.636 -1.9227  1.1290  0.8025
   61SAPC   C37 4808   2.657   0.536   9.470 -0.9725 -0.5965 -0.2056
   61SAPC   H7X 4809   2.753   0.480   9.473  1.6359  3.5036  1.1538
   61SAPC   H7Y 4810   2.688   0.641   9.453 -1.1660 -0.6111 -0.6521
   61SAPC   C38 4811   2.563   0.492   9.360  0.0041  0.0814 -0.1511
   61SAPC   H8X 4812   2.474   0.558   9.367 -0.3640 -0.3351 -0.8566
   61SAPC   H8Y 4813   2.528   0.390   9.385 -2.0109  0.7179 -0.2287
   61SAPC   C39 4814   2.621   0.489   9.214 -0.4015  0.0934 -0.5284
   61SAPC   H9X 4815   2.535   0.485   9.144  1.6167 -1.0849 -3.0724
   61SAPC   H9Y 4816   2.677   0.393   9.208 -1.1226 -0.9728  4.6569
   61SAPC  C310 4817   2.702   0.617   9.188  0.0939 -0.3495  0.5061
   61SAPC  H10X 4818   2.793   0.616   9.252 -1.2005 -1.2207  2.4418
   61SAPC  H10Y 4819   2.643   0.706   9.220  0.6147  0.3740 -0.4857
   61SAPC  C311 4820   2.743   0.633   9.043 -1.3895  0.3245  0.5375
   61SAPC  H11X 4821   2.792   0.728   9.016  1.2813 -0.9160  0.7459
   61SAPC  H11Y 4822   2.651   0.619   8.982  0.1122 -0.1921 -1.7159
   61SAPC  C312 4823   2.848   0.535   8.984  1.1225  0.2390 -0.3858
   61SAPC  H12X 4824   2.810   0.431   8.988  0.4509  0.5178  0.9371
   61SAPC  H12Y 4825   2.943   0.538   9.041  2.0336  2.0797 -1.8750
   61SAPC  C313 4826   2.887   0.571   8.838  0.1114  0.1629  0.0949
   61SAPC  H13X 4827   2.977   0.513   8.808  0.4622  0.8410 -0.1983
   61SAPC  H13Y 4828   2.905   0.680   8.842 -1.1400  0.3401  2.8455
   61SAPC  C314 4829   2.782   0.539   8.736  0.6410  0.2671 -0.2645
   61SAPC  H14X 4830   2.685   0.574   8.776  0.9732  3.1053 -1.6819
   61SAPC  H14Y 4831   2.767   0.430   8.719 -0.2100  0.2714  0.4344
   61SAPC  C315 4832   2.804   0.614   8.606 -0.2952 -0.9344 -0.7852
   61SAPC  H15X 4833   2.895   0.575   8.557  0.7488 -1.3122  1.3400
   61SAPC  H15Y 4834   2.837   0.718   8.630 -0.9715 -0.7377 -0.6808
   61SAPC  C316 4835   2.695   0.615   8.499  0.5536  0.1771 -0.4640
   61SAPC  H16X 4836   2.691   0.508   8.467  0.6317 -0.1934  0.7076
   61SAPC  H16Y 4837   2.736   0.677   8.417  1.6283 -0.6496 -0.5793
   61SAPC  C317 4838   2.556   0.681   8.530 -0.7447  0.4915 -0.1947
   61SAPC  H17X 4839   2.508   0.620   8.609 -1.1270  0.2948 -0.5752
   61SAPC  H17Y 4840   2.489   0.674   8.442 -1.4628 -0.5764  0.4264
   61SAPC  C318 4841   2.581   0.826   8.578  0.1256  0.2463  0.2795
   61SAPC  H18X 4842   2.481   0.875   8.575 -0.5137 -1.0822 -0.8460
   61SAPC  H18Y 4843   2.653   0.871   8.506 -1.0739 -1.4320 -2.0925
   61SAPC  H18Z 4844   2.616   0.821   8.684  1.4347 -1.2783 -0.1942
   62SAPC     N 4845   0.165   6.666  11.215 -0.0345 -0.2791 -0.4041
   62SAPC   C12 4846   0.104   6.605  11.088  0.2446 -0.5959  0.0785
   62SAPC  H12A 4847   0.009   6.651  11.063  0.9365  0.4069 -0.8573
   62SAPC  H12B 4848   0.078   6.503  11.109 -2.7491 -0.0317 -0.5122
   62SAPC   C13 4849   0.313   6.647  11.232  0.2419  0.3869  0.0449
   62SAPC  H13A 4850   0.369   6.669  11.143  1.1241  1.3117  0.8016
   62SAPC  H13B 4851   0.344   6.722  11.304 -1.7210  1.0733  0.2394
   62SAPC  H13C 4852   0.345   6.548  11.262 -0.2132  0.3593  0.4561
   62SAPC   C14 4853   0.151   6.823  11.213  0.2527  0.0033  0.1153
   62SAPC  H14A 4854   0.171   6.865  11.310  0.2900 -0.1806  0.1871
   62SAPC  H14B 4855   0.207   6.864  11.130 -0.6222 -0.5436 -0.7651
   62SAPC  H14C 4856   0.046   6.844  11.197 -0.1077 -1.9045 -0.2939
   62SAPC   C15 4857   0.090   6.622  11.339 -0.3792  0.2394  0.3981
   62SAPC  H15A 4858  -0.016   6.643  11.333 -0.5233 -0.5241  0.2119
   62SAPC  H15B 4859   0.112   6.518  11.359  0.6149  0.1003 -1.2144
   62SAPC  H15C 4860   0.137   6.672  11.422  0.5891 -1.3530  0.8512
   62SAPC   C11 4861   0.187   6.622  10.958 -0.2956  0.7947 -0.5890
   62SAPC  H11A 4862   0.135   6.567  10.877 -0.7966  1.3481 -0.6494
   62SAPC  H11B 4863   0.283   6.570  10.980 -2.1903 -1.3706  3.8912
   62SAPC     P 4864   0.126   6.825  10.801  0.0427  0.4925 -0.2676
   62SAPC   O13 4865  -0.007   6.857  10.852  0.8504  0.2246  0.0276
   62SAPC   O14 4866   0.202   6.943  10.746  0.0879  0.6548 -0.1707
   62SAPC   O12 4867   0.217   6.751  10.910  0.2530 -0.4197  0.0038
   62SAPC   O11 4868   0.114   6.716  10.685 -0.3814  1.3482 -0.0327
   62SAPC    C1 4869   0.222   6.670  10.605  0.1478  0.0262  0.6427
   62SAPC    HA 4870   0.313   6.677  10.668 -1.5667 -0.1040  3.2626
   62SAPC    HB 4871   0.207   6.564  10.575 -0.4402  0.3769 -0.3455
   62SAPC    C2 4872   0.232   6.756  10.475  0.1448 -0.0230  0.2121
   62SAPC    HS 4873   0.234   6.863  10.502 -0.7804  0.5767 -1.9149
   62SAPC   O21 4874   0.139   6.723  10.374  0.1722  0.1627 -0.6077
   62SAPC   C21 4875   0.019   6.779  10.384  0.2735  0.1328  0.4174
   62SAPC   O22 4876  -0.021   6.856  10.467 -0.7766 -0.2270 -0.6472
   62SAPC   C22 4877  -0.069   6.704  10.286  0.2029 -0.2486 -0.5958
   62SAPC   H2R 4878   0.005   6.656  10.218  1.2958  0.0773  0.3105
   62SAPC   H2S 4879  -0.126   6.627  10.343  1.1591  0.5357  1.5566
   62SAPC    C3 4880   0.376   6.735  10.410 -0.3011 -0.1082  0.5387
   62SAPC    HX 4881   0.382   6.629  10.377 -2.1334 -0.1289  0.1791
   62SAPC    HY 4882   0.461   6.751  10.479  0.1675 -3.0402  0.7754
   62SAPC   O31 4883   0.394   6.813  10.291 -0.1632  0.2085 -0.1589
   62SAPC   C31 4884   0.390   6.946  10.292  0.1796  0.4163  0.3919
   62SAPC   O32 4885   0.382   7.019  10.391  0.3525 -0.0373  0.7846
   62SAPC   C32 4886   0.389   7.001  10.148  0.5908  0.4420 -0.2719
   62SAPC   H2X 4887   0.324   6.940  10.082  0.6092 -0.7261  0.7472
   62SAPC   H2Y 4888   0.494   6.992  10.115  1.3035  1.1188  1.6853
   62SAPC   C23 4889  -0.167   6.786  10.209  0.0379 -0.3855  0.7226
   62SAPC   H3R 4890  -0.228   6.860  10.265  1.5282  0.5083  1.1942
   62SAPC   H3S 4891  -0.232   6.710  10.160 -0.6784 -0.0708  1.1574
   62SAPC   C24 4892  -0.116   6.853  10.076  0.0215 -0.8581  0.3217
   62SAPC   H4R 4893  -0.208   6.883  10.021 -0.2068 -0.1377  1.0837
   62SAPC   H4S 4894  -0.067   6.768  10.024  1.5627 -0.5740  1.2513
   62SAPC   C25 4895  -0.023   6.969  10.081 -0.8667 -0.1779  0.2771
   62SAPC   H5R 4896   0.005   7.016  10.176  1.0209  0.5330 -0.5753
   62SAPC   C26 4897   0.019   7.028   9.961  0.0472  0.1642 -0.7560
   62SAPC   H6R 4898   0.092   7.109   9.971  0.9296 -0.7706  0.7420
   62SAPC   C27 4899  -0.015   6.990   9.821 -0.1620 -0.3519 -0.3051
   62SAPC   H7R 4900  -0.083   6.903   9.812 -2.2447  1.2522 -1.0477
   62SAPC   H7S 4901   0.084   6.966   9.775 -0.0859  0.1431 -0.4090
   62SAPC   C28 4902  -0.091   7.101   9.747  0.6689 -0.5967  0.2519
   62SAPC   H8R 4903  -0.106   7.188   9.813  0.5041 -0.1857 -0.3265
   62SAPC   C29 4904  -0.129   7.093   9.622  0.5864 -0.1653 -0.4507
   62SAPC   H9R 4905  -0.168   7.184   9.573  2.7184  0.1894 -1.5834
   62SAPC  C210 4906  -0.104   6.977   9.531  0.0776  0.4400  0.6967
   62SAPC  H10R 4907  -0.198   6.916   9.532 -0.4326  1.2087  0.1192
   62SAPC  H10S 4908  -0.024   6.907   9.565 -0.1849 -0.3133 -0.1981
   62SAPC  C211 4909  -0.071   7.016   9.389 -0.3671 -0.1517  0.3982
   62SAPC  H11R 4910   0.018   7.080   9.378  0.1816 -0.6953  1.5595
   62SAPC  C212 4911  -0.132   6.989   9.276 -0.6554  0.1139  0.2044
   62SAPC  H12R 4912  -0.082   7.028   9.186 -0.6452  2.7195  1.2521
   62SAPC  C213 4913  -0.257   6.905   9.244 -0.4371 -0.3666 -0.1773
   62SAPC  H13R 4914  -0.297   6.880   9.345 -1.2160  0.2154 -0.3256
   62SAPC  H13S 4915  -0.235   6.808   9.195  0.4047  0.5226 -1.6112
   62SAPC  C214 4916  -0.366   6.972   9.163  0.8433  0.6981  0.1579
   62SAPC  H14R 4917  -0.342   7.069   9.118 -0.2172  1.0800  0.3771
   62SAPC  C215 4918  -0.479   6.901   9.120  0.8008  0.1297  0.2263
   62SAPC  H15R 4919  -0.552   6.953   9.057 -0.4283 -0.0846  1.4147
   62SAPC  C216 4920  -0.504   6.751   9.155 -0.8642 -0.4006 -0.2544
   62SAPC  H16R 4921  -0.605   6.746   9.202 -0.2898  0.1040  1.1016
   62SAPC  H16S 4922  -0.436   6.705   9.230  2.4463 -0.2459 -2.9682
   62SAPC  C217 4923  -0.512   6.655   9.033  0.0271  0.6827 -0.0562
   62SAPC  H17R 4924  -0.585   6.678   8.953  1.5319 -0.4911 -1.8384
   62SAPC  H17S 4925  -0.545   6.556   9.072  1.6145 -0.0526 -0.4991
   62SAPC  C218 4926  -0.374   6.646   8.977  0.3812  0.2509 -0.0919
   62SAPC  H18R 4927  -0.329   6.589   9.061  1.9417  0.8768 -0.4510
   62SAPC  H18S 4928  -0.336   6.750   8.966 -0.1748  0.4131 -0.5181
   62SAPC  C219 4929  -0.377   6.577   8.841  0.0039  0.7023  0.3840
   62SAPC  H19R 4930  -0.445   6.620   8.764  0.5621  0.5235 -0.2233
   62SAPC  H19S 4931  -0.426   6.478   8.852 -2.3490  1.5005 -1.8883
   62SAPC  C220 4932  -0.235   6.548   8.780  0.4743  0.1490  0.1893
   62SAPC  H20R 4933  -0.190   6.637   8.730 -0.1860 -0.4890 -1.6026
   62SAPC  H20S 4934  -0.246   6.471   8.701 -0.0668 -0.5133  0.8970
   62SAPC  H20T 4935  -0.179   6.490   8.856 -1.9971 -3.2410 -0.3055
   62SAPC   C33 4936   0.344   7.149  10.144 -0.0904  0.0214  0.1135
   62SAPC   H3X 4937   0.386   7.200  10.233 -0.4663 -1.4974  1.1934
   62SAPC   H3Y 4938   0.235   7.142  10.165  0.4248 -0.3533  3.0447
   62SAPC   C34 4939   0.389   7.201  10.011  0.3588  0.1770  0.0641
   62SAPC   H4X 4940   0.359   7.130   9.931 -2.0425  1.5749 -0.3637
   62SAPC   H4Y 4941   0.499   7.207  10.026 -0.0397  1.7240  2.9662
   62SAPC   C35 4942   0.333   7.335   9.971 -0.2450 -0.2788 -0.2714
   62SAPC   H5X 4943   0.373   7.408  10.044  1.1336 -1.7798  0.5348
   62SAPC   H5Y 4944   0.222   7.326   9.978 -0.1165 -2.5710 -0.4362
   62SAPC   C36 4945   0.362   7.376   9.829 -0.4669  0.3216  0.0718
   62SAPC   H6X 4946   0.473   7.377   9.815 -0.5118  0.1164 -0.3067
   62SAPC   H6Y 4947   0.324   7.478   9.810  1.6500  0.7091 -2.7556
   62SAPC   C37 4948   0.306   7.281   9.720  0.2153 -0.2171  1.2402
   62SAPC   H7X 4949   0.195   7.279   9.721  0.1104  1.1434 -0.9800
   62SAPC   H7Y 4950   0.333   7.175   9.741 -1.6067 -1.1716 -0.7701
   62SAPC   C38 4951   0.340   7.339   9.575  0.4399  0.2457 -0.5431
   62SAPC   H8X 4952   0.302   7.443   9.567 -1.7385 -0.5029 -0.4868
   62SAPC   H8Y 4953   0.297   7.266   9.503  0.5702 -1.6067  1.1901
   62SAPC   C39 4954   0.491   7.345   9.543  0.1808  0.5807  0.0198
   62SAPC   H9X 4955   0.524   7.238   9.547 -0.5273  0.3484 -0.2419
   62SAPC   H9Y 4956   0.542   7.408   9.619 -0.6968  0.4271  0.7521
   62SAPC  C310 4957   0.518   7.409   9.403 -0.4573 -0.2193  0.8273
   62SAPC  H10X 4958   0.507   7.519   9.408  0.4288 -0.1173  0.6220
   62SAPC  H10Y 4959   0.445   7.364   9.332  1.8035 -0.7973 -1.2681
   62SAPC  C311 4960   0.658   7.383   9.357 -1.0633  0.2783 -0.5624
   62SAPC  H11X 4961   0.667   7.274   9.338 -2.6013 -0.2389  1.3345
   62SAPC  H11Y 4962   0.729   7.410   9.438  1.1335 -1.1850 -1.9056
   62SAPC  C312 4963   0.704   7.477   9.241 -0.6149 -0.0192 -0.2554
   62SAPC  H12X 4964   0.739   7.570   9.292 -0.2201 -1.2254  1.7635
   62SAPC  H12Y 4965   0.612   7.508   9.186 -0.7693  0.8125  0.4482
   62SAPC  C313 4966   0.799   7.407   9.145 -0.3345  0.1437  0.1366
   62SAPC  H13X 4967   0.757   7.326   9.083 -0.6248  0.5717 -0.2314
   62SAPC  H13Y 4968   0.874   7.356   9.209 -1.9328 -0.7868  1.3502
   62SAPC  C314 4969   0.864   7.506   9.046  0.5007  0.5439  0.4921
   62SAPC  H14X 4970   0.910   7.595   9.093  0.0497  0.1593  1.7066
   62SAPC  H14Y 4971   0.780   7.528   8.976 -0.4621 -2.3704  0.6005
   62SAPC  C315 4972   0.959   7.437   8.950 -0.2021 -0.0272  0.4797
   62SAPC  H15X 4973   0.904   7.355   8.899  0.8197 -1.1080  1.0679
   62SAPC  H15Y 4974   1.036   7.394   9.017  1.9930  0.1926 -1.7909
   62SAPC  C316 4975   1.011   7.531   8.838  0.1221 -1.0721 -0.5998
   62SAPC  H16X 4976   1.044   7.625   8.888 -2.3103 -0.5374  0.1471
   62SAPC  H16Y 4977   0.924   7.568   8.779  0.7000  2.0865  0.3185
   62SAPC  C317 4978   1.123   7.481   8.746 -0.4115 -0.7085 -0.6067
   62SAPC  H17X 4979   1.213   7.439   8.797 -1.6315 -0.7743  1.5907
   62SAPC  H17Y 4980   1.166   7.564   8.686  0.8258 -2.4359 -2.2459
   62SAPC  C318 4981   1.064   7.389   8.637 -0.5733 -0.1904 -0.0515
   62SAPC  H18X 4982   0.971   7.346   8.678  0.0336  1.8171  3.9599
   62SAPC  H18Y 4983   1.148   7.324   8.604  1.2036  1.1561  1.5972
   62SAPC  H18Z 4984   1.032   7.450   8.550  0.6246  0.3000 -0.1762
   63SAPC     N 4985   2.680   3.249   6.296  0.5182 -0.4937  0.7091
   63SAPC   C12 4986   2.709   3.336   6.417  0.1383  1.2467  0.5728
   63SAPC  H12A 4987   2.707   3.270   6.502  1.7179  0.9546  0.4193
   63SAPC  H12B 4988   2.631   3.410   6.424 -2.6393 -1.3476 -0.7903
   63SAPC   C13 4989   2.689   3.334   6.169 -0.0470 -0.2215  0.7006
   63SAPC  H13A 4990   2.631   3.425   6.174 -0.5766 -0.5246  0.2251
   63SAPC  H13B 4991   2.790   3.365   6.147 -0.1114 -0.3780  0.1604
   63SAPC  H13C 4992   2.654   3.282   6.081  0.7818  1.8411 -0.9503
   63SAPC   C14 4993   2.774   3.132   6.279 -0.1335 -0.2199  0.4593
   63SAPC  H14A 4994   2.799   3.080   6.371  1.0093  0.3838  0.5115
   63SAPC  H14B 4995   2.741   3.063   6.203  1.6018 -1.0017  0.3733
   63SAPC  H14C 4996   2.865   3.169   6.233 -0.9375  0.0311 -0.9718
   63SAPC   C15 4997   2.537   3.195   6.308 -0.4316 -0.1453 -0.7806
   63SAPC  H15A 4998   2.467   3.268   6.344  0.2660  1.3276 -2.2519
   63SAPC  H15B 4999   2.509   3.161   6.209 -1.0783  1.2259 -1.0859
   63SAPC  H15C 5000   2.525   3.103   6.364 -3.3325 -0.1757 -1.3154
   63SAPC   C11 5001   2.847   3.403   6.418  0.3626  0.1298 -0.1542
   63SAPC  H11A 5002   2.851   3.483   6.495  4.6929  0.4349 -0.4462
   63SAPC  H11B 5003   2.865   3.435   6.313 -0.6565 -2.7836 -1.3129
   63SAPC     P 5004   3.092   3.342   6.457  0.5847  0.2435  0.0224
   63SAPC   O13 5005   3.179   3.224   6.488 -0.3140 -0.1159 -0.3289
   63SAPC   O14 5006   3.129   3.406   6.330  0.4076 -0.0745 -0.2845
   63SAPC   O12 5007   2.943   3.306   6.459 -0.2875 -0.0323 -0.5706
   63SAPC   O11 5008   3.106   3.437   6.586  0.1690 -0.0510  0.1685
   63SAPC    C1 5009   3.212   3.535   6.615 -0.4367 -0.4638 -0.2640
   63SAPC    HA 5010   3.314   3.492   6.606 -0.6942 -1.4183  1.1084
   63SAPC    HB 5011   3.203   3.624   6.548 -0.0636  1.6042  2.2808
   63SAPC    C2 5012   3.203   3.614   6.750 -0.1133 -0.3399  0.8483
   63SAPC    HS 5013   3.196   3.534   6.827  0.3851 -2.6885 -1.4141
   63SAPC   O21 5014   3.088   3.694   6.756 -0.8021 -0.4607  0.0409
   63SAPC   C21 5015   2.981   3.639   6.822  0.4147  0.5236  0.1774
   63SAPC   O22 5016   2.974   3.518   6.851  0.7037  0.0772 -0.6942
   63SAPC   C22 5017   2.870   3.736   6.838  0.1140  0.0292 -0.0019
   63SAPC   H2R 5018   2.917   3.836   6.851  2.5882 -1.0279 -0.2853
   63SAPC   H2S 5019   2.811   3.736   6.744 -0.0298 -1.5486  0.0598
   63SAPC    C3 5020   3.336   3.702   6.766  0.4758  0.1373 -0.2827
   63SAPC    HX 5021   3.350   3.778   6.686  0.2408 -0.1848 -0.6302
   63SAPC    HY 5022   3.421   3.631   6.760  0.7402 -0.1277  3.6987
   63SAPC   O31 5023   3.320   3.766   6.895 -0.2221 -0.8208  0.3982
   63SAPC   C31 5024   3.353   3.686   6.996  0.3118 -0.1356  0.3326
   63SAPC   O32 5025   3.404   3.575   6.988  0.2579  0.0392 -0.4449
   63SAPC   C32 5026   3.300   3.748   7.122 -0.2508  0.0942  0.2668
   63SAPC   H2X 5027   3.191   3.756   7.105  0.0264  1.5500 -1.0915
   63SAPC   H2Y 5028   3.339   3.852   7.114 -0.6901  0.1736 -1.3076
   63SAPC   C23 5029   2.770   3.700   6.950  1.0083 -0.3237 -0.0837
   63SAPC   H3R 5030   2.759   3.592   6.974  0.3968 -0.7507 -2.0755
   63SAPC   H3S 5031   2.673   3.734   6.909  2.7665  3.1428 -1.7655
   63SAPC   C24 5032   2.791   3.776   7.091  0.3565 -0.5932 -0.4050
   63SAPC   H4R 5033   2.878   3.727   7.140 -0.4853 -1.7590 -0.0104
   63SAPC   H4S 5034   2.704   3.765   7.159  0.0109  0.3759 -0.6830
   63SAPC   C25 5035   2.808   3.918   7.070 -0.5968  0.0053  0.2528
   63SAPC   H5R 5036   2.732   3.966   7.006  0.6408 -0.8457 -1.9650
   63SAPC   C26 5037   2.898   4.001   7.126 -0.4785  0.1831 -0.4356
   63SAPC   H6R 5038   2.903   4.108   7.102 -0.3362  0.2617 -0.0684
   63SAPC   C27 5039   3.005   3.959   7.220 -0.0167 -0.5931  0.3566
   63SAPC   H7R 5040   3.101   3.939   7.168  0.3967 -1.6431  1.4728
   63SAPC   H7S 5041   2.975   3.858   7.255  0.1362 -0.8864 -0.3533
   63SAPC   C28 5042   3.044   4.051   7.332 -0.5022  0.2303  0.4592
   63SAPC   H8R 5043   3.139   4.104   7.319 -0.3252 -0.1877  0.0674
   63SAPC   C29 5044   2.982   4.067   7.450  0.2713 -0.4268  0.3549
   63SAPC   H9R 5045   3.029   4.147   7.510 -2.0812  2.1280 -0.9711
   63SAPC  C210 5046   2.856   4.001   7.500 -0.8080 -0.1747  0.0609
   63SAPC  H10R 5047   2.810   3.967   7.405  2.3136  1.9658 -2.4475
   63SAPC  H10S 5048   2.797   4.083   7.546  1.5614  3.0453 -2.0854
   63SAPC  C211 5049   2.877   3.886   7.584 -0.3051 -0.2126  0.7547
   63SAPC  H11R 5050   2.964   3.827   7.554 -1.3279 -1.4259  0.0633
   63SAPC  C212 5051   2.796   3.855   7.687 -0.4044 -0.0000 -0.1382
   63SAPC  H12R 5052   2.811   3.761   7.741 -0.0492 -0.8285 -1.6406
   63SAPC  C213 5053   2.677   3.928   7.738  0.0194 -0.6893  0.2287
   63SAPC  H13R 5054   2.613   3.852   7.787  1.4946 -1.5460  0.8876
   63SAPC  H13S 5055   2.613   3.968   7.656 -0.9877 -0.9573  0.8668
   63SAPC  C214 5056   2.701   4.046   7.834 -0.2717  0.1306 -0.4591
   63SAPC  H14R 5057   2.761   4.125   7.786 -2.1897  1.3132 -1.0432
   63SAPC  C215 5058   2.649   4.050   7.964 -0.1030  0.2334 -0.2006
   63SAPC  H15R 5059   2.679   4.143   8.013  2.1405  0.4258 -1.7653
   63SAPC  C216 5060   2.560   3.950   8.032  0.4854  0.0435 -0.1519
   63SAPC  H16R 5061   2.556   3.859   7.968  1.2448  0.9865 -1.5654
   63SAPC  H16S 5062   2.456   3.985   8.052  0.3958 -0.5517  0.4984
   63SAPC  C217 5063   2.616   3.881   8.161  0.9602  0.3886  0.0947
   63SAPC  H17R 5064   2.710   3.829   8.134  0.0138 -2.9858  2.5908
   63SAPC  H17S 5065   2.540   3.807   8.194  0.3471  1.5530  1.3796
   63SAPC  C218 5066   2.625   3.967   8.284 -0.4556 -1.1510 -0.6069
   63SAPC  H18R 5067   2.528   4.019   8.297  1.0887  1.5071  1.2509
   63SAPC  H18S 5068   2.701   4.047   8.266 -0.5963 -1.0286 -0.6542
   63SAPC  C219 5069   2.649   3.901   8.418  0.2641  0.3647  0.3219
   63SAPC  H19R 5070   2.745   3.930   8.466 -0.3921  1.7930  0.8173
   63SAPC  H19S 5071   2.640   3.791   8.406  1.0781  0.1129  1.7976
   63SAPC  C220 5072   2.555   3.938   8.532  0.4427  0.7221 -0.6008
   63SAPC  H20R 5073   2.545   4.048   8.535 -3.2586  0.5323 -1.3079
   63SAPC  H20S 5074   2.589   3.903   8.633  0.4421  0.7648 -0.5854
   63SAPC  H20T 5075   2.455   3.894   8.512  0.3801  1.4299 -1.8992
   63SAPC   C33 5076   3.331   3.676   7.256 -0.0082 -0.2436  0.2797
   63SAPC   H3X 5077   3.436   3.642   7.246  1.2010  2.8914  1.1156
   63SAPC   H3Y 5078   3.269   3.588   7.282  0.1440  0.1846  2.2330
   63SAPC   C34 5079   3.330   3.767   7.382  0.3022 -0.0666  0.4165
   63SAPC   H4X 5080   3.226   3.790   7.416 -0.6908 -2.2297 -0.9405
   63SAPC   H4Y 5081   3.382   3.862   7.359  1.1395 -0.6197  0.0016
   63SAPC   C35 5082   3.388   3.686   7.505  0.4890 -0.3587  0.2911
   63SAPC   H5X 5083   3.499   3.682   7.492  0.4296 -0.6367 -0.1523
   63SAPC   H5Y 5084   3.348   3.583   7.507 -1.7755  0.4039 -1.3833
   63SAPC   C36 5085   3.346   3.742   7.636  0.1681 -0.1785 -0.4687
   63SAPC   H6X 5086   3.235   3.732   7.633  0.0603  0.9627 -0.6809
   63SAPC   H6Y 5087   3.368   3.847   7.665  1.2185 -0.3734 -0.5246
   63SAPC   C37 5088   3.407   3.656   7.750 -0.0691  0.3104 -0.4998
   63SAPC   H7X 5089   3.516   3.640   7.736  0.0121  0.5101 -0.0965
   63SAPC   H7Y 5090   3.352   3.559   7.743  1.6625 -0.6815 -1.1049
   63SAPC   C38 5091   3.393   3.721   7.882 -0.0291  0.3520 -0.3026
   63SAPC   H8X 5092   3.288   3.742   7.912 -0.5997  0.9463 -2.4954
   63SAPC   H8Y 5093   3.436   3.823   7.877  2.0691 -0.5189 -0.9911
   63SAPC   C39 5094   3.485   3.648   7.984 -0.6290 -0.6874  0.1770
   63SAPC   H9X 5095   3.508   3.708   8.075  0.7262  1.1342 -1.2700
   63SAPC   H9Y 5096   3.588   3.621   7.952 -0.5099 -0.4586  0.3578
   63SAPC  C310 5097   3.427   3.518   8.044 -0.2202 -0.6011  0.5082
   63SAPC  H10X 5098   3.397   3.445   7.966 -1.5875  0.4409  0.0141
   63SAPC  H10Y 5099   3.333   3.557   8.088 -0.4510 -1.1405  0.5010
   63SAPC  C311 5100   3.534   3.450   8.129  0.0242  0.6096 -0.1772
   63SAPC  H11X 5101   3.636   3.446   8.085 -0.4718 -0.8883 -1.2827
   63SAPC  H11Y 5102   3.514   3.341   8.140 -1.9851  1.0425  0.8863
   63SAPC  C312 5103   3.558   3.510   8.274 -0.7028  0.0567  0.3447
   63SAPC  H12X 5104   3.470   3.475   8.334 -0.2342  0.3216  1.2103
   63SAPC  H12Y 5105   3.561   3.621   8.265  0.2953 -0.0230 -0.3642
   63SAPC  C313 5106   3.680   3.447   8.339 -0.4209  0.2107 -0.5627
   63SAPC  H13X 5107   3.781   3.467   8.299 -0.1875 -0.2709 -0.2246
   63SAPC  H13Y 5108   3.672   3.337   8.326  0.3457 -0.0979  1.2640
   63SAPC  C314 5109   3.706   3.481   8.485  0.4974  0.2932  0.0192
   63SAPC  H14X 5110   3.620   3.447   8.547  0.0494 -0.7442 -1.1361
   63SAPC  H14Y 5111   3.729   3.589   8.499  1.5600  0.0129  0.6268
   63SAPC  C315 5112   3.823   3.404   8.548  0.6026 -0.9018  0.7347
   63SAPC  H15X 5113   3.843   3.453   8.646  1.0751 -1.3258  0.8540
   63SAPC  H15Y 5114   3.920   3.401   8.494  1.5003 -1.0385  2.2907
   63SAPC  C316 5115   3.776   3.256   8.572 -0.5110  0.6769  0.1717
   63SAPC  H16X 5116   3.747   3.202   8.479 -0.3259 -1.1247  1.1040
   63SAPC  H16Y 5117   3.694   3.254   8.648  0.9379 -2.2474  1.8294
   63SAPC  C317 5118   3.890   3.160   8.624 -0.5377  0.3792 -0.2810
   63SAPC  H17X 5119   3.883   3.168   8.735 -3.4112 -0.9764 -0.2475
   63SAPC  H17Y 5120   3.986   3.195   8.582 -0.8443  0.8190 -0.6358
   63SAPC  C318 5121   3.863   3.018   8.583  0.1292 -0.6639 -0.3310
   63SAPC  H18X 5122   3.956   2.959   8.600  1.0406  0.3191 -1.6650
   63SAPC  H18Y 5123   3.837   3.024   8.476  0.0242 -0.3388 -0.2890
   63SAPC  H18Z 5124   3.773   2.968   8.625 -0.8678 -0.4072 -2.0675
   64SAPC     N 5125   4.754   4.007   6.177 -0.6010  0.0205  0.4734
   64SAPC   C12 5126   4.858   4.111   6.229  0.2278 -0.0649  0.2843
   64SAPC  H12A 5127   4.838   4.204   6.178  0.8458 -0.8512 -1.4963
   64SAPC  H12B 5128   4.958   4.075   6.205  1.5353  1.5629  2.8549
   64SAPC   C13 5129   4.620   4.053   6.205  0.8044 -0.2181 -0.0452
   64SAPC  H13A 5130   4.570   4.111   6.128 -2.3772  2.0749  3.3774
   64SAPC  H13B 5131   4.553   3.974   6.237  0.6092  0.2828  0.8090
   64SAPC  H13C 5132   4.622   4.115   6.293 -1.7743 -0.4333  0.2425
   64SAPC   C14 5133   4.779   3.980   6.031  0.3900 -0.3453  0.1817
   64SAPC  H14A 5134   4.874   3.933   6.008  0.0693 -1.2649  0.6914
   64SAPC  H14B 5135   4.701   3.913   5.999 -0.2238 -0.8983  2.6435
   64SAPC  H14C 5136   4.774   4.070   5.971 -0.7911 -0.2562  0.3889
   64SAPC   C15 5137   4.762   3.873   6.258  0.7053 -0.4070  0.1808
   64SAPC  H15A 5138   4.698   3.869   6.345 -1.2482  1.0705 -1.1041
   64SAPC  H15B 5139   4.730   3.793   6.192 -0.4708 -0.0102  0.2493
   64SAPC  H15C 5140   4.867   3.865   6.285  1.1424  2.4608 -0.4142
   64SAPC   C11 5141   4.860   4.146   6.381 -0.1469 -0.3085 -0.4314
   64SAPC  H11A 5142   4.953   4.194   6.415 -0.8143  0.7462 -0.0465
   64SAPC  H11B 5143   4.867   4.049   6.434  2.2974  0.7799  1.4187
   64SAPC     P 5144   4.739   4.371   6.424 -0.2588  0.0601  0.4525
   64SAPC   O13 5145   4.747   4.421   6.280  0.5514 -0.3627 -0.0494
   64SAPC   O14 5146   4.626   4.423   6.502 -0.4765  0.5096 -0.2280
   64SAPC   O12 5147   4.738   4.214   6.416  0.4807  0.2454 -0.6506
   64SAPC   O11 5148   4.873   4.422   6.499 -0.5643  0.3475  0.0213
   64SAPC    C1 5149   4.892   4.386   6.633 -0.9813  0.0716 -0.6412
   64SAPC    HA 5150   4.851   4.286   6.658  0.6487 -1.2850 -2.9631
   64SAPC    HB 5151   5.000   4.384   6.659 -1.4735  2.9839  2.2198
   64SAPC    C2 5152   4.839   4.484   6.743 -0.3392 -0.2027  0.3357
   64SAPC    HS 5153   4.734   4.491   6.708  0.4542  1.4940 -2.0096
   64SAPC   O21 5154   4.898   4.616   6.723  0.0137 -0.0324 -0.7075
   64SAPC   C21 5155   4.834   4.722   6.780  0.0831 -0.1355  0.0895
   64SAPC   O22 5156   4.735   4.722   6.855 -0.7292  0.2798 -0.2171
   64SAPC   C22 5157   4.903   4.849   6.715  0.6513  0.5408  0.7840
   64SAPC   H2R 5158   5.011   4.828   6.704  0.5055 -0.1735  0.6961
   64SAPC   H2S 5159   4.863   4.865   6.613  0.7353  0.3244  0.7191
   64SAPC    C3 5160   4.863   4.430   6.882 -0.3813  0.6569  0.3310
   64SAPC    HX 5161   4.972   4.417   6.896 -0.7961 -1.1062  2.5076
   64SAPC    HY 5162   4.834   4.323   6.893 -0.7827  0.8985  1.9548
   64SAPC   O31 5163   4.813   4.497   7.000 -0.8497  0.0049 -0.4816
   64SAPC   C31 5164   4.689   4.490   7.022 -0.6820  0.2044 -0.0606
   64SAPC   O32 5165   4.609   4.421   6.959  0.3018 -0.3928  0.5157
   64SAPC   C32 5166   4.647   4.578   7.140 -0.2469  0.0806  0.1088
   64SAPC   H2X 5167   4.595   4.661   7.089  0.5930  2.3770  2.7553
   64SAPC   H2Y 5168   4.734   4.622   7.192 -0.1249  1.6174 -1.3592
   64SAPC   C23 5169   4.887   4.978   6.794 -0.3057  0.4656 -0.1138
   64SAPC   H3R 5170   4.778   4.984   6.814 -0.3282 -2.1954  1.0034
   64SAPC   H3S 5171   4.922   5.067   6.738  0.1444  1.6162  1.8927
   64SAPC   C24 5172   4.950   4.983   6.932  0.2259  0.2721 -0.6997
   64SAPC   H4R 5173   5.057   4.956   6.946 -0.0296 -0.2535  0.3002
   64SAPC   H4S 5174   4.914   4.903   7.000  0.0171  0.2664 -0.8149
   64SAPC   C25 5175   4.921   5.121   6.984 -0.4980 -0.0857  0.2741
   64SAPC   H5R 5176   4.830   5.138   7.044 -1.1207  0.3379 -0.7561
   64SAPC   C26 5177   5.003   5.231   6.977 -0.1020  0.0957  1.0627
   64SAPC   H6R 5178   4.969   5.324   7.025  1.3853  0.4494  1.4865
   64SAPC   C27 5179   5.141   5.239   6.923  0.1059  0.7099  0.0619
   64SAPC   H7R 5180   5.185   5.338   6.945  1.0301  0.6173 -1.1952
   64SAPC   H7S 5181   5.135   5.240   6.812  2.1133 -0.7505 -0.1339
   64SAPC   C28 5182   5.248   5.143   6.954 -0.1361 -0.2924  0.2854
   64SAPC   H8R 5183   5.296   5.100   6.864 -0.8569 -0.8357  0.1485
   64SAPC   C29 5184   5.282   5.094   7.069 -0.3657 -0.3213  0.3837
   64SAPC   H9R 5185   5.362   5.021   7.054  0.0174  0.3993 -1.3531
   64SAPC  C210 5186   5.225   5.139   7.199 -0.1535  0.3262  0.0315
   64SAPC  H10R 5187   5.250   5.058   7.271  1.2217  1.8718  1.3772
   64SAPC  H10S 5188   5.114   5.143   7.193 -0.1716 -1.0683 -0.7913
   64SAPC  C211 5189   5.290   5.269   7.242  0.3250  0.4641 -0.5594
   64SAPC  H11R 5190   5.329   5.330   7.159 -0.5428 -0.4728 -1.6794
   64SAPC  C212 5191   5.327   5.306   7.370  0.2707 -0.1796 -0.2479
   64SAPC  H12R 5192   5.383   5.399   7.385 -1.2975  1.0937 -1.7707
   64SAPC  C213 5193   5.298   5.215   7.486  0.1549  0.1456 -0.1093
   64SAPC  H13R 5194   5.344   5.117   7.465 -1.0185 -0.6594  0.9223
   64SAPC  H13S 5195   5.188   5.200   7.493  0.3972 -2.1460 -0.4886
   64SAPC  C214 5196   5.369   5.262   7.610  0.9457  0.3419 -0.2741
   64SAPC  H14R 5197   5.466   5.313   7.596  0.4515  1.4397  0.1558
   64SAPC  C215 5198   5.335   5.222   7.737  0.2287  0.4821 -0.8315
   64SAPC  H15R 5199   5.403   5.252   7.818 -0.9750 -0.0051  0.4094
   64SAPC  C216 5200   5.222   5.126   7.775 -0.2176 -0.6101 -0.0837
   64SAPC  H16R 5201   5.174   5.082   7.685 -1.7450  0.6272  0.0812
   64SAPC  H16S 5202   5.148   5.186   7.833 -0.3382 -1.8827  1.1498
   64SAPC  C217 5203   5.266   5.015   7.873 -0.8157 -0.4814  1.3674
   64SAPC  H17R 5204   5.312   5.062   7.963 -0.1880  0.3524  0.6258
   64SAPC  H17S 5205   5.349   4.960   7.823  0.1500  2.2367 -0.2369
   64SAPC  C218 5206   5.145   4.932   7.926 -0.2601  0.0790 -0.4592
   64SAPC  H18R 5207   5.080   4.907   7.839 -0.9299 -0.4980  0.1876
   64SAPC  H18S 5208   5.090   5.004   7.989  2.7658  1.4198  0.8580
   64SAPC  C219 5209   5.194   4.810   8.010 -0.2208 -0.1636  0.7430
   64SAPC  H19R 5210   5.105   4.754   8.045 -1.8560  1.8796  0.0070
   64SAPC  H19S 5211   5.246   4.849   8.100 -0.6351 -0.2767  1.0339
   64SAPC  C220 5212   5.285   4.724   7.928  0.4336  0.4767  0.0754
   64SAPC  H20R 5213   5.377   4.775   7.892  0.0417  1.1865  0.0766
   64SAPC  H20S 5214   5.233   4.674   7.843  1.2254  1.7635 -1.2163
   64SAPC  H20T 5215   5.336   4.651   7.995  2.0375  0.9564 -0.5652
   64SAPC   C33 5216   4.547   4.503   7.234 -0.2387 -0.1009  0.1991
   64SAPC   H3X 5217   4.465   4.452   7.178  1.4102 -2.4079 -0.2632
   64SAPC   H3Y 5218   4.490   4.578   7.293 -1.5861 -0.8655 -0.0740
   64SAPC   C34 5219   4.621   4.394   7.322  0.1555 -0.1783 -0.7511
   64SAPC   H4X 5220   4.689   4.335   7.256  2.3635 -1.3249  2.3054
   64SAPC   H4Y 5221   4.551   4.325   7.374  1.5444 -1.3376 -0.3464
   64SAPC   C35 5222   4.718   4.449   7.430  0.0461 -0.3484  0.2012
   64SAPC   H5X 5223   4.762   4.545   7.397 -1.8706  1.8310  3.4329
   64SAPC   H5Y 5224   4.798   4.376   7.453 -0.9027 -0.9802  1.6393
   64SAPC   C36 5225   4.646   4.467   7.562 -0.6056 -0.2493  0.0959
   64SAPC   H6X 5226   4.577   4.381   7.571 -0.2661 -0.4052  1.4147
   64SAPC   H6Y 5227   4.586   4.560   7.555 -0.4676 -0.1278  0.4870
   64SAPC   C37 5228   4.741   4.456   7.685  0.2501  0.4516 -0.3404
   64SAPC   H7X 5229   4.807   4.545   7.689  0.3438  0.3646  0.1109
   64SAPC   H7Y 5230   4.822   4.381   7.671  1.2563  1.4462  0.0001
   64SAPC   C38 5231   4.655   4.428   7.811  0.4658  0.2059  0.6461
   64SAPC   H8X 5232   4.592   4.338   7.793 -1.0942  1.3484  0.1355
   64SAPC   H8Y 5233   4.591   4.518   7.830  2.3826  2.1227 -1.4145
   64SAPC   C39 5234   4.738   4.414   7.937 -0.2942  0.1057 -0.3678
   64SAPC   H9X 5235   4.665   4.413   8.021  0.2029 -0.4273  0.0703
   64SAPC   H9Y 5236   4.800   4.504   7.955 -0.2186  0.2642 -1.3495
   64SAPC  C310 5237   4.821   4.286   7.930  0.6781  0.6820  0.0535
   64SAPC  H10X 5238   4.893   4.286   7.845 -0.9975  0.2271 -1.4199
   64SAPC  H10Y 5239   4.757   4.198   7.907  2.1054 -0.0522 -1.3022
   64SAPC  C311 5240   4.875   4.262   8.072  0.4582 -0.0495  0.7124
   64SAPC  H11X 5241   4.886   4.152   8.082 -1.0272 -0.3825 -0.8486
   64SAPC  H11Y 5242   4.809   4.312   8.146 -0.1062  0.6218 -0.2238
   64SAPC  C312 5243   5.017   4.315   8.084  0.1005 -0.2720 -0.3029
   64SAPC  H12X 5244   5.014   4.424   8.062 -2.8776 -0.5469 -1.6528
   64SAPC  H12Y 5245   5.078   4.265   8.006 -0.9258  0.5563 -1.6749
   64SAPC  C313 5246   5.078   4.277   8.224  1.9726  0.0616 -0.7693
   64SAPC  H13X 5247   5.001   4.297   8.302  2.4377 -1.6672  0.1908
   64SAPC  H13Y 5248   5.170   4.332   8.250  0.6587  1.8020  0.4674
   64SAPC  C314 5249   5.103   4.122   8.239  0.1588 -0.4839 -0.3858
   64SAPC  H14X 5250   5.182   4.087   8.170  0.2827 -1.3981  0.1977
   64SAPC  H14Y 5251   5.018   4.051   8.227 -1.3961  1.5577 -2.4196
   64SAPC  C315 5252   5.171   4.109   8.379  0.1450 -0.5785 -0.0233
   64SAPC  H15X 5253   5.121   4.156   8.466  0.2141 -0.4838 -0.0356
   64SAPC  H15Y 5254   5.276   4.144   8.371  0.1331 -0.9407 -2.3132
   64SAPC  C316 5255   5.175   3.957   8.408  0.2622 -0.0783 -0.7280
   64SAPC  H16X 5256   5.216   3.907   8.317  1.1607 -1.6279  0.4762
   64SAPC  H16Y 5257   5.067   3.933   8.425 -0.0550  2.2141  0.8883
   64SAPC  C317 5258   5.262   3.933   8.527 -0.7488  1.1339 -0.2469
   64SAPC  H17X 5259   5.250   4.009   8.607  0.5639  1.8695 -0.7124
   64SAPC  H17Y 5260   5.364   3.957   8.489 -0.7626  0.7598 -0.5251
   64SAPC  C318 5261   5.261   3.791   8.590 -0.5048  0.4477  0.2143
   64SAPC  H18X 5262   5.307   3.731   8.507 -2.5034  0.8568 -1.2633
   64SAPC  H18Y 5263   5.164   3.741   8.610 -1.7887  2.4730 -0.6752
   64SAPC  H18Z 5264   5.323   3.784   8.682 -0.8947 -2.6621  0.3642
   65SAPC     N 5265   0.860   3.247   5.870 -0.0339  0.2497 -0.2456
   65SAPC   C12 5266   0.911   3.272   6.007 -0.2332  0.0844  0.1526
   65SAPC  H12A 5267   1.018   3.272   6.002 -0.1488  2.0487  0.9374
   65SAPC  H12B 5268   0.891   3.188   6.071 -1.6352  0.1209 -0.1923
   65SAPC   C13 5269   0.712   3.224   5.881  0.9271  0.6669  0.0351
   65SAPC  H13A 5270   0.687   3.160   5.964 -0.9794  0.1961 -0.8405
   65SAPC  H13B 5271   0.674   3.318   5.919  0.2582  1.0333 -1.4487
   65SAPC  H13C 5272   0.661   3.207   5.787 -0.2943  1.8649  0.4497
   65SAPC   C14 5273   0.879   3.355   5.771  0.5480  0.9583 -0.5345
   65SAPC  H14A 5274   0.815   3.437   5.799  0.5430  0.7014  0.2345
   65SAPC  H14B 5275   0.980   3.390   5.769  1.1925 -0.8119 -1.0790
   65SAPC  H14C 5276   0.857   3.322   5.670 -0.3780 -0.7347  0.1777
   65SAPC   C15 5277   0.915   3.123   5.811  0.5528  0.4765 -0.4277
   65SAPC  H15A 5278   0.880   3.110   5.710  0.0207 -3.5478  0.1085
   65SAPC  H15B 5279   1.023   3.128   5.812  0.5127  2.0385  0.3540
   65SAPC  H15C 5280   0.889   3.031   5.861  1.4319  1.1635  1.4012
   65SAPC   C11 5281   0.868   3.402   6.081  0.2988 -0.2934  0.6447
   65SAPC  H11A 5282   0.907   3.490   6.024  0.7670 -1.2908 -0.6379
   65SAPC  H11B 5283   0.934   3.389   6.170  2.0079 -0.7853 -0.6337
   65SAPC     P 5284   0.688   3.511   6.215 -0.1828  0.0141  0.4160
   65SAPC   O13 5285   0.700   3.642   6.142 -0.3933 -0.2853 -0.4052
   65SAPC   O14 5286   0.552   3.481   6.255  0.8110  0.7996  0.2092
   65SAPC   O12 5287   0.733   3.394   6.113 -0.3159 -0.7968  0.2290
   65SAPC   O11 5288   0.792   3.496   6.333 -0.1501 -0.0049  0.5200
   65SAPC    C1 5289   0.796   3.386   6.427 -0.1737  0.3993  0.8174
   65SAPC    HA 5290   0.703   3.325   6.423  1.0151 -1.4536 -0.2572
   65SAPC    HB 5291   0.873   3.311   6.398  0.6142  0.6141  2.2611
   65SAPC    C2 5292   0.832   3.427   6.574 -0.5088 -1.2937  0.3373
   65SAPC    HS 5293   0.820   3.335   6.636  2.0644 -1.0626  1.3026
   65SAPC   O21 5294   0.746   3.542   6.606 -0.1362 -0.0625  0.0324
   65SAPC   C21 5295   0.627   3.518   6.651  0.1222 -0.2280 -0.1551
   65SAPC   O22 5296   0.587   3.411   6.693 -0.2822 -0.3448 -0.2167
   65SAPC   C22 5297   0.546   3.648   6.650 -0.2940 -0.1833 -0.6039
   65SAPC   H2R 5298   0.592   3.709   6.569  2.1219 -1.7032 -0.4658
   65SAPC   H2S 5299   0.447   3.604   6.626 -0.5893 -1.2911  2.2625
   65SAPC    C3 5300   0.980   3.466   6.606 -0.3915  0.8072 -0.0083
   65SAPC    HX 5301   1.010   3.528   6.519 -0.0047 -1.5994 -1.7035
   65SAPC    HY 5302   1.044   3.375   6.605 -1.8671 -0.3160  1.1815
   65SAPC   O31 5303   1.000   3.540   6.724  0.8518  0.5303 -0.0852
   65SAPC   C31 5304   0.984   3.482   6.839 -0.1461 -0.0763 -0.9498
   65SAPC   O32 5305   0.953   3.366   6.853  0.0351  0.0079 -0.6120
   65SAPC   C32 5306   1.018   3.574   6.957 -0.0323  0.5648  0.4053
   65SAPC   H2X 5307   0.953   3.663   6.949 -0.9286 -0.0014  1.2347
   65SAPC   H2Y 5308   1.123   3.609   6.947 -0.2427  1.9673  2.5211
   65SAPC   C23 5309   0.525   3.731   6.778 -0.8632  0.2257  0.1951
   65SAPC   H3R 5310   0.462   3.674   6.849  1.5846  0.6015  2.8569
   65SAPC   H3S 5311   0.465   3.820   6.749 -0.2489  0.6787  0.2862
   65SAPC   C24 5312   0.662   3.769   6.850  0.5970  0.4770 -0.1234
   65SAPC   H4R 5313   0.742   3.771   6.772 -0.8904  0.9615 -1.7008
   65SAPC   H4S 5314   0.668   3.678   6.912 -2.3394 -0.6809 -1.3748
   65SAPC   C25 5315   0.653   3.893   6.931 -0.1525  1.4456 -0.6166
   65SAPC   H5R 5316   0.626   3.985   6.876  1.2060  1.6016 -1.0567
   65SAPC   C26 5317   0.670   3.896   7.062  0.5254 -0.1289 -0.1435
   65SAPC   H6R 5318   0.658   3.992   7.115  1.0903  2.1868 -3.8861
   65SAPC   C27 5319   0.718   3.780   7.146  0.7725  0.2162 -0.0550
   65SAPC   H7R 5320   0.757   3.828   7.238  0.6702 -0.2183  0.2161
   65SAPC   H7S 5321   0.803   3.729   7.096  0.6143 -0.1074  0.0004
   65SAPC   C28 5322   0.608   3.683   7.194  0.4016  0.1939 -0.3117
   65SAPC   H8R 5323   0.515   3.683   7.136  0.0041 -0.8993  0.3063
   65SAPC   C29 5324   0.618   3.599   7.302  0.8320 -0.4131 -0.4763
   65SAPC   H9R 5325   0.533   3.533   7.323  1.3774 -0.8897  0.2860
   65SAPC  C210 5326   0.735   3.589   7.396 -0.5288 -0.1908  0.1337
   65SAPC  H10R 5327   0.794   3.682   7.381 -1.3299  0.3699  0.3938
   65SAPC  H10S 5328   0.803   3.504   7.373 -0.8017 -0.6283  0.9059
   65SAPC  C211 5329   0.695   3.572   7.538  0.4709 -0.3150 -0.4180
   65SAPC  H11R 5330   0.664   3.470   7.566  0.3975 -0.2302 -0.1899
   65SAPC  C212 5331   0.681   3.666   7.634 -0.0337  0.6251 -0.0407
   65SAPC  H12R 5332   0.643   3.627   7.729  3.2200 -1.3185  0.6394
   65SAPC  C213 5333   0.703   3.814   7.625  0.0281  0.0318 -0.3472
   65SAPC  H13R 5334   0.746   3.841   7.526  0.0362 -1.0880 -0.6633
   65SAPC  H13S 5335   0.796   3.834   7.682  0.8189 -0.4329 -1.4308
   65SAPC  C214 5336   0.596   3.915   7.679 -0.6026 -0.3472 -0.8292
   65SAPC  H14R 5337   0.549   3.983   7.606  0.8310  1.5801 -0.0541
   65SAPC  C215 5338   0.571   3.936   7.812  0.4318  0.1044 -0.2277
   65SAPC  H15R 5339   0.498   4.014   7.839 -0.3566 -0.3256 -1.0450
   65SAPC  C216 5340   0.635   3.859   7.930  0.0946  0.1203 -0.7469
   65SAPC  H16R 5341   0.744   3.851   7.913 -0.1881  0.0488 -2.8245
   65SAPC  H16S 5342   0.588   3.758   7.926  1.2385 -0.3887 -1.7935
   65SAPC  C217 5343   0.608   3.910   8.075 -0.2256 -0.2775 -0.2745
   65SAPC  H17R 5344   0.665   4.004   8.087 -1.4775  0.4258  0.3351
   65SAPC  H17S 5345   0.651   3.834   8.143 -0.5585 -0.1347  0.0978
   65SAPC  C218 5346   0.463   3.929   8.122 -0.4439 -0.4340  0.1333
   65SAPC  H18R 5347   0.422   3.828   8.141  0.1700 -1.0110 -1.4696
   65SAPC  H18S 5348   0.394   3.977   8.050 -0.3627  3.2194  2.2306
   65SAPC  C219 5349   0.441   4.006   8.251  0.0104 -0.3195  0.6254
   65SAPC  H19R 5350   0.526   3.966   8.311 -1.1700 -1.1230  1.8167
   65SAPC  H19S 5351   0.343   3.982   8.297  0.1258  0.8977  1.5674
   65SAPC  C220 5352   0.455   4.161   8.229  0.1159  0.8775 -0.4495
   65SAPC  H20R 5353   0.386   4.200   8.151  1.2234  1.4281 -1.1963
   65SAPC  H20S 5354   0.555   4.184   8.186  1.0510 -1.2377  0.4322
   65SAPC  H20T 5355   0.437   4.218   8.322 -1.4079 -0.9086  0.4308
   65SAPC   C33 5356   1.013   3.501   7.100  0.3505  0.5287  0.2314
   65SAPC   H3X 5357   1.063   3.402   7.095 -0.5473 -0.1435  2.8366
   65SAPC   H3Y 5358   0.904   3.486   7.116  0.3029  1.3535  0.7412
   65SAPC   C34 5359   1.048   3.598   7.211  0.1041 -0.4153  0.1509
   65SAPC   H4X 5360   0.965   3.668   7.236  1.5419  1.7554 -0.7707
   65SAPC   H4Y 5361   1.132   3.661   7.174 -0.6408  1.3086  1.2489
   65SAPC   C35 5362   1.109   3.530   7.330 -0.1123  0.5300 -0.2780
   65SAPC   H5X 5363   1.188   3.457   7.302 -1.7918 -1.8618  0.8601
   65SAPC   H5Y 5364   1.031   3.478   7.390 -0.2316  1.0829  0.0606
   65SAPC   C36 5365   1.172   3.640   7.429 -0.3672 -0.0222 -0.5022
   65SAPC   H6X 5366   1.108   3.731   7.427  1.8380  1.5751 -1.6794
   65SAPC   H6Y 5367   1.273   3.655   7.386  0.7698 -0.7370  1.7259
   65SAPC   C37 5368   1.186   3.590   7.573 -0.3027 -0.8514  0.1119
   65SAPC   H7X 5369   1.250   3.670   7.617  0.9552 -2.2944  1.0098
   65SAPC   H7Y 5370   1.237   3.492   7.586  2.4550  0.6507  1.4661
   65SAPC   C38 5371   1.047   3.594   7.637  0.2053 -0.2758 -0.2189
   65SAPC   H8X 5372   1.019   3.489   7.661  0.8700 -0.3894  0.1021
   65SAPC   H8Y 5373   0.975   3.630   7.560  1.8448  2.0573 -0.7826
   65SAPC   C39 5374   1.038   3.690   7.756  0.4476 -0.1216  0.9576
   65SAPC   H9X 5375   0.930   3.691   7.781 -0.0507 -1.2270 -0.9137
   65SAPC   H9Y 5376   1.065   3.793   7.726 -1.5637 -0.2845 -1.8255
   65SAPC  C310 5377   1.117   3.633   7.874  0.3011 -0.1088 -0.7758
   65SAPC  H10X 5378   1.221   3.610   7.844  0.5098 -2.0967  1.1731
   65SAPC  H10Y 5379   1.066   3.537   7.900 -0.5034  0.1085 -1.5039
   65SAPC  C311 5380   1.102   3.734   7.991  0.1963 -0.2933  0.0940
   65SAPC  H11X 5381   0.993   3.737   8.011  0.5354 -0.2389  2.2677
   65SAPC  H11Y 5382   1.137   3.834   7.958  0.4854 -0.8373 -1.3060
   65SAPC  C312 5383   1.178   3.698   8.118  0.0081 -0.0153  0.0452
   65SAPC  H12X 5384   1.180   3.780   8.193 -1.4845  1.9323 -1.8795
   65SAPC  H12Y 5385   1.286   3.702   8.095  0.0709  0.6197  0.4343
   65SAPC  C313 5386   1.156   3.559   8.178  0.2689 -0.0463  0.4569
   65SAPC  H13X 5387   1.179   3.493   8.092 -0.0341  0.5682 -0.1069
   65SAPC  H13Y 5388   1.050   3.540   8.206  0.3860 -1.3466  0.0502
   65SAPC  C314 5389   1.241   3.532   8.305 -0.6135 -0.1904 -0.3787
   65SAPC  H14X 5390   1.215   3.615   8.374  1.4223  1.1903 -1.1963
   65SAPC  H14Y 5391   1.344   3.558   8.273 -0.4247 -0.7992 -0.2857
   65SAPC  C315 5392   1.222   3.407   8.381  0.1431  0.1171  0.1137
   65SAPC  H15X 5393   1.261   3.321   8.322 -1.1886  0.5230 -1.4395
   65SAPC  H15Y 5394   1.112   3.400   8.388  0.2676 -0.4003  1.9795
   65SAPC  C316 5395   1.279   3.417   8.515  0.4198  0.2111 -0.1189
   65SAPC  H16X 5396   1.226   3.340   8.576  0.0053  1.3930  1.0645
   65SAPC  H16Y 5397   1.264   3.516   8.564 -0.4895 -0.2664  0.6065
   65SAPC  C317 5398   1.427   3.383   8.539  0.0971 -0.1528  0.7274
   65SAPC  H17X 5399   1.484   3.447   8.468  1.9104 -0.8321  1.5016
   65SAPC  H17Y 5400   1.451   3.277   8.517 -0.0006  0.0102 -0.1755
   65SAPC  C318 5401   1.480   3.416   8.675  0.0717  0.2921  0.1839
   65SAPC  H18X 5402   1.480   3.525   8.696  1.3940 -0.1858  3.2208
   65SAPC  H18Y 5403   1.586   3.384   8.683 -0.5728 -2.5259 -1.4091
   65SAPC  H18Z 5404   1.427   3.361   8.756  0.9559 -3.0572 -1.3491
   66SAPC     N 5405   5.746   5.194   5.934 -0.3616 -0.1788  0.3608
   66SAPC   C12 5406   5.697   5.219   6.076 -0.1046 -0.0851  0.3341
   66SAPC  H12A 5407   5.704   5.128   6.132 -0.1249 -0.0057  0.4657
   66SAPC  H12B 5408   5.592   5.235   6.058 -0.5073 -0.1820  2.3637
   66SAPC   C13 5409   5.686   5.062   5.887  0.3127 -0.4054  0.8674
   66SAPC  H13A 5410   5.702   4.987   5.962 -0.0631  0.0584  1.4195
   66SAPC  H13B 5411   5.582   5.082   5.865  0.3747  0.1834  1.0749
   66SAPC  H13C 5412   5.736   5.036   5.795  0.0647 -1.8604  1.1192
   66SAPC   C14 5413   5.705   5.306   5.831 -0.5998  0.4624  0.3294
   66SAPC  H14A 5414   5.740   5.401   5.870 -1.0672  0.9586 -0.4272
   66SAPC  H14B 5415   5.763   5.294   5.741  0.2549 -2.1148  1.1417
   66SAPC  H14C 5416   5.599   5.308   5.807 -0.3045  2.0034 -0.9883
   66SAPC   C15 5417   5.893   5.172   5.931 -0.5817 -0.3141  0.3349
   66SAPC  H15A 5418   5.912   5.128   5.834  2.6230  1.7561 -0.0999
   66SAPC  H15B 5419   5.952   5.263   5.929 -0.7257 -0.2298 -0.1944
   66SAPC  H15C 5420   5.930   5.100   6.002  0.0301 -2.6282 -2.1663
   66SAPC   C11 5421   5.770   5.326   6.161 -0.6640  0.2815  0.1444
   66SAPC  H11A 5422   5.878   5.299   6.164 -1.3765 -2.9393  0.2788
   66SAPC  H11B 5423   5.726   5.320   6.263 -1.2306  1.7567  0.0104
   66SAPC     P 5424   5.635   5.541   6.107  0.3635 -0.2504 -0.0068
   66SAPC   O13 5425   5.633   5.625   5.985 -0.0239  0.4011  0.3765
   66SAPC   O14 5426   5.519   5.455   6.130 -0.1034  0.1409  0.2864
   66SAPC   O12 5427   5.761   5.451   6.102 -0.0235  0.2055 -0.0024
   66SAPC   O11 5428   5.661   5.639   6.233 -0.2047 -0.4323  0.2377
   66SAPC    C1 5429   5.783   5.625   6.310 -0.5329  0.0570  0.1432
   66SAPC    HA 5430   5.844   5.533   6.301  0.8458  0.4815  3.4774
   66SAPC    HB 5431   5.852   5.706   6.280  2.6499 -2.4038  0.2255
   66SAPC    C2 5432   5.755   5.638   6.464 -0.4272  1.0279 -0.3246
   66SAPC    HS 5433   5.748   5.748   6.479  0.7272  1.1143 -0.3779
   66SAPC   O21 5434   5.867   5.581   6.544 -0.2087 -0.6114 -0.1071
   66SAPC   C21 5435   5.978   5.649   6.540 -0.1450 -0.9569  0.5718
   66SAPC   O22 5436   5.993   5.757   6.478  0.1827  0.3000 -0.1270
   66SAPC   C22 5437   6.078   5.573   6.617 -0.7784  0.0782 -0.0759
   66SAPC   H2R 5438   6.031   5.478   6.650 -0.0255 -0.7011 -1.1514
   66SAPC   H2S 5439   6.156   5.551   6.541  1.0711  2.1258  1.1596
   66SAPC    C3 5440   5.624   5.559   6.492 -0.8251 -0.4774  0.9728
   66SAPC    HX 5441   5.653   5.454   6.470  0.8969 -0.2942  2.1836
   66SAPC    HY 5442   5.549   5.611   6.429 -0.4965 -1.4640 -0.2976
   66SAPC   O31 5443   5.596   5.572   6.636 -0.1051 -0.6788 -0.1299
   66SAPC   C31 5444   5.614   5.465   6.719  0.6092  0.6174  0.4079
   66SAPC   O32 5445   5.647   5.353   6.684 -0.1744  0.0875 -0.0423
   66SAPC   C32 5446   5.583   5.509   6.860 -0.3722 -0.5663  0.5755
   66SAPC   H2X 5447   5.472   5.513   6.866 -0.6989 -0.0604 -3.2705
   66SAPC   H2Y 5448   5.623   5.613   6.860  0.4335 -0.8678  1.5143
   66SAPC   C23 5449   6.147   5.643   6.736  0.1225  0.3348 -0.0068
   66SAPC   H3R 5450   6.206   5.734   6.711  1.4562 -0.6697 -0.6236
   66SAPC   H3S 5451   6.221   5.570   6.775 -1.1749 -0.7230  0.5942
   66SAPC   C24 5452   6.056   5.671   6.853  0.2122  0.1154 -0.7211
   66SAPC   H4R 5453   6.122   5.687   6.940 -1.9548  0.0553  1.0147
   66SAPC   H4S 5454   5.989   5.588   6.883 -1.6641  1.8137 -0.0206
   66SAPC   C25 5455   5.965   5.792   6.836  0.2663  0.2902  0.3722
   66SAPC   H5R 5456   5.891   5.779   6.756 -0.6667  1.2218  1.0463
   66SAPC   C26 5457   5.955   5.908   6.903  0.2015 -0.4358 -0.0452
   66SAPC   H6R 5458   5.879   5.983   6.875 -0.4305 -1.3838 -0.9403
   66SAPC   C27 5459   6.045   5.958   7.010  0.2313  1.1969  0.0156
   66SAPC   H7R 5460   6.117   5.876   7.031 -1.9952 -0.5738  1.1973
   66SAPC   H7S 5461   6.001   5.968   7.112  0.5716 -0.4103  0.3565
   66SAPC   C28 5462   6.116   6.089   6.986  0.1644  0.0180  0.1805
   66SAPC   H8R 5463   6.047   6.171   7.012 -0.6776 -0.7283  0.3575
   66SAPC   C29 5464   6.246   6.113   6.950 -0.0161 -1.1813  0.3752
   66SAPC   H9R 5465   6.284   6.217   6.950  0.4079 -1.3068 -1.3804
   66SAPC  C210 5466   6.356   6.010   6.928 -0.0185 -0.1333 -0.2220
   66SAPC  H10R 5467   6.325   5.904   6.926 -0.5559  0.0366 -1.2703
   66SAPC  H10S 5468   6.436   6.010   7.006  0.6129  0.5954 -0.8479
   66SAPC  C211 5469   6.439   6.048   6.800  0.8101  0.4811 -0.7227
   66SAPC  H11R 5470   6.426   6.148   6.758 -1.4648  0.1123 -0.9976
   66SAPC  C212 5471   6.544   5.974   6.771  0.0805 -1.0391  0.9869
   66SAPC  H12R 5472   6.601   6.010   6.684  1.9964  0.4078  2.7433
   66SAPC  C213 5473   6.593   5.852   6.832 -0.3931  0.1284 -0.1773
   66SAPC  H13R 5474   6.569   5.847   6.940 -2.0770  0.7052 -0.4907
   66SAPC  H13S 5475   6.703   5.869   6.822 -0.4850  1.2963  0.6273
   66SAPC  C214 5476   6.542   5.723   6.773 -0.4475 -0.3584  0.3815
   66SAPC  H14R 5477   6.450   5.727   6.712 -0.1931  0.4513  0.0253
   66SAPC  C215 5478   6.593   5.601   6.786  0.6201  0.1906 -0.5940
   66SAPC  H15R 5479   6.563   5.519   6.719  3.4188 -1.7341  0.3430
   66SAPC  C216 5480   6.721   5.583   6.855  0.0975 -0.1460 -0.1022
   66SAPC  H16R 5481   6.781   5.676   6.864 -0.8768  0.4097  0.9323
   66SAPC  H16S 5482   6.785   5.517   6.793  0.3020  1.0779 -1.2432
   66SAPC  C217 5483   6.688   5.525   6.996  0.0057  0.2348 -0.1600
   66SAPC  H17R 5484   6.617   5.594   7.045  1.0381  2.1686 -1.2598
   66SAPC  H17S 5485   6.784   5.523   7.052  1.2620 -0.1794 -2.2154
   66SAPC  C218 5486   6.636   5.381   7.003 -0.1934 -0.3437 -0.3341
   66SAPC  H18R 5487   6.720   5.310   6.988 -0.6588 -0.7727 -0.9437
   66SAPC  H18S 5488   6.563   5.367   6.921 -2.5874  2.6541  1.0576
   66SAPC  C219 5489   6.574   5.360   7.137  0.1906  0.1138 -0.2912
   66SAPC  H19R 5490   6.482   5.422   7.139  0.4168  0.4715 -0.9261
   66SAPC  H19S 5491   6.636   5.411   7.214 -2.4457  2.8834  0.1628
   66SAPC  C220 5492   6.550   5.211   7.178  0.6510 -0.6932 -0.1485
   66SAPC  H20R 5493   6.528   5.196   7.286  1.1774  2.9673  0.6246
   66SAPC  H20S 5494   6.643   5.155   7.157  0.9566 -0.2439 -0.0011
   66SAPC  H20T 5495   6.464   5.178   7.115 -0.9916 -1.0882  2.1793
   66SAPC   C33 5496   5.640   5.418   6.962  0.2846 -0.3587 -0.4047
   66SAPC   H3X 5497   5.746   5.402   6.933  0.9654  1.2870  1.0037
   66SAPC   H3Y 5498   5.582   5.323   6.965 -1.4386  0.6935  1.1086
   66SAPC   C34 5499   5.643   5.497   7.098  0.2222  0.1024 -0.5290
   66SAPC   H4X 5500   5.543   5.541   7.118  0.4865  0.1840  0.6652
   66SAPC   H4Y 5501   5.724   5.573   7.100  2.6824 -2.3818  1.3456
   66SAPC   C35 5502   5.681   5.399   7.221  0.3734 -0.4640  0.3010
   66SAPC   H5X 5503   5.773   5.342   7.193  1.8763  0.5406  2.8656
   66SAPC   H5Y 5504   5.594   5.330   7.230 -0.9026  0.7510 -1.8800
   66SAPC   C36 5505   5.701   5.474   7.354 -0.2556  0.1222  0.6362
   66SAPC   H6X 5506   5.600   5.503   7.391 -1.3938 -0.1834 -2.0605
   66SAPC   H6Y 5507   5.747   5.574   7.341  1.2802 -0.6829 -0.3392
   66SAPC   C37 5508   5.762   5.388   7.455 -0.3264 -0.0359  0.5829
   66SAPC   H7X 5509   5.861   5.351   7.421 -0.8444  0.3212 -1.4316
   66SAPC   H7Y 5510   5.693   5.301   7.466  0.9997 -1.0887  0.7598
   66SAPC   C38 5511   5.788   5.446   7.597 -0.0320 -0.1087  0.1716
   66SAPC   H8X 5512   5.691   5.485   7.632  0.2641 -0.9898  2.0724
   66SAPC   H8Y 5513   5.857   5.533   7.585 -1.3473  0.9017 -0.2842
   66SAPC   C39 5514   5.852   5.341   7.687  0.3677 -0.1814  0.1233
   66SAPC   H9X 5515   5.898   5.390   7.775  0.0731 -1.2094  0.8724
   66SAPC   H9Y 5516   5.927   5.286   7.626 -0.3938  0.0593 -1.0636
   66SAPC  C310 5517   5.739   5.253   7.739 -0.5111  0.9038 -1.1689
   66SAPC  H10X 5518   5.666   5.219   7.662 -0.7636  0.6056 -0.8006
   66SAPC  H10Y 5519   5.677   5.319   7.802  1.3772  0.4768  1.3055
   66SAPC  C311 5520   5.785   5.119   7.817 -0.0492  0.2397  0.5690
   66SAPC  H11X 5521   5.868   5.150   7.884  0.0201  0.6322  0.3064
   66SAPC  H11Y 5522   5.824   5.040   7.749 -2.1494 -2.1293  1.9372
   66SAPC  C312 5523   5.673   5.047   7.900  0.7266 -0.8195  0.5171
   66SAPC  H12X 5524   5.589   5.044   7.828  1.5577  0.9560 -0.6144
   66SAPC  H12Y 5525   5.652   5.119   7.982  1.2120 -1.1635  0.9495
   66SAPC  C313 5526   5.703   4.915   7.968  0.5154  0.0432  0.0121
   66SAPC  H13X 5527   5.811   4.900   7.990  0.5864 -2.6799 -1.7864
   66SAPC  H13Y 5528   5.684   4.831   7.898  1.5833 -0.8999  0.8205
   66SAPC  C314 5529   5.614   4.903   8.090 -0.1837  0.0273  0.2356
   66SAPC  H14X 5530   5.511   4.907   8.049  0.1287 -0.4827 -0.6214
   66SAPC  H14Y 5531   5.614   4.989   8.161  1.6317 -1.7126  2.5160
   66SAPC  C315 5532   5.636   4.781   8.181 -0.1569 -1.4800  0.0209
   66SAPC  H15X 5533   5.618   4.687   8.125 -1.9435 -0.0336 -2.0112
   66SAPC  H15Y 5534   5.563   4.779   8.265 -0.2031  1.7543  0.1788
   66SAPC  C316 5535   5.775   4.790   8.257 -0.6053 -0.5241 -0.9254
   66SAPC  H16X 5536   5.855   4.831   8.192 -1.4451 -0.5576 -2.0110
   66SAPC  H16Y 5537   5.818   4.689   8.278  1.5731  0.3450 -0.9863
   66SAPC  C317 5538   5.771   4.884   8.379 -0.1434  0.8593 -0.0761
   66SAPC  H17X 5539   5.699   4.849   8.456  0.1208 -1.1735 -0.6936
   66SAPC  H17Y 5540   5.736   4.985   8.350 -0.3789  0.3873 -1.5274
   66SAPC  C318 5541   5.906   4.909   8.443 -0.9451  0.7274  0.7147
   66SAPC  H18X 5542   5.955   4.815   8.475 -2.9272 -2.1321 -3.6735
   66SAPC  H18Y 5543   5.897   4.994   8.514 -0.8604 -0.8505  2.7016
   66SAPC  H18Z 5544   5.967   4.961   8.367 -0.5157 -1.3380 -0.4383
   67SAPC     N 5545   0.568   3.964   6.129  0.2861 -0.4136  0.0895
   67SAPC   C12 5546   0.507   4.107   6.116 -0.3117 -0.0095 -0.6093
   67SAPC  H12A 5547   0.401   4.090   6.112 -0.8735  2.6572  0.8874
   67SAPC  H12B 5548   0.532   4.152   6.021  0.4709 -0.8649 -0.8323
   67SAPC   C13 5549   0.530   3.900   6.260  0.1920  0.2321  0.0202
   67SAPC  H13A 5550   0.427   3.890   6.291  0.6773 -2.4275  1.0605
   67SAPC  H13B 5551   0.570   3.800   6.253 -1.0058 -0.4629  2.0628
   67SAPC  H13C 5552   0.584   3.940   6.345  1.4852 -0.0604 -0.6452
   67SAPC   C14 5553   0.520   3.890   6.010  0.4579  0.3054  0.1075
   67SAPC  H14A 5554   0.557   3.932   5.917 -0.0906 -0.2455 -0.3709
   67SAPC  H14B 5555   0.560   3.790   6.007 -0.5267 -0.0779 -1.0984
   67SAPC  H14C 5556   0.413   3.886   6.002  0.6257 -1.5202 -2.3160
   67SAPC   C15 5557   0.720   3.968   6.128  0.6932  0.3678 -0.2508
   67SAPC  H15A 5558   0.760   3.869   6.138 -2.7924 -1.2604 -0.7982
   67SAPC  H15B 5559   0.750   4.013   6.035 -2.5907 -1.7763 -2.5787
   67SAPC  H15C 5560   0.752   4.028   6.213 -3.3356  2.8661 -0.1791
   67SAPC   C11 5561   0.541   4.212   6.230 -0.3818 -0.3851  0.2832
   67SAPC  H11A 5562   0.508   4.169   6.327 -0.5187  0.5656  0.6702
   67SAPC  H11B 5563   0.487   4.308   6.215  0.7241  0.6179  2.2121
   67SAPC     P 5564   0.753   4.260   6.366  0.4065  0.1831 -0.0419
   67SAPC   O13 5565   0.789   4.128   6.411  0.7911 -0.3229 -0.2160
   67SAPC   O14 5566   0.869   4.347   6.356  0.3677 -0.5270  0.0339
   67SAPC   O12 5567   0.682   4.254   6.229 -0.1828 -0.2833 -0.3413
   67SAPC   O11 5568   0.654   4.336   6.463  0.0734  0.3908 -0.1992
   67SAPC    C1 5569   0.606   4.471   6.433  0.3737  0.4052  0.3081
   67SAPC    HA 5570   0.643   4.516   6.339  0.6176 -1.5418 -0.5836
   67SAPC    HB 5571   0.495   4.474   6.432  0.3742  0.4036  0.1599
   67SAPC    C2 5572   0.645   4.563   6.552 -0.0871 -0.2260 -0.4023
   67SAPC    HS 5573   0.755   4.569   6.539  0.5335 -1.9467  2.9236
   67SAPC   O21 5574   0.599   4.508   6.675 -0.8983  0.4889  0.1135
   67SAPC   C21 5575   0.700   4.465   6.755  0.5698 -1.2118  0.4310
   67SAPC   O22 5576   0.821   4.476   6.733  0.0391 -0.4411 -0.0908
   67SAPC   C22 5577   0.635   4.410   6.878  0.8492  0.5765  0.1220
   67SAPC   H2R 5578   0.526   4.430   6.871  1.0352  1.4579 -0.3443
   67SAPC   H2S 5579   0.656   4.302   6.861 -0.3043  0.5758 -1.5576
   67SAPC    C3 5580   0.600   4.717   6.537 -0.0296 -0.2435 -1.1031
   67SAPC    HX 5581   0.490   4.727   6.527 -0.3838  0.8880  2.4193
   67SAPC    HY 5582   0.655   4.758   6.450  3.0022 -2.9795 -0.7040
   67SAPC   O31 5583   0.642   4.781   6.664 -0.3953 -0.1935 -0.4793
   67SAPC   C31 5584   0.644   4.915   6.640 -0.0263 -0.1723 -0.3306
   67SAPC   O32 5585   0.602   4.973   6.543  0.2458 -0.5727  0.7388
   67SAPC   C32 5586   0.716   4.987   6.758  0.0993  0.0008 -0.0243
   67SAPC   H2X 5587   0.813   5.017   6.713 -0.3964  0.6364 -0.6952
   67SAPC   H2Y 5588   0.727   4.915   6.841 -1.2236  0.1181  0.2749
   67SAPC   C23 5589   0.695   4.470   7.003 -0.4544  0.3440  0.1088
   67SAPC   H3R 5590   0.685   4.581   7.003 -2.9577  0.2428  2.9275
   67SAPC   H3S 5591   0.805   4.456   7.009 -0.5887 -1.5564 -1.1142
   67SAPC   C24 5592   0.643   4.421   7.135  0.1992 -0.2418 -0.1180
   67SAPC   H4R 5593   0.533   4.426   7.128 -0.1280 -1.6522  2.4047
   67SAPC   H4S 5594   0.680   4.490   7.214 -0.2847 -1.5123  1.2645
   67SAPC   C25 5595   0.697   4.281   7.168 -0.1225  0.1226 -0.1330
   67SAPC   H5R 5596   0.737   4.228   7.080 -0.7731 -0.2236 -0.2202
   67SAPC   C26 5597   0.677   4.215   7.285  0.0281 -0.0276  0.1799
   67SAPC   H6R 5598   0.714   4.112   7.289 -0.6811 -0.3593 -1.0288
   67SAPC   C27 5599   0.601   4.266   7.404  0.4888  0.4546 -0.2922
   67SAPC   H7R 5600   0.571   4.176   7.461 -0.0477  1.4019  0.9727
   67SAPC   H7S 5601   0.504   4.313   7.379  0.2579  0.0353 -0.1916
   67SAPC   C28 5602   0.681   4.352   7.502 -0.7681  0.0576  0.3332
   67SAPC   H8R 5603   0.761   4.416   7.461 -0.2094 -0.2938  0.8385
   67SAPC   C29 5604   0.666   4.365   7.635  0.3501  0.1906  0.0791
   67SAPC   H9R 5605   0.734   4.437   7.683  1.0483 -1.3368  1.4636
   67SAPC  C210 5606   0.561   4.304   7.718  0.4704 -0.2826  0.0926
   67SAPC  H10R 5607   0.546   4.199   7.685  0.2216 -0.0738 -0.4645
   67SAPC  H10S 5608   0.458   4.341   7.703  0.3195 -0.7261  0.0385
   67SAPC  C211 5609   0.610   4.300   7.863  0.6267 -0.0833  0.1274
   67SAPC  H11R 5610   0.695   4.232   7.883  1.0604  0.7817  1.3183
   67SAPC  C212 5611   0.558   4.373   7.965 -0.9224  0.2191  0.4199
   67SAPC  H12R 5612   0.604   4.370   8.065 -1.0554  2.4435  0.6092
   67SAPC  C213 5613   0.458   4.484   7.954 -0.2204  0.3951 -0.4894
   67SAPC  H13R 5614   0.359   4.449   7.990 -0.7626  1.0663 -1.2825
   67SAPC  H13S 5615   0.449   4.513   7.847 -0.2122  2.6505  0.0781
   67SAPC  C214 5616   0.497   4.609   8.028  0.0378  0.5195  0.8440
   67SAPC  H14R 5617   0.606   4.629   8.023  0.0439  0.3563 -2.6679
   67SAPC  C215 5618   0.405   4.692   8.079 -0.2126 -0.7497  0.4647
   67SAPC  H15R 5619   0.446   4.783   8.124 -0.8674 -0.7122  1.0011
   67SAPC  C216 5620   0.254   4.669   8.080 -0.3204  0.2684 -0.1994
   67SAPC  H16R 5621   0.210   4.627   7.987 -2.3818 -2.0082  1.6643
   67SAPC  H16S 5622   0.203   4.767   8.097 -0.5989  0.0038  0.5162
   67SAPC  C217 5623   0.199   4.584   8.193  0.4530 -0.0514  0.1385
   67SAPC  H17R 5624   0.251   4.486   8.190 -1.3825 -1.0830  0.6775
   67SAPC  H17S 5625   0.093   4.555   8.174  0.5128  0.4737 -1.1107
   67SAPC  C218 5626   0.222   4.655   8.333  0.5960 -0.0985 -0.7197
   67SAPC  H18R 5627   0.328   4.687   8.336  0.5377  0.2321 -1.6902
   67SAPC  H18S 5628   0.216   4.578   8.413 -0.2155  0.2247 -0.4601
   67SAPC  C219 5629   0.130   4.783   8.363  0.0752  0.0523  0.8080
   67SAPC  H19R 5630   0.022   4.767   8.343 -0.2382  0.2407  2.1921
   67SAPC  H19S 5631   0.151   4.863   8.290 -0.8443  0.0672  0.5532
   67SAPC  C220 5632   0.148   4.842   8.495 -0.3277  0.1559  0.0208
   67SAPC  H20R 5633   0.110   4.775   8.576  1.9245 -1.1819  0.0511
   67SAPC  H20S 5634   0.091   4.935   8.516 -0.6003  0.1221 -0.5637
   67SAPC  H20T 5635   0.257   4.849   8.514 -0.8406  0.2659  3.8742
   67SAPC   C33 5636   0.630   5.112   6.807 -0.2665  0.4524 -0.4084
   67SAPC   H3X 5637   0.538   5.075   6.857 -0.4935  2.9821  1.2212
   67SAPC   H3Y 5638   0.601   5.168   6.716 -1.4594  2.8590  1.3207
   67SAPC   C34 5639   0.714   5.201   6.889  0.2247 -0.4638  0.2265
   67SAPC   H4X 5640   0.669   5.302   6.876 -0.0144 -0.8146 -2.0696
   67SAPC   H4Y 5641   0.818   5.219   6.852 -0.0642  3.0891  0.7386
   67SAPC   C35 5642   0.720   5.169   7.034 -0.0062 -0.5072 -0.0988
   67SAPC   H5X 5643   0.764   5.067   7.047  0.9629 -0.3036 -1.5588
   67SAPC   H5Y 5644   0.613   5.152   7.057 -0.8729  0.8890 -2.7150
   67SAPC   C36 5645   0.781   5.271   7.128 -0.1195 -0.3869  0.3394
   67SAPC   H6X 5646   0.754   5.376   7.106  1.4779  0.5803  2.5656
   67SAPC   H6Y 5647   0.891   5.259   7.121 -0.0904  0.1156 -0.0445
   67SAPC   C37 5648   0.744   5.221   7.267  0.3678  0.4637  0.3300
   67SAPC   H7X 5649   0.641   5.179   7.268  0.2615  0.5048 -2.2477
   67SAPC   H7Y 5650   0.744   5.306   7.339 -1.0788  1.0306 -0.2968
   67SAPC   C38 5651   0.859   5.128   7.333 -0.0028 -0.1490  0.7792
   67SAPC   H8X 5652   0.953   5.186   7.341 -0.8331  1.4798 -0.5419
   67SAPC   H8Y 5653   0.884   5.050   7.258  0.6333  1.1069 -0.3768
   67SAPC   C39 5654   0.843   5.056   7.460 -0.3770 -0.4297  0.1012
   67SAPC   H9X 5655   0.932   4.989   7.472 -0.0291 -0.0489 -0.3189
   67SAPC   H9Y 5656   0.755   4.990   7.450 -1.6549  0.9466  1.7785
   67SAPC  C310 5657   0.823   5.150   7.580  0.6605  0.1966 -0.0800
   67SAPC  H10X 5658   0.746   5.221   7.542 -0.0205 -1.1613 -1.3550
   67SAPC  H10Y 5659   0.912   5.213   7.606 -0.9559  2.7737 -0.4449
   67SAPC  C311 5660   0.785   5.081   7.705  0.3176  0.0562  0.3544
   67SAPC  H11X 5661   0.851   4.994   7.726  0.7154 -0.1246 -1.5293
   67SAPC  H11Y 5662   0.678   5.051   7.702  0.4354 -0.5545  1.7030
   67SAPC  C312 5663   0.810   5.180   7.819  0.0661  0.2801  1.0039
   67SAPC  H12X 5664   0.755   5.276   7.809  1.0667  0.6523 -2.0347
   67SAPC  H12Y 5665   0.915   5.214   7.811 -0.1899  0.6598 -2.1295
   67SAPC  C313 5666   0.783   5.116   7.958  0.2436  0.7452 -0.3604
   67SAPC  H13X 5667   0.679   5.078   7.970  1.2161 -2.4389 -0.9906
   67SAPC  H13Y 5668   0.796   5.194   8.035  1.8210  1.8699 -1.6899
   67SAPC  C314 5669   0.875   5.007   8.005 -0.5634  0.0698 -0.0622
   67SAPC  H14X 5670   0.977   5.050   7.990 -0.4204  0.9927  2.8253
   67SAPC  H14Y 5671   0.864   4.906   7.960 -1.8416 -1.6999  3.7987
   67SAPC  C315 5672   0.858   4.983   8.157  0.6601  0.0390 -0.3881
   67SAPC  H15X 5673   0.894   5.074   8.210 -0.0559  0.5135 -0.7036
   67SAPC  H15Y 5674   0.925   4.898   8.183 -1.4354 -1.7453 -0.5113
   67SAPC  C316 5675   0.709   4.956   8.188 -0.5260 -0.7152 -0.1628
   67SAPC  H16X 5676   0.675   4.877   8.117 -1.0758 -0.8783  0.2677
   67SAPC  H16Y 5677   0.651   5.048   8.164 -0.8211 -1.1875 -1.3333
   67SAPC  C317 5678   0.664   4.902   8.329 -0.6259 -0.5734  1.1044
   67SAPC  H17X 5679   0.555   4.882   8.331 -1.3194  2.7120  1.4883
   67SAPC  H17Y 5680   0.679   4.994   8.389  1.1807 -0.4479  0.5302
   67SAPC  C318 5681   0.744   4.787   8.371  0.0249 -0.1151 -0.4386
   67SAPC  H18X 5682   0.709   4.687   8.337 -0.7457 -1.9634  4.8118
   67SAPC  H18Y 5683   0.736   4.764   8.479  2.5461  0.0129 -0.1450
   67SAPC  H18Z 5684   0.854   4.792   8.351  0.4076 -0.0489  1.4661
   68SAPC     N 5685   5.920   3.779   6.096 -0.0136  0.1133  0.6693
   68SAPC   C12 5686   5.957   3.871   5.984 -0.1284  0.2757 -0.2814
   68SAPC  H12A 5687   5.878   3.854   5.912  1.9825 -0.6955 -2.4995
   68SAPC  H12B 5688   6.045   3.841   5.929  0.1651 -0.2781  0.4606
   68SAPC   C13 5689   5.782   3.810   6.151 -0.2058 -0.5067  0.1137
   68SAPC  H13A 5690   5.703   3.793   6.080  2.0318 -1.3747 -2.2861
   68SAPC  H13B 5691   5.759   3.735   6.225  1.2249 -0.4532  0.6349
   68SAPC  H13C 5692   5.772   3.910   6.190 -1.8031  0.2729 -2.0944
   68SAPC   C14 5693   5.911   3.639   6.045  0.6081 -0.8001  0.3227
   68SAPC  H14A 5694   5.863   3.574   6.117  0.2321 -1.1756 -0.2591
   68SAPC  H14B 5695   5.853   3.638   5.954  2.8093 -2.1806 -1.1802
   68SAPC  H14C 5696   6.010   3.599   6.025 -0.1174 -1.6611 -1.8776
   68SAPC   C15 5697   6.024   3.780   6.200  0.1158  0.0674 -0.4646
   68SAPC  H15A 5698   6.015   3.873   6.255  0.9867 -0.3467  0.4017
   68SAPC  H15B 5699   6.016   3.712   6.283  1.8548  1.3205  0.7998
   68SAPC  H15C 5700   6.123   3.778   6.158 -0.9491  1.1188 -3.2596
   68SAPC   C11 5701   5.965   4.027   6.003  0.2147  0.3703  0.3413
   68SAPC  H11A 5702   5.953   4.077   5.905 -0.9520 -0.0268  0.2684
   68SAPC  H11B 5703   6.068   4.046   6.041 -0.0081  3.9136 -0.5140
   68SAPC     P 5704   5.914   4.180   6.213 -0.6915  0.1735  0.0438
   68SAPC   O13 5705   6.046   4.241   6.188  0.3728 -0.7939 -0.1291
   68SAPC   O14 5706   5.800   4.276   6.229  0.3133 -0.0355 -0.3646
   68SAPC   O12 5707   5.874   4.093   6.084  0.0735  0.1650 -0.5042
   68SAPC   O11 5708   5.934   4.078   6.328 -0.7230 -0.1198 -0.1657
   68SAPC    C1 5709   5.956   4.111   6.465  0.1922 -0.7416  0.2493
   68SAPC    HA 5710   6.051   4.169   6.469 -0.4330  0.2903  0.3093
   68SAPC    HB 5711   5.872   4.175   6.500  1.3558  1.0959 -0.1770
   68SAPC    C2 5712   5.968   3.979   6.546 -0.3474  0.4341 -1.0758
   68SAPC    HS 5713   5.969   4.001   6.655  0.1490 -4.0701  0.0373
   68SAPC   O21 5714   6.083   3.896   6.512 -0.2899  0.4197  0.8862
   68SAPC   C21 5715   6.121   3.814   6.606  0.3461  0.2155 -0.0700
   68SAPC   O22 5716   6.056   3.786   6.704 -0.2851 -0.0574  0.4815
   68SAPC   C22 5717   6.244   3.742   6.573 -0.7327 -0.6305 -0.0112
   68SAPC   H2R 5718   6.240   3.636   6.608 -0.6063 -0.5152  0.3621
   68SAPC   H2S 5719   6.245   3.733   6.463 -1.2557  1.9346 -0.2780
   68SAPC    C3 5720   5.837   3.890   6.533 -0.1539 -0.0008  0.4337
   68SAPC    HX 5721   5.854   3.811   6.609  0.5809  0.3923  0.6903
   68SAPC    HY 5722   5.836   3.843   6.433  1.8511 -0.4478  0.5926
   68SAPC   O31 5723   5.710   3.953   6.566  0.1404  0.0750  0.1745
   68SAPC   C31 5724   5.603   3.926   6.493  0.3556  0.4034 -0.7524
   68SAPC   O32 5725   5.599   3.858   6.388  0.0110 -0.3225 -0.4604
   68SAPC   C32 5726   5.480   3.984   6.562  0.5397  0.1327 -0.2035
   68SAPC   H2X 5727   5.501   4.085   6.603  1.5147 -0.6910  1.4676
   68SAPC   H2Y 5728   5.473   3.925   6.657  0.7753  0.6678  0.1539
   68SAPC   C23 5729   6.373   3.805   6.632 -0.0521 -0.4841  0.7962
   68SAPC   H3R 5730   6.373   3.915   6.615 -0.6867 -0.5388  0.4179
   68SAPC   H3S 5731   6.459   3.765   6.573 -0.8309  1.3243 -1.7555
   68SAPC   C24 5732   6.381   3.761   6.782 -0.1725  0.0911  0.4193
   68SAPC   H4R 5733   6.361   3.652   6.769 -0.7533  0.4601 -2.4237
   68SAPC   H4S 5734   6.301   3.813   6.837 -0.2445  1.7125 -1.1253
   68SAPC   C25 5735   6.520   3.771   6.836  0.1336  0.1475 -0.3195
   68SAPC   H5R 5736   6.585   3.841   6.780 -0.1239  0.7393  0.1073
   68SAPC   C26 5737   6.562   3.706   6.945 -0.1391  0.0191 -0.3374
   68SAPC   H6R 5738   6.662   3.716   6.990  0.2806 -2.8721 -0.4751
   68SAPC   C27 5739   6.469   3.622   7.027 -0.7854 -0.9234  0.6453
   68SAPC   H7R 5740   6.361   3.635   7.003 -0.6541  1.6302  1.2308
   68SAPC   H7S 5741   6.485   3.652   7.132 -0.2747 -1.3910  0.7052
   68SAPC   C28 5742   6.499   3.473   7.025  0.3949  0.5049  0.8440
   68SAPC   H8R 5743   6.446   3.418   6.946  2.0925  0.7587 -0.5221
   68SAPC   C29 5744   6.585   3.404   7.099 -0.5913 -0.3411  0.6575
   68SAPC   H9R 5745   6.583   3.294   7.088 -1.9820 -0.2811  0.2254
   68SAPC  C210 5746   6.675   3.470   7.198 -0.5957 -0.8404 -0.5834
   68SAPC  H10R 5747   6.671   3.580   7.184  0.7336 -0.2189  2.9456
   68SAPC  H10S 5748   6.780   3.436   7.187 -0.5923 -1.2121  0.4713
   68SAPC  C211 5749   6.622   3.430   7.327 -0.3530 -0.1366  1.0784
   68SAPC  H11R 5750   6.630   3.322   7.346  0.8136 -0.7588 -2.3184
   68SAPC  C212 5751   6.567   3.505   7.427 -0.3270  0.4737 -0.4085
   68SAPC  H12R 5752   6.533   3.447   7.513  2.2328  0.9810  1.0539
   68SAPC  C213 5753   6.534   3.650   7.427  0.4077 -0.0132 -0.2716
   68SAPC  H13R 5754   6.601   3.696   7.351  0.1189 -0.7463 -0.9872
   68SAPC  H13S 5755   6.545   3.704   7.523  1.8381  1.2460 -1.1085
   68SAPC  C214 5756   6.388   3.654   7.382  0.6008  0.6358  0.0821
   68SAPC  H14R 5757   6.357   3.571   7.316  3.8078 -0.5728 -0.0629
   68SAPC  C215 5758   6.293   3.745   7.427 -0.4913  0.5009  1.0337
   68SAPC  H15R 5759   6.189   3.713   7.414  0.1236 -0.8522 -1.0502
   68SAPC  C216 5760   6.318   3.854   7.535 -0.3721  0.0892  0.9301
   68SAPC  H16R 5761   6.248   3.937   7.510 -1.2669 -1.1373 -0.9198
   68SAPC  H16S 5762   6.422   3.893   7.535 -0.3643  0.0697  0.7707
   68SAPC  C217 5763   6.291   3.809   7.681  0.3658 -0.1434  0.4214
   68SAPC  H17R 5764   6.356   3.720   7.690 -2.7149 -2.6428 -0.2086
   68SAPC  H17S 5765   6.194   3.759   7.703 -0.9703  1.4051 -1.6135
   68SAPC  C218 5766   6.339   3.898   7.794 -0.4322  0.0334 -0.4547
   68SAPC  H18R 5767   6.300   3.868   7.894  1.1472  0.2888  0.2711
   68SAPC  H18S 5768   6.310   4.005   7.786  2.2736  0.8864  0.0279
   68SAPC  C219 5769   6.493   3.901   7.808 -0.3526 -0.7285  0.5361
   68SAPC  H19R 5770   6.551   3.933   7.719  1.3252 -2.5742  0.9017
   68SAPC  H19S 5771   6.529   3.799   7.834 -0.5319 -0.9639 -0.1190
   68SAPC  C220 5772   6.532   3.984   7.926 -0.2234  0.3436 -0.0084
   68SAPC  H20R 5773   6.478   4.080   7.912 -0.3525  0.7458  2.7122
   68SAPC  H20S 5774   6.642   3.995   7.933 -0.3190  0.7983  0.9071
   68SAPC  H20T 5775   6.495   3.941   8.021  2.2367  1.6180  1.6467
   68SAPC   C33 5776   5.346   3.976   6.489 -0.6418  0.2118  0.6080
   68SAPC   H3X 5777   5.306   3.873   6.487 -0.2816  0.0689  0.7193
   68SAPC   H3Y 5778   5.362   4.009   6.384 -1.3371 -2.7195 -0.5084
   68SAPC   C34 5779   5.239   4.059   6.554  0.7791 -0.1465 -0.3682
   68SAPC   H4X 5780   5.137   4.031   6.520  1.2559 -2.4349 -0.1370
   68SAPC   H4Y 5781   5.245   4.159   6.506  1.2206 -0.9368 -2.0355
   68SAPC   C35 5782   5.241   4.070   6.712 -0.3167 -0.4753  0.7055
   68SAPC   H5X 5783   5.335   4.116   6.749  0.2073 -0.5959 -0.4422
   68SAPC   H5Y 5784   5.235   3.966   6.751 -1.7996 -0.5659  0.3122
   68SAPC   C36 5785   5.137   4.163   6.767 -0.1766  0.1408 -0.9772
   68SAPC   H6X 5786   5.039   4.151   6.717 -0.7252  3.4054 -0.9413
   68SAPC   H6Y 5787   5.171   4.265   6.737 -0.1561  1.1312  2.0640
   68SAPC   C37 5788   5.112   4.149   6.916 -0.5734 -0.0166 -0.4417
   68SAPC   H7X 5789   5.099   4.044   6.950  2.4314 -0.4881 -0.5499
   68SAPC   H7Y 5790   5.010   4.192   6.928 -0.2179  0.2028  2.2332
   68SAPC   C38 5791   5.219   4.203   7.009  0.0372  0.4871  1.1409
   68SAPC   H8X 5792   5.236   4.310   6.984  0.0651 -0.0324 -1.2886
   68SAPC   H8Y 5793   5.306   4.137   6.989  1.2533  2.4265 -0.1609
   68SAPC   C39 5794   5.183   4.181   7.155 -0.3338 -0.9136  0.3408
   68SAPC   H9X 5795   5.273   4.217   7.208  0.3561 -2.0228 -0.0510
   68SAPC   H9Y 5796   5.177   4.073   7.182  1.8250 -0.8957  1.0157
   68SAPC  C310 5797   5.068   4.274   7.203  0.3751  0.4579 -0.0057
   68SAPC  H10X 5798   4.970   4.221   7.200 -0.2778  1.4798  1.6402
   68SAPC  H10Y 5799   5.058   4.357   7.130 -1.9730 -1.3780 -1.9824
   68SAPC  C311 5800   5.091   4.341   7.329 -0.7386 -0.2652  0.3000
   68SAPC  H11X 5801   5.031   4.430   7.354  0.0623  0.5255 -0.5320
   68SAPC  H11Y 5802   5.195   4.381   7.326 -1.0836  0.6213 -0.0607
   68SAPC  C312 5803   5.094   4.238   7.443  0.5568 -0.2082 -0.1156
   68SAPC  H12X 5804   5.160   4.151   7.424  1.6403  0.8626 -1.4334
   68SAPC  H12Y 5805   4.989   4.206   7.461 -0.0193  0.9211 -1.3305
   68SAPC  C313 5806   5.117   4.291   7.586 -1.4267  0.4894 -0.3024
   68SAPC  H13X 5807   5.077   4.224   7.666  2.8784 -0.1016  1.6445
   68SAPC  H13Y 5808   5.076   4.394   7.594  1.7045  1.7623  0.8786
   68SAPC  C314 5809   5.268   4.306   7.611 -0.6686 -0.1363  0.0969
   68SAPC  H14X 5810   5.310   4.367   7.528 -0.3978 -2.1632 -1.3369
   68SAPC  H14Y 5811   5.326   4.211   7.606  1.1562  0.7814  2.2321
   68SAPC  C315 5812   5.307   4.380   7.742 -0.3388  0.4499 -0.9412
   68SAPC  H15X 5813   5.216   4.433   7.777  1.5317  4.3856 -1.5525
   68SAPC  H15Y 5814   5.388   4.453   7.723  0.4059 -0.3147 -0.7479
   68SAPC  C316 5815   5.347   4.286   7.854 -0.0047 -0.7311 -0.1326
   68SAPC  H16X 5816   5.444   4.236   7.830  0.5187 -0.5108  1.4272
   68SAPC  H16Y 5817   5.273   4.204   7.867  1.5150 -1.8256  2.3071
   68SAPC  C317 5818   5.355   4.360   7.986  0.4042 -0.1821 -0.3145
   68SAPC  H17X 5819   5.342   4.283   8.065  0.3991 -0.1533 -0.2881
   68SAPC  H17Y 5820   5.276   4.437   7.992  1.2215  0.7257 -0.7699
   68SAPC  C318 5821   5.487   4.439   7.999 -0.4216  0.7612 -0.0677
   68SAPC  H18X 5822   5.581   4.384   7.979  0.9574  3.3540 -1.1230
   68SAPC  H18Y 5823   5.481   4.476   8.104 -0.7434 -1.7370  0.8516
   68SAPC  H18Z 5824   5.489   4.529   7.933 -0.4476  0.4219 -0.5341
   69SLPC     N 5825   2.495   5.582  11.180  1.0340  0.1375  0.4808
   69SLPC   C13 5826   2.449   5.723  11.159 -0.1912  0.1650 -0.1221
   69SLPC  H13A 5827   2.389   5.757  11.242 -2.1082  0.3756 -1.5237
   69SLPC  H13B 5828   2.526   5.793  11.131 -0.6938  0.4066 -0.9423
   69SLPC  H13C 5829   2.385   5.715  11.073  0.7888  1.1877 -0.9757
   69SLPC   C14 5830   2.380   5.496  11.212 -0.6034 -0.2883 -0.0547
   69SLPC  H14A 5831   2.316   5.493  11.125  0.7972 -1.9276 -1.0855
   69SLPC  H14B 5832   2.413   5.396  11.237  0.8157  0.5948  1.8986
   69SLPC  H14C 5833   2.334   5.535  11.302  3.3090  0.4213  1.8559
   69SLPC   C15 5834   2.589   5.584  11.292 -0.0319 -0.1000 -0.8884
   69SLPC  H15A 5835   2.687   5.601  11.251  1.3499 -0.5867  1.9849
   69SLPC  H15B 5836   2.561   5.664  11.360 -0.7852 -0.2767 -0.9757
   69SLPC  H15C 5837   2.594   5.492  11.348 -0.1105 -0.1126 -0.9031
   69SLPC   C12 5838   2.557   5.530  11.051  0.4767  1.2140 -0.3198
   69SLPC  H12A 5839   2.617   5.442  11.070 -2.1763 -0.6832 -0.0487
   69SLPC  H12B 5840   2.628   5.606  11.022  0.5050  1.3933  0.2045
   69SLPC   C11 5841   2.467   5.483  10.938 -0.0452 -0.6430  0.3617
   69SLPC  H11A 5842   2.436   5.377  10.947  0.9194 -1.1642 -1.8397
   69SLPC  H11B 5843   2.532   5.491  10.848  1.9537  0.4538  1.8070
   69SLPC     P 5844   2.242   5.522  10.826 -0.2591 -0.5161 -0.4254
   69SLPC   O13 5845   2.173   5.422  10.912 -0.4611 -0.4470  0.1733
   69SLPC   O14 5846   2.161   5.635  10.780 -0.1445  1.0076  0.6143
   69SLPC   O12 5847   2.360   5.568  10.910 -0.2343 -0.6339  0.0116
   69SLPC   O11 5848   2.298   5.448  10.703 -0.2547 -0.0309  0.0185
   69SLPC    C1 5849   2.359   5.504  10.588  0.4157 -0.1173 -0.0024
   69SLPC    HA 5850   2.363   5.615  10.585 -3.7765  0.1908 -0.9713
   69SLPC    HB 5851   2.459   5.460  10.570  1.1157  1.4263 -0.0732
   69SLPC    C2 5852   2.278   5.463  10.460  0.5945  0.2947  0.5694
   69SLPC    HS 5853   2.176   5.496  10.488  0.4913  0.2428  0.2636
   69SLPC   O21 5854   2.296   5.322  10.445  0.4587 -0.2617  0.4732
   69SLPC   C21 5855   2.192   5.274  10.375 -0.0002 -0.7231  0.1705
   69SLPC   O22 5856   2.095   5.337  10.336 -0.6409 -0.4500  0.5121
   69SLPC   C22 5857   2.199   5.122  10.351 -0.0935 -0.3068  0.1010
   69SLPC   H2R 5858   2.231   5.074  10.446  0.4015  0.3703  0.2802
   69SLPC   H2S 5859   2.099   5.081  10.325 -0.8934  0.5612  1.6429
   69SLPC    C3 5860   2.315   5.538  10.325  0.4064  0.4103  0.1674
   69SLPC    HX 5861   2.313   5.648  10.337  0.0998  0.6414 -1.7565
   69SLPC    HY 5862   2.238   5.513  10.249  1.6540  1.9352 -1.6814
   69SLPC   O31 5863   2.447   5.505  10.290  0.3793  0.1997  0.3349
   69SLPC   C31 5864   2.474   5.474  10.165  0.1087  0.1035  0.1100
   69SLPC   O32 5865   2.383   5.476  10.084 -0.2496  0.3307  0.0051
   69SLPC   C32 5866   2.622   5.465  10.148  0.4786  0.0658  1.2365
   69SLPC   H2X 5867   2.664   5.398  10.227 -1.9933 -0.7375  1.9483
   69SLPC   H2Y 5868   2.666   5.567  10.152  1.5352 -0.2868 -0.3525
   69SLPC   C23 5869   2.302   5.072  10.244  0.0568 -0.2046  0.2640
   69SLPC   H3R 5870   2.298   4.961  10.254  2.7957 -0.1785  3.2178
   69SLPC   H3S 5871   2.398   5.102  10.289 -0.2540  0.1028  0.7280
   69SLPC   C24 5872   2.282   5.132  10.106 -0.4969  0.0433 -0.7627
   69SLPC   H4R 5873   2.285   5.241  10.127 -0.0648 -0.2675  1.0247
   69SLPC   H4S 5874   2.186   5.108  10.056 -0.8619 -1.4336  0.5519
   69SLPC   C25 5875   2.398   5.093  10.005 -0.6263 -0.5305 -0.3497
   69SLPC   H5R 5876   2.396   4.986   9.977  0.6217 -1.3560  2.3155
   69SLPC   H5S 5877   2.494   5.111  10.059 -0.1140 -0.3592 -1.2945
   69SLPC   C26 5878   2.406   5.187   9.884  0.2504 -0.4919  0.2303
   69SLPC   H6R 5879   2.490   5.164   9.814 -0.1297  0.5312 -0.5868
   69SLPC   H6S 5880   2.417   5.291   9.921  2.3087 -0.9417  0.9914
   69SLPC   C27 5881   2.279   5.190   9.794 -0.0537 -0.2304  0.8787
   69SLPC   H7R 5882   2.183   5.214   9.846 -1.0806  1.4016 -1.5904
   69SLPC   H7S 5883   2.275   5.089   9.749 -0.2835  0.3697 -0.5023
   69SLPC   C28 5884   2.276   5.299   9.687  0.2622  0.2761  0.3950
   69SLPC   H8R 5885   2.308   5.389   9.743 -2.3565  2.3875 -1.2355
   69SLPC   H8S 5886   2.176   5.336   9.655 -0.2585 -1.0570  0.4083
   69SLPC   C29 5887   2.374   5.279   9.572  0.4221 -0.1726 -0.2327
   69SLPC   H9R 5888   2.480   5.287   9.601  0.5166  0.6304 -0.7762
   69SLPC  C210 5889   2.359   5.265   9.440  0.2604 -0.5512  0.2042
   69SLPC  H10R 5890   2.453   5.250   9.386  0.5860 -1.9778  1.0824
   69SLPC  C211 5891   2.229   5.266   9.361  0.6296  0.3192 -0.1385
   69SLPC  H11R 5892   2.252   5.314   9.264  0.3668  4.5813  1.6661
   69SLPC  H11S 5893   2.148   5.336   9.390  0.0146  0.3892 -1.9072
   69SLPC  C212 5894   2.173   5.122   9.347  0.4917 -0.1489 -0.0542
   69SLPC  H12R 5895   2.118   5.088   9.436  2.7017  1.8947  2.2541
   69SLPC  C213 5896   2.189   5.046   9.237  0.2708 -0.1815 -0.4766
   69SLPC  H13R 5897   2.140   4.948   9.232 -1.2540  0.3665  2.1901
   69SLPC  C214 5898   2.265   5.083   9.103  0.0966  0.0339 -0.7478
   69SLPC  H14R 5899   2.333   4.999   9.078 -0.0506  0.0918 -1.3682
   69SLPC  H14S 5900   2.339   5.162   9.130  1.4823 -1.3344 -0.4294
   69SLPC  C215 5901   2.177   5.087   8.974  0.5085  0.1326 -0.2149
   69SLPC  H15R 5902   2.088   5.022   8.983  1.5948 -1.1293  2.8324
   69SLPC  H15S 5903   2.235   5.061   8.882 -1.0143  1.7146 -1.6875
   69SLPC  C216 5904   2.121   5.230   8.960  0.2370  0.0969  0.5931
   69SLPC  H16R 5905   2.204   5.302   8.945 -1.6856  1.7321 -3.6369
   69SLPC  H16S 5906   2.061   5.256   9.050 -1.3238 -0.9343 -0.1012
   69SLPC  C217 5907   2.026   5.227   8.840  0.2251 -0.0246 -0.1607
   69SLPC  H17R 5908   1.934   5.178   8.878 -0.4246  0.6457 -0.8491
   69SLPC  H17S 5909   2.058   5.158   8.758  2.2941  0.2328  0.3672
   69SLPC  C218 5910   2.001   5.378   8.783  0.3611  0.6027  0.0892
   69SLPC  H18R 5911   1.917   5.391   8.711 -0.2544 -1.5436  0.3542
   69SLPC  H18S 5912   2.098   5.407   8.739 -1.1997  2.2023 -2.5865
   69SLPC  H18T 5913   1.968   5.434   8.873 -0.5202  1.1466 -0.5534
   69SLPC   C33 5914   2.654   5.405  10.013  0.0717 -0.9639 -0.1981
   69SLPC   H3X 5915   2.609   5.467   9.933 -4.1865 -1.0794  1.8525
   69SLPC   H3Y 5916   2.609   5.304  10.002 -1.6542 -0.2113 -0.2353
   69SLPC   C34 5917   2.801   5.390   9.981 -0.0282  0.2462  0.6149
   69SLPC   H4X 5918   2.847   5.344  10.072 -0.8139 -2.6953 -0.3897
   69SLPC   H4Y 5919   2.855   5.484   9.957  1.0726 -0.3714  0.5602
   69SLPC   C35 5920   2.836   5.291   9.861  0.6236 -0.0885  0.0945
   69SLPC   H5X 5921   2.796   5.190   9.883  1.6877 -0.3108  1.0885
   69SLPC   H5Y 5922   2.946   5.284   9.858  0.7557  1.7184 -0.5000
   69SLPC   C36 5923   2.779   5.326   9.722  0.0268 -1.0377 -0.2998
   69SLPC   H6X 5924   2.817   5.427   9.697  0.2169 -1.4109 -1.5719
   69SLPC   H6Y 5925   2.668   5.328   9.729  0.1257  0.3953  1.4344
   69SLPC   C37 5926   2.822   5.232   9.612  0.2657  0.3497 -0.8342
   69SLPC   H7X 5927   2.783   5.136   9.653 -2.1673  2.3517  1.9088
   69SLPC   H7Y 5928   2.933   5.226   9.616  0.1987 -1.4460  3.1049
   69SLPC   C38 5929   2.772   5.266   9.475  0.2753  0.1777  0.1870
   69SLPC   H8X 5930   2.824   5.353   9.430 -1.2449  0.3203 -1.3859
   69SLPC   H8Y 5931   2.667   5.297   9.490  0.3108 -0.6068  2.4964
   69SLPC   C39 5932   2.786   5.153   9.370  0.0405 -0.3665 -0.2418
   69SLPC   H9X 5933   2.714   5.081   9.414 -2.5357  3.2775  2.1551
   69SLPC   H9Y 5934   2.887   5.108   9.375  0.3784  0.4780  1.1583
   69SLPC  C310 5935   2.747   5.191   9.231 -0.0391 -0.4465 -0.0264
   69SLPC  H10X 5936   2.827   5.252   9.184 -2.6279  3.6441  0.3888
   69SLPC  H10Y 5937   2.669   5.269   9.226  0.8364  0.4293 -0.4381
   69SLPC  C311 5938   2.686   5.083   9.140 -0.3080 -0.2149 -0.0780
   69SLPC  H11X 5939   2.590   5.050   9.185 -0.1858  0.6232  0.8357
   69SLPC  H11Y 5940   2.757   4.998   9.131 -0.2558 -0.1048 -0.7316
   69SLPC  C312 5941   2.663   5.109   8.991  0.1961  0.6981 -0.3716
   69SLPC  H12X 5942   2.759   5.151   8.955  0.9441  0.3814  1.1752
   69SLPC  H12Y 5943   2.587   5.183   8.959  0.7571  0.4316 -2.4150
   69SLPC  C313 5944   2.633   4.970   8.930 -0.1449  0.1435  0.0817
   69SLPC  H13X 5945   2.550   4.921   8.985  1.2137 -1.1204  1.0644
   69SLPC  H13Y 5946   2.717   4.898   8.944 -0.2163  0.1139  0.3636
   69SLPC  C314 5947   2.595   4.981   8.786  0.0295  0.2264  0.7229
   69SLPC  H14X 5948   2.506   5.047   8.778  0.9007  1.2613 -1.4750
   69SLPC  H14Y 5949   2.577   4.878   8.750 -1.5107  0.9885 -0.8199
   69SLPC  C315 5950   2.705   5.049   8.695 -0.3734  0.3562 -0.1607
   69SLPC  H15X 5951   2.724   5.154   8.727  0.2742  1.5901 -4.0474
   69SLPC  H15Y 5952   2.658   5.059   8.595 -0.1068  2.1998 -0.1338
   69SLPC  C316 5953   2.834   4.964   8.682  0.3275  0.6682  0.0412
   69SLPC  H16X 5954   2.789   4.864   8.662  0.7562 -0.5395  4.1180
   69SLPC  H16Y 5955   2.877   4.956   8.784  0.3900 -1.1544 -0.0989
   69SLPC  C317 5956   2.939   5.016   8.580  0.0474  0.9964 -0.8591
   69SLPC  H17X 5957   3.022   4.943   8.594 -1.9219 -1.0902  0.6158
   69SLPC  H17Y 5958   2.974   5.115   8.617  2.6578  0.2015 -0.9433
   69SLPC  C318 5959   2.893   5.023   8.435 -0.3546 -0.1738 -0.0688
   69SLPC  H18X 5960   2.813   5.096   8.411  1.1700  2.0247  1.2020
   69SLPC  H18Y 5961   2.869   4.917   8.413 -0.3265 -0.7615  2.4371
   69SLPC  H18Z 5962   2.976   5.054   8.368  0.9466 -0.8924  1.1544
   70SLPC     N 5963   4.764   1.483  10.957 -0.0575  0.1325 -0.3642
   70SLPC   C13 5964   4.849   1.420  11.062  0.0464  0.1280  0.2369
   70SLPC  H13A 5965   4.950   1.457  11.056  1.1363 -1.7849  3.7996
   70SLPC  H13B 5966   4.825   1.445  11.165 -0.1099  3.2342 -0.4693
   70SLPC  H13C 5967   4.859   1.317  11.033 -2.5290  0.6172 -2.9747
   70SLPC   C14 5968   4.622   1.420  10.952  0.2457  0.8911 -0.2033
   70SLPC  H14A 5969   4.565   1.418  11.044  0.2880 -1.2808 -0.1622
   70SLPC  H14B 5970   4.563   1.472  10.877  0.4057 -3.0450 -3.4213
   70SLPC  H14C 5971   4.628   1.312  10.939 -0.9064  0.8503 -0.5136
   70SLPC   C15 5972   4.832   1.452  10.832 -0.0900 -0.3199  0.5496
   70SLPC  H15A 5973   4.921   1.511  10.815 -0.1765 -0.7080 -1.5739
   70SLPC  H15B 5974   4.878   1.354  10.844  0.3141  0.0831  2.5939
   70SLPC  H15C 5975   4.762   1.460  10.750 -1.1607  0.6215  1.5291
   70SLPC   C12 5976   4.762   1.630  10.983 -0.0717 -0.1753  0.2272
   70SLPC  H12A 5977   4.866   1.653  11.001  0.2882 -1.8348  0.4479
   70SLPC  H12B 5978   4.710   1.649  11.076  1.5341  1.0838  0.9166
   70SLPC   C11 5979   4.702   1.721  10.874 -0.2637 -0.5113 -0.6654
   70SLPC  H11A 5980   4.699   1.828  10.907  1.0649 -0.1096 -1.7348
   70SLPC  H11B 5981   4.594   1.697  10.863 -0.9182  2.0443 -0.4610
   70SLPC     P 5982   4.837   1.826  10.666 -0.5285  0.3171 -0.4118
   70SLPC   O13 5983   4.935   1.877  10.768 -0.0157 -0.1007  0.9791
   70SLPC   O14 5984   4.892   1.769  10.541 -0.5730  0.6795 -0.0060
   70SLPC   O12 5985   4.758   1.712  10.743  0.5318  0.8055  0.1153
   70SLPC   O11 5986   4.717   1.932  10.640 -0.5393 -0.1512 -0.6685
   70SLPC    C1 5987   4.611   1.919  10.541  0.1183 -0.0764 -0.2114
   70SLPC    HA 5988   4.595   1.812  10.518  2.1871 -0.5463  0.4100
   70SLPC    HB 5989   4.512   1.957  10.574  1.0015 -0.5594  3.3222
   70SLPC    C2 5990   4.654   2.001  10.417 -0.1057 -0.5437  1.4748
   70SLPC    HS 5991   4.573   2.004  10.342  1.5546 -2.3900 -0.5175
   70SLPC   O21 5992   4.772   1.949  10.351  0.3004  0.0065 -0.8101
   70SLPC   C21 5993   4.738   1.843  10.276  0.1745  0.4339  0.7001
   70SLPC   O22 5994   4.625   1.799  10.252  0.0439 -0.5744  0.1572
   70SLPC   C22 5995   4.867   1.779  10.218  0.0693  0.0342  0.1568
   70SLPC   H2R 5996   4.949   1.828  10.273  0.5352 -0.9018  0.3061
   70SLPC   H2S 5997   4.866   1.671  10.243  1.6342 -0.0615 -0.0803
   70SLPC    C3 5998   4.682   2.157  10.443  0.2499  0.1711  0.1699
   70SLPC    HX 5999   4.772   2.179  10.505 -0.8214 -0.2728  1.9371
   70SLPC    HY 6000   4.598   2.178  10.512  2.7202 -0.4953  3.6287
   70SLPC   O31 6001   4.669   2.241  10.323 -0.0805  0.0497 -0.0420
   70SLPC   C31 6002   4.784   2.291  10.280  0.9746  0.1589 -1.3272
   70SLPC   O32 6003   4.893   2.249  10.319 -0.0840 -0.6115 -0.2551
   70SLPC   C32 6004   4.755   2.409  10.187  0.5713  0.0415  0.7469
   70SLPC   H2X 6005   4.712   2.496  10.240  2.2867  0.5034  1.4387
   70SLPC   H2Y 6006   4.667   2.384  10.124 -0.0668 -2.6203  2.5341
   70SLPC   C23 6007   4.873   1.803  10.069  0.5296  0.4322 -0.2702
   70SLPC   H3R 6008   4.778   1.771  10.021  0.4606 -2.9073  1.7517
   70SLPC   H3S 6009   4.951   1.733  10.032  2.5820  2.7870 -0.7021
   70SLPC   C24 6010   4.912   1.950  10.030 -0.1895  0.1244 -0.4753
   70SLPC   H4R 6011   5.021   1.941  10.048  0.2114  0.1982 -2.5556
   70SLPC   H4S 6012   4.853   2.022  10.091 -1.2958 -0.4841 -0.7915
   70SLPC   C25 6013   4.894   1.985   9.880 -0.0483 -0.7198 -0.1805
   70SLPC   H5R 6014   4.800   1.946   9.837  1.2645 -0.3344 -3.7292
   70SLPC   H5S 6015   4.980   1.942   9.824 -0.6482 -1.1738 -0.7666
   70SLPC   C26 6016   4.910   2.143   9.846  0.0496 -0.4009  0.0042
   70SLPC   H6R 6017   5.004   2.175   9.896  0.7318 -0.2305 -1.3314
   70SLPC   H6S 6018   4.823   2.194   9.892  1.3232  1.2069  0.7195
   70SLPC   C27 6019   4.916   2.164   9.694 -0.3975  0.0182 -0.0014
   70SLPC   H7R 6020   4.821   2.116   9.662 -0.9439  1.5900 -0.8102
   70SLPC   H7S 6021   4.999   2.109   9.646 -0.6069 -0.0461 -0.2937
   70SLPC   C28 6022   4.936   2.307   9.648  0.3536 -0.0400 -0.4026
   70SLPC   H8R 6023   4.846   2.366   9.676  1.0253  0.1338  1.5244
   70SLPC   H8S 6024   4.938   2.308   9.537 -1.0739  5.4444 -0.6627
   70SLPC   C29 6025   5.060   2.367   9.712  0.8332 -0.2948  0.7507
   70SLPC   H9R 6026   5.075   2.348   9.819  0.9761 -0.1232  0.7605
   70SLPC  C210 6027   5.141   2.453   9.643  0.1271 -0.1875 -0.8546
   70SLPC  H10R 6028   5.223   2.497   9.703  0.9346 -2.6250 -0.0718
   70SLPC  C211 6029   5.131   2.497   9.501 -0.2395  0.1443  0.4288
   70SLPC  H11R 6030   5.158   2.409   9.440 -0.9237  0.1420  0.1231
   70SLPC  H11S 6031   5.218   2.563   9.480 -0.4244  0.1600 -0.3479
   70SLPC  C212 6032   4.996   2.564   9.462 -0.8050 -0.0958  0.1808
   70SLPC  H12R 6033   4.955   2.625   9.544  1.5570  1.1269  0.5307
   70SLPC  C213 6034   4.936   2.564   9.335  0.9420 -0.4836 -0.6894
   70SLPC  H13R 6035   4.836   2.609   9.326  0.7779 -0.4560  0.9912
   70SLPC  C214 6036   5.001   2.505   9.216 -0.1066 -0.5099 -0.0958
   70SLPC  H14R 6037   5.110   2.494   9.238 -0.3283 -0.8878  0.8716
   70SLPC  H14S 6038   5.004   2.576   9.131  4.7520 -0.2052  0.0517
   70SLPC  C215 6039   4.939   2.373   9.188  0.8230 -0.0781 -0.0614
   70SLPC  H15R 6040   4.831   2.376   9.164  1.0151  2.5883 -0.9365
   70SLPC  H15S 6041   4.955   2.303   9.273 -1.4670  1.7698  2.0452
   70SLPC  C216 6042   5.010   2.295   9.084 -0.0862 -0.5242  0.5251
   70SLPC  H16R 6043   4.968   2.192   9.090 -0.1698 -0.5115  0.1914
   70SLPC  H16S 6044   5.119   2.288   9.106 -0.1893  0.0515  1.2222
   70SLPC  C217 6045   4.998   2.343   8.946 -0.7726 -0.6818  0.2686
   70SLPC  H17R 6046   5.053   2.269   8.884  1.2795  0.5930  0.4784
   70SLPC  H17S 6047   5.049   2.441   8.930  0.4235 -1.2102  0.7864
   70SLPC  C218 6048   4.857   2.360   8.890 -0.6861 -0.0791  0.0391
   70SLPC  H18R 6049   4.798   2.266   8.882 -0.9298 -0.0233  1.0984
   70SLPC  H18S 6050   4.856   2.397   8.785 -0.7051  0.0763  0.0934
   70SLPC  H18T 6051   4.793   2.418   8.960 -1.6376 -1.4459  0.3441
   70SLPC   C33 6052   4.889   2.464  10.132  0.0880  0.9681 -0.3372
   70SLPC   H3X 6053   4.936   2.398  10.057 -0.6947  0.0871 -0.0679
   70SLPC   H3Y 6054   4.964   2.469  10.214  0.5161 -3.0002 -0.3135
   70SLPC   C34 6055   4.867   2.608  10.077  0.0466  0.5134 -0.5801
   70SLPC   H4X 6056   4.970   2.650  10.068  0.2484 -0.0195 -0.8180
   70SLPC   H4Y 6057   4.821   2.673  10.155 -0.1854 -0.1292 -0.1703
   70SLPC   C35 6058   4.792   2.634   9.946 -0.5378  0.6304  1.0429
   70SLPC   H5X 6059   4.682   2.623   9.952 -0.6602  0.3941 -0.9628
   70SLPC   H5Y 6060   4.834   2.573   9.864  1.0408  1.5660  1.1088
   70SLPC   C36 6061   4.823   2.775   9.901  0.1597  0.7824 -0.3097
   70SLPC   H6X 6062   4.925   2.803   9.933 -0.0678  0.9532  0.2719
   70SLPC   H6Y 6063   4.766   2.846   9.963 -1.1205  1.5110 -2.2133
   70SLPC   C37 6064   4.801   2.817   9.758 -0.6641 -0.2706  0.3939
   70SLPC   H7X 6065   4.861   2.743   9.701  1.2149  0.6957  1.0314
   70SLPC   H7Y 6066   4.838   2.921   9.746  1.2988 -0.8578  0.8482
   70SLPC   C38 6067   4.654   2.801   9.730  0.0349  0.2150 -0.4793
   70SLPC   H8X 6068   4.605   2.823   9.828  4.1421  0.0330  1.8323
   70SLPC   H8Y 6069   4.637   2.694   9.706 -1.6358  0.2304  0.4920
   70SLPC   C39 6070   4.590   2.899   9.626 -0.3156  0.4762  0.1264
   70SLPC   H9X 6071   4.637   3.000   9.636  0.0561  0.1317  2.3580
   70SLPC   H9Y 6072   4.485   2.923   9.652 -0.4055 -0.4794  0.6817
   70SLPC  C310 6073   4.591   2.835   9.483 -0.5582 -0.5023 -0.0108
   70SLPC  H10X 6074   4.534   2.740   9.475 -1.1369 -0.0587 -1.7708
   70SLPC  H10Y 6075   4.687   2.805   9.435 -0.9785  0.9259 -1.8651
   70SLPC  C311 6076   4.516   2.928   9.382 -0.5169  0.7221 -0.6180
   70SLPC  H11X 6077   4.560   3.028   9.366  1.1071  0.1537  0.0034
   70SLPC  H11Y 6078   4.411   2.926   9.420 -0.0405  0.4624  0.7443
   70SLPC  C312 6079   4.501   2.862   9.242 -0.3557  0.3842 -0.3792
   70SLPC  H12X 6080   4.445   2.769   9.266 -0.3751  0.1619 -1.2189
   70SLPC  H12Y 6081   4.586   2.813   9.190 -0.7006  0.9102 -1.4813
   70SLPC  C313 6082   4.420   2.943   9.133  1.1643  0.5171 -0.5329
   70SLPC  H13X 6083   4.332   2.989   9.183  0.2755 -1.8490  0.1913
   70SLPC  H13Y 6084   4.382   2.872   9.057  0.4970  1.1788 -0.8286
   70SLPC  C314 6085   4.500   3.044   9.050 -0.0596  0.4397  0.4258
   70SLPC  H14X 6086   4.572   2.986   8.988  0.5452 -0.3544  1.8254
   70SLPC  H14Y 6087   4.569   3.112   9.105  1.2930 -0.7913  0.3113
   70SLPC  C315 6088   4.410   3.126   8.957  0.0522 -0.2695 -1.0978
   70SLPC  H15X 6089   4.458   3.223   8.931 -1.4287  0.9989  0.6668
   70SLPC  H15Y 6090   4.320   3.168   9.008  0.6764  0.2562 -0.4212
   70SLPC  C316 6091   4.382   3.049   8.830 -0.5038 -0.4650 -0.5947
   70SLPC  H16X 6092   4.301   2.974   8.844  0.4748 -1.1826  1.7302
   70SLPC  H16Y 6093   4.475   2.991   8.812  0.9392  0.9588  1.6962
   70SLPC  C317 6094   4.358   3.144   8.708 -0.0898  0.5942 -1.1014
   70SLPC  H17X 6095   4.363   3.081   8.617  1.3190  1.5078 -1.6879
   70SLPC  H17Y 6096   4.442   3.218   8.705  0.0735  0.4331 -0.6366
   70SLPC  C318 6097   4.229   3.220   8.721 -0.0428 -0.1297 -0.4710
   70SLPC  H18X 6098   4.147   3.164   8.772  0.1546 -0.5247 -0.5785
   70SLPC  H18Y 6099   4.184   3.249   8.623 -0.7116  0.8674  0.1135
   70SLPC  H18Z 6100   4.257   3.312   8.776 -2.0953  1.2119 -1.5309
   71SLPC     N 6101   3.614   1.610  10.888  0.2300 -0.9326  0.0705
   71SLPC   C13 6102   3.750   1.658  10.867  0.1193 -0.3135  0.2320
   71SLPC  H13A 6103   3.758   1.742  10.933 -2.9062  0.4625 -0.2312
   71SLPC  H13B 6104   3.818   1.577  10.893 -0.1759 -0.4131  0.6999
   71SLPC  H13C 6105   3.777   1.696  10.770 -0.7400 -2.1811 -0.8095
   71SLPC   C14 6106   3.522   1.732  10.882 -0.4390  0.3415  0.1793
   71SLPC  H14A 6107   3.424   1.704  10.917 -0.6943  0.3958 -0.4770
   71SLPC  H14B 6108   3.555   1.814  10.944 -2.5782  0.0027  1.8863
   71SLPC  H14C 6109   3.519   1.770  10.781 -0.9400  0.4367  0.2301
   71SLPC   C15 6110   3.599   1.546  11.021  0.1208  0.9281 -0.4824
   71SLPC  H15A 6111   3.673   1.468  11.031  0.4607  1.2990 -0.0059
   71SLPC  H15B 6112   3.617   1.603  11.111  1.6538  0.6493 -0.5788
   71SLPC  H15C 6113   3.497   1.517  11.039  0.1687  0.5184 -0.8569
   71SLPC   C12 6114   3.575   1.510  10.780  0.2267  0.2346  0.0279
   71SLPC  H12A 6115   3.609   1.555  10.688 -0.7683  0.9586 -0.0078
   71SLPC  H12B 6116   3.467   1.498  10.782  0.0498  1.8347  0.9475
   71SLPC   C11 6117   3.649   1.375  10.787  1.0531 -0.0638  0.0435
   71SLPC  H11A 6118   3.610   1.322  10.698 -1.0862  0.2519  0.7364
   71SLPC  H11B 6119   3.635   1.321  10.883  2.4294 -0.0100  0.2909
   71SLPC     P 6120   3.889   1.273  10.757 -0.1961  0.1886  0.3243
   71SLPC   O13 6121   3.903   1.207  10.887 -0.8360  0.4363  0.1411
   71SLPC   O14 6122   3.839   1.196  10.638 -0.6917 -0.3051 -0.2013
   71SLPC   O12 6123   3.789   1.395  10.786 -0.0536 -0.2554  0.4115
   71SLPC   O11 6124   4.029   1.354  10.730 -0.1146 -0.3524 -0.1224
   71SLPC    C1 6125   4.021   1.481  10.657 -0.5507  0.1595  0.0694
   71SLPC    HA 6126   3.923   1.532  10.648 -0.4617  0.3655  0.2526
   71SLPC    HB 6127   4.080   1.555  10.715  0.4285  0.2926 -1.0647
   71SLPC    C2 6128   4.086   1.466  10.517 -0.1691 -0.4653 -0.5908
   71SLPC    HS 6129   4.016   1.417  10.445 -0.1139 -2.4379  0.6138
   71SLPC   O21 6130   4.206   1.389  10.529  0.4118  0.0665 -0.6072
   71SLPC   C21 6131   4.224   1.294  10.440 -0.1290  0.6175 -0.2663
   71SLPC   O22 6132   4.157   1.262  10.346  0.3967  0.5256 -0.2842
   71SLPC   C22 6133   4.354   1.219  10.488 -0.1336 -0.1637 -0.1064
   71SLPC   H2R 6134   4.443   1.284  10.476 -0.8749  0.5493 -2.1155
   71SLPC   H2S 6135   4.341   1.198  10.597 -0.4245 -0.6738 -0.2340
   71SLPC    C3 6136   4.127   1.602  10.457 -0.1555  0.3748 -0.3726
   71SLPC    HX 6137   4.175   1.663  10.537  1.5504 -3.9018  2.2177
   71SLPC    HY 6138   4.029   1.651  10.442 -1.1715 -1.7562 -1.0437
   71SLPC   O31 6139   4.189   1.599  10.326 -0.3512 -0.0354  0.6092
   71SLPC   C31 6140   4.324   1.598  10.331  0.1396  0.0042  0.3701
   71SLPC   O32 6141   4.387   1.625  10.436 -0.3172 -0.2321  0.8816
   71SLPC   C32 6142   4.383   1.577  10.194  0.0014 -0.5766 -0.2068
   71SLPC   H2X 6143   4.404   1.675  10.147  0.4325 -0.7185 -0.3152
   71SLPC   H2Y 6144   4.312   1.518  10.133  0.8944 -0.9412 -0.9166
   71SLPC   C23 6145   4.371   1.094  10.410 -0.2925  0.2961  0.6246
   71SLPC   H3R 6146   4.278   1.035  10.399  0.8064 -1.0905 -2.2400
   71SLPC   H3S 6147   4.439   1.027  10.467 -1.9011 -1.5034  0.5131
   71SLPC   C24 6148   4.425   1.104  10.267  0.3171  0.5468 -0.2896
   71SLPC   H4R 6149   4.523   1.156  10.271  0.1543  0.9372 -1.0549
   71SLPC   H4S 6150   4.351   1.170  10.216 -0.1436  1.1789  1.1566
   71SLPC   C25 6151   4.413   0.976  10.181 -0.9355 -0.0615 -0.6490
   71SLPC   H5R 6152   4.311   0.932  10.180 -1.3712  0.8582  0.6916
   71SLPC   H5S 6153   4.479   0.899  10.227  2.3140  4.2729  2.7711
   71SLPC   C26 6154   4.458   1.011  10.037 -0.4926  0.1257 -0.3266
   71SLPC   H6R 6155   4.561   1.052  10.038 -0.6925  0.6361  0.7992
   71SLPC   H6S 6156   4.395   1.094   9.999  0.5584  1.2726  0.3375
   71SLPC   C27 6157   4.460   0.892   9.949  0.1585 -0.5974  0.4439
   71SLPC   H7R 6158   4.360   0.844   9.932 -1.1200  1.1655  2.5407
   71SLPC   H7S 6159   4.527   0.811   9.984  2.6404  0.8736 -0.6717
   71SLPC   C28 6160   4.538   0.930   9.815 -0.0568 -0.1188 -0.1188
   71SLPC   H8R 6161   4.538   0.836   9.756  3.5135  1.2052 -2.5676
   71SLPC   H8S 6162   4.643   0.931   9.849  0.1413  0.0003 -0.7263
   71SLPC   C29 6163   4.476   1.049   9.738  0.2641  0.1820  0.3386
   71SLPC   H9R 6164   4.393   1.092   9.795 -1.8940 -1.8947 -1.0648
   71SLPC  C210 6165   4.503   1.091   9.612 -0.3433 -0.0272 -0.8313
   71SLPC  H10R 6166   4.444   1.179   9.582  0.3363  0.4024 -0.9036
   71SLPC  C211 6167   4.603   1.031   9.512  0.3686 -0.4847  0.2513
   71SLPC  H11R 6168   4.610   0.921   9.527  0.0175 -0.5845 -0.2864
   71SLPC  H11S 6169   4.706   1.074   9.517  0.3500 -0.4271  0.1592
   71SLPC  C212 6170   4.548   1.049   9.368 -1.0733 -0.4389 -0.1094
   71SLPC  H12R 6171   4.492   0.957   9.346  1.4624 -2.5084  1.4889
   71SLPC  C213 6172   4.571   1.151   9.284  0.0912  0.2608  0.5608
   71SLPC  H13R 6173   4.523   1.147   9.185 -0.5275  0.5927  0.8399
   71SLPC  C214 6174   4.653   1.266   9.320 -0.0090 -0.6832  0.3017
   71SLPC  H14R 6175   4.752   1.254   9.271 -0.4651  0.9034 -1.1298
   71SLPC  H14S 6176   4.675   1.273   9.428  0.1365  0.2184  0.2259
   71SLPC  C215 6177   4.576   1.400   9.286  0.1410 -0.6798  0.3041
   71SLPC  H15R 6178   4.644   1.484   9.312 -0.0203 -0.8572  1.3676
   71SLPC  H15S 6179   4.476   1.406   9.335  0.0853 -0.9974  0.2315
   71SLPC  C216 6180   4.552   1.418   9.135  0.2970  0.0507 -0.0505
   71SLPC  H16R 6181   4.544   1.528   9.125 -1.4100  0.0208  0.6596
   71SLPC  H16S 6182   4.452   1.385   9.098  1.3228 -1.4462 -1.6704
   71SLPC  C217 6183   4.669   1.380   9.050  0.7855  0.6652 -0.3732
   71SLPC  H17R 6184   4.672   1.269   9.055 -0.6115  0.6352  3.1198
   71SLPC  H17S 6185   4.764   1.412   9.098  2.4456 -0.5308 -2.6663
   71SLPC  C218 6186   4.671   1.432   8.901  0.2327 -0.2856  0.2040
   71SLPC  H18R 6187   4.658   1.543   8.903  1.5806 -0.1248  0.4230
   71SLPC  H18S 6188   4.578   1.393   8.854  0.6580 -0.8025 -0.2032
   71SLPC  H18T 6189   4.769   1.414   8.853  0.4800 -1.8443  1.2297
   71SLPC   C33 6190   4.503   1.477  10.179  0.6884 -0.7113 -0.2704
   71SLPC   H3X 6191   4.490   1.392  10.250  0.4631 -1.2415 -0.9367
   71SLPC   H3Y 6192   4.596   1.529  10.209  0.7816 -1.1171  0.1650
   71SLPC   C34 6193   4.528   1.422  10.031  0.6744 -0.6539 -0.0827
   71SLPC   H4X 6194   4.437   1.360  10.015  0.5077 -0.0563 -1.6443
   71SLPC   H4Y 6195   4.617   1.356  10.031  1.9036  0.9488  0.1393
   71SLPC   C35 6196   4.535   1.525   9.914  0.2806  0.0521  0.2061
   71SLPC   H5X 6197   4.619   1.596   9.921  0.8879 -0.5067 -1.0702
   71SLPC   H5Y 6198   4.441   1.583   9.929 -1.6028 -2.1481 -2.0505
   71SLPC   C36 6199   4.547   1.463   9.776  0.4497  0.0579 -0.8111
   71SLPC   H6X 6200   4.463   1.397   9.743 -1.1128  1.0077  1.0453
   71SLPC   H6Y 6201   4.646   1.414   9.767 -0.5758 -2.3107 -0.2170
   71SLPC   C37 6202   4.529   1.574   9.671 -0.9610  0.5010 -0.8073
   71SLPC   H7X 6203   4.435   1.632   9.681 -0.8400  0.6463 -0.4701
   71SLPC   H7Y 6204   4.517   1.522   9.574  0.1589 -0.2685 -0.5554
   71SLPC   C38 6205   4.666   1.652   9.651  0.4805  0.4939  0.5399
   71SLPC   H8X 6206   4.757   1.590   9.641  2.4707  3.2752  0.2702
   71SLPC   H8Y 6207   4.681   1.718   9.739 -2.2775  0.9571  0.7726
   71SLPC   C39 6208   4.664   1.745   9.523  0.3855  0.4492  0.2725
   71SLPC   H9X 6209   4.587   1.825   9.531 -0.7590 -0.5805 -0.0848
   71SLPC   H9Y 6210   4.628   1.685   9.437 -1.1081  1.7368 -0.0567
   71SLPC  C310 6211   4.796   1.810   9.497  0.6011 -1.0348 -0.3303
   71SLPC  H10X 6212   4.862   1.740   9.443  2.2431 -0.3598  0.7144
   71SLPC  H10Y 6213   4.848   1.839   9.591  1.2321 -0.5315 -0.8301
   71SLPC  C311 6214   4.781   1.943   9.419  0.1611 -0.4845 -0.4345
   71SLPC  H11X 6215   4.883   1.989   9.417 -1.0307  2.6570  1.7184
   71SLPC  H11Y 6216   4.719   2.008   9.484  0.7238  1.8528 -2.1119
   71SLPC  C312 6217   4.712   1.925   9.285 -0.1181 -0.1933 -0.1575
   71SLPC  H12X 6218   4.698   2.025   9.239  1.7214 -0.4096 -1.2713
   71SLPC  H12Y 6219   4.606   1.901   9.308  0.2301 -3.2851 -1.3681
   71SLPC  C313 6220   4.783   1.832   9.185 -0.5855 -0.2490  0.3651
   71SLPC  H13X 6221   4.715   1.796   9.105 -0.3216  2.1500 -1.0461
   71SLPC  H13Y 6222   4.820   1.740   9.235  0.9529 -0.3056 -0.8317
   71SLPC  C314 6223   4.898   1.896   9.106 -0.2605 -0.1318 -0.4941
   71SLPC  H14X 6224   4.967   1.931   9.186 -1.2156  0.0103  0.2892
   71SLPC  H14Y 6225   4.868   1.989   9.053  1.6458  0.4612 -0.5806
   71SLPC  C315 6226   4.966   1.807   9.006 -0.5430 -0.1537 -0.4125
   71SLPC  H15X 6227   4.975   1.708   9.056 -1.4796 -0.0134  0.0617
   71SLPC  H15Y 6228   5.062   1.852   8.974 -1.3402  2.4257  0.6076
   71SLPC  C316 6229   4.884   1.794   8.873  0.0907 -0.4055 -0.1380
   71SLPC  H16X 6230   4.836   1.891   8.846  1.0271 -0.1017 -0.7753
   71SLPC  H16Y 6231   4.798   1.727   8.895 -1.1385  1.5863  1.5189
   71SLPC  C317 6232   4.958   1.738   8.750  0.4709 -0.5289 -0.1697
   71SLPC  H17X 6233   5.032   1.817   8.724  1.1140 -0.6492  1.2249
   71SLPC  H17Y 6234   4.893   1.725   8.661 -0.9499 -1.1328  0.9371
   71SLPC  C318 6235   5.025   1.605   8.780 -0.6480  0.1512  0.4930
   71SLPC  H18X 6236   5.100   1.621   8.860 -1.9875 -2.6650  2.4802
   71SLPC  H18Y 6237   5.071   1.552   8.694 -1.9867 -1.4493  0.7066
   71SLPC  H18Z 6238   4.953   1.531   8.821  1.9107 -3.7776 -1.5035
   72SLPC     N 6239   5.523   1.232  10.686  0.5115 -0.5794  0.1378
   72SLPC   C13 6240   5.390   1.190  10.741  0.0345  0.5178 -0.4440
   72SLPC  H13A 6241   5.392   1.167  10.847  0.2712 -0.4818 -0.6600
   72SLPC  H13B 6242   5.324   1.275  10.733 -0.1254  0.8202  2.6406
   72SLPC  H13C 6243   5.339   1.118  10.680 -0.8069  0.6248  0.1210
   72SLPC   C14 6244   5.547   1.164  10.557 -0.4092 -0.2056 -0.3001
   72SLPC  H14A 6245   5.642   1.193  10.514 -0.5516  0.4570 -0.1801
   72SLPC  H14B 6246   5.545   1.057  10.564  0.9558 -0.3524 -1.6573
   72SLPC  H14C 6247   5.469   1.188  10.486 -0.6500  0.3577  0.1485
   72SLPC   C15 6248   5.632   1.182  10.777  0.1705 -0.4986 -0.5803
   72SLPC  H15A 6249   5.642   1.076  10.793  1.4465 -0.0900  1.8151
   72SLPC  H15B 6250   5.729   1.224  10.755  1.0321 -1.2104  1.5453
   72SLPC  H15C 6251   5.615   1.224  10.875  2.3593 -0.8906  0.0168
   72SLPC   C12 6252   5.522   1.379  10.659  0.7014  0.6921  0.1747
   72SLPC  H12A 6253   5.464   1.426  10.737 -1.3556 -0.0765 -0.8406
   72SLPC  H12B 6254   5.464   1.393  10.569  0.5347 -3.2524 -0.5076
   72SLPC   C11 6255   5.660   1.447  10.643  0.3092 -0.0521  0.0015
   72SLPC  H11A 6256   5.656   1.555  10.618  0.7966  0.3745  1.6834
   72SLPC  H11B 6257   5.703   1.397  10.553  1.2802  2.3546 -0.9464
   72SLPC     P 6258   5.903   1.444  10.736 -0.5027  0.1901 -0.6837
   72SLPC   O13 6259   5.942   1.573  10.678 -0.1743 -0.0569  0.2213
   72SLPC   O14 6260   5.971   1.398  10.860 -0.0678 -0.0970 -0.1185
   72SLPC   O12 6261   5.740   1.452  10.762  0.3606 -0.2925 -0.2147
   72SLPC   O11 6262   5.924   1.325  10.632 -0.5007  0.2080 -1.2172
   72SLPC    C1 6263   5.993   1.366  10.515 -0.7025  0.0132  0.1295
   72SLPC    HA 6264   5.968   1.466  10.474  0.9281  0.2749 -0.3200
   72SLPC    HB 6265   6.102   1.352  10.534 -0.8632 -1.5325  0.0522
   72SLPC    C2 6266   5.953   1.274  10.391 -0.3854 -0.1717 -0.4804
   72SLPC    HS 6267   6.020   1.299  10.306  2.4280 -0.4823  1.5427
   72SLPC   O21 6268   5.814   1.302  10.358 -0.1641 -0.9159 -0.3401
   72SLPC   C21 6269   5.795   1.414  10.287 -0.2701  0.0312  0.0171
   72SLPC   O22 6270   5.886   1.481  10.237  0.3712  0.0877  0.2589
   72SLPC   C22 6271   5.644   1.450  10.284  0.1919  0.4686  0.3199
   72SLPC   H2R 6272   5.583   1.385  10.350  1.7674 -1.7933 -0.3116
   72SLPC   H2S 6273   5.649   1.556  10.317 -3.0781  0.6922  0.4057
   72SLPC    C3 6274   5.986   1.122  10.410 -0.6471 -0.1223  0.0346
   72SLPC    HX 6275   5.935   1.085  10.502 -2.6094  1.2540 -0.4179
   72SLPC    HY 6276   6.095   1.114  10.428 -0.8481 -1.6854  0.6959
   72SLPC   O31 6277   5.958   1.049  10.293  0.2317  0.2069 -0.6947
   72SLPC   C31 6278   5.857   0.959  10.303 -0.1079  0.4247  0.9644
   72SLPC   O32 6279   5.785   0.945  10.401  0.0258  0.1281  0.5120
   72SLPC   C32 6280   5.852   0.862  10.182 -0.4500 -0.1275  0.0672
   72SLPC   H2X 6281   5.826   0.931  10.098 -1.2209  1.1782  1.3338
   72SLPC   H2Y 6282   5.772   0.787  10.196 -1.5556  0.8527 -0.7817
   72SLPC   C23 6283   5.578   1.459  10.145  0.3461  0.1724 -0.2242
   72SLPC   H3R 6284   5.650   1.525  10.093  1.2074 -0.8160 -0.3253
   72SLPC   H3S 6285   5.471   1.488  10.152  0.0786 -1.0073  4.4829
   72SLPC   C24 6286   5.573   1.324  10.076 -0.5080  0.9684 -0.6624
   72SLPC   H4R 6287   5.505   1.255  10.130  0.0257  1.1796  0.3083
   72SLPC   H4S 6288   5.672   1.275  10.074 -0.6662  0.3272  2.4191
   72SLPC   C25 6289   5.515   1.340   9.934  0.6156  0.4320 -0.1837
   72SLPC   H5R 6290   5.417   1.392   9.940  0.8286  0.7314  0.9751
   72SLPC   H5S 6291   5.494   1.240   9.891 -0.8584  0.1323  1.1239
   72SLPC   C26 6292   5.611   1.409   9.837  0.2180  0.0556  0.0149
   72SLPC   H6R 6293   5.708   1.355   9.846 -0.0817 -0.3074  1.2350
   72SLPC   H6S 6294   5.629   1.513   9.870  2.0957  0.6562 -2.5544
   72SLPC   C27 6295   5.560   1.408   9.699 -0.3167 -0.7033  0.0003
   72SLPC   H7R 6296   5.625   1.478   9.641 -0.3744  0.9048  1.7924
   72SLPC   H7S 6297   5.456   1.444   9.714  0.3776  0.3539  3.0234
   72SLPC   C28 6298   5.561   1.270   9.612 -0.3419 -0.6866 -0.5534
   72SLPC   H8R 6299   5.530   1.184   9.676  0.4473  1.0304  2.3260
   72SLPC   H8S 6300   5.668   1.263   9.582 -0.2030  0.3654 -0.3450
   72SLPC   C29 6301   5.465   1.280   9.501 -0.0435 -0.5437  0.2704
   72SLPC   H9R 6302   5.359   1.281   9.529  0.2947 -1.6646  1.7257
   72SLPC  C210 6303   5.498   1.280   9.367  0.3232 -0.8073 -0.4352
   72SLPC  H10R 6304   5.409   1.293   9.304 -1.1220 -1.5737  1.3506
   72SLPC  C211 6305   5.633   1.264   9.306 -0.1127  0.5635 -1.1170
   72SLPC  H11R 6306   5.710   1.315   9.366 -0.0694  0.7764 -1.3536
   72SLPC  H11S 6307   5.628   1.317   9.208 -2.5137 -0.6649 -1.7487
   72SLPC  C212 6308   5.671   1.116   9.296 -0.5224 -0.4085 -0.5740
   72SLPC  H12R 6309   5.690   1.075   9.396  3.0626 -1.5099 -1.5871
   72SLPC  C213 6310   5.710   1.045   9.185  0.1477 -0.4186 -0.1773
   72SLPC  H13R 6311   5.736   0.938   9.193 -1.4100 -0.8237 -0.0930
   72SLPC  C214 6312   5.715   1.111   9.051  0.0107  0.0345  0.0486
   72SLPC  H14R 6313   5.683   1.217   9.049  2.0778  0.7144  0.3471
   72SLPC  H14S 6314   5.657   1.058   8.972 -1.5353 -0.8447  1.7245
   72SLPC  C215 6315   5.859   1.131   8.996  0.4046  0.1873 -1.0654
   72SLPC  H15R 6316   5.902   1.040   8.949  3.5108 -0.6703  2.8942
   72SLPC  H15S 6317   5.928   1.144   9.081 -0.5867 -3.0027  0.3888
   72SLPC  C216 6318   5.880   1.257   8.899  0.4023 -0.1797  0.3671
   72SLPC  H16R 6319   5.852   1.340   8.967 -1.3490  0.0547 -0.5768
   72SLPC  H16S 6320   5.810   1.243   8.814  1.6175  1.0399 -0.8871
   72SLPC  C217 6321   6.019   1.277   8.838 -0.0335  0.6358  0.1113
   72SLPC  H17R 6322   6.022   1.355   8.758  2.8058  0.1037 -0.4351
   72SLPC  H17S 6323   6.064   1.191   8.783 -2.4600  0.2496 -1.4063
   72SLPC  C218 6324   6.116   1.326   8.942 -0.1320  0.2449 -0.8782
   72SLPC  H18R 6325   6.220   1.321   8.902  0.4553 -0.2913  0.6264
   72SLPC  H18S 6326   6.119   1.260   9.032  1.0023  1.9491  0.4023
   72SLPC  H18T 6327   6.084   1.427   8.973 -1.4162 -0.4592  0.2140
   72SLPC   C33 6328   5.988   0.804  10.161 -0.3579 -0.0563  0.0283
   72SLPC   H3X 6329   6.031   0.766  10.257 -0.0852  2.2156  0.8738
   72SLPC   H3Y 6330   6.054   0.888  10.132  0.0795 -0.0946  0.8616
   72SLPC   C34 6331   5.982   0.697  10.052  0.1901  1.1872  0.0905
   72SLPC   H4X 6332   5.897   0.632  10.081 -0.0310  2.2706  2.0256
   72SLPC   H4Y 6333   6.076   0.638  10.066  0.3254  1.1771 -0.7628
   72SLPC   C35 6334   5.966   0.752   9.903  0.3591  0.0178 -0.1207
   72SLPC   H5X 6335   6.045   0.806   9.846 -1.3642  2.1677 -0.5582
   72SLPC   H5Y 6336   5.885   0.827   9.910 -0.7024 -1.1351  0.3646
   72SLPC   C36 6337   5.925   0.647   9.791 -0.1429 -0.0316  0.4176
   72SLPC   H6X 6338   5.847   0.582   9.836 -1.7481  1.7445  0.3288
   72SLPC   H6Y 6339   6.011   0.578   9.774 -0.8181 -1.4968  2.5287
   72SLPC   C37 6340   5.884   0.713   9.662  0.0396 -0.3889  0.1762
   72SLPC   H7X 6341   5.972   0.759   9.613 -1.0964  0.5283 -1.0586
   72SLPC   H7Y 6342   5.809   0.794   9.679  0.6099  0.0677  0.5637
   72SLPC   C38 6343   5.835   0.619   9.552 -0.7438  0.8411  0.1342
   72SLPC   H8X 6344   5.746   0.568   9.596  0.1437  1.5970  3.0859
   72SLPC   H8Y 6345   5.901   0.535   9.523 -1.4420  0.4391 -0.3371
   72SLPC   C39 6346   5.788   0.692   9.424 -0.7553  0.1683  0.0814
   72SLPC   H9X 6347   5.873   0.744   9.374 -1.0230  1.5350  0.9863
   72SLPC   H9Y 6348   5.716   0.774   9.445  1.4853  2.2583  0.0460
   72SLPC  C310 6349   5.715   0.586   9.349 -0.0127  0.0085  0.7850
   72SLPC  H10X 6350   5.634   0.531   9.402  0.0004 -0.1278  0.6644
   72SLPC  H10Y 6351   5.782   0.501   9.323 -2.3006 -1.1128 -1.9297
   72SLPC  C311 6352   5.650   0.635   9.219 -0.3525 -0.3569  0.4649
   72SLPC  H11X 6353   5.728   0.688   9.161 -1.4116  0.4667 -0.2707
   72SLPC  H11Y 6354   5.568   0.706   9.247  1.8604  1.7714  1.9419
   72SLPC  C312 6355   5.583   0.523   9.139 -0.1756 -0.1627 -0.0208
   72SLPC  H12X 6356   5.491   0.494   9.193 -0.6424  1.8424  0.3538
   72SLPC  H12Y 6357   5.655   0.438   9.133  0.5125  0.4857 -1.7430
   72SLPC  C313 6358   5.536   0.563   8.994 -0.5679  0.2521  0.3755
   72SLPC  H13X 6359   5.497   0.472   8.943 -0.4956  0.9499 -0.9856
   72SLPC  H13Y 6360   5.633   0.593   8.949  0.0135 -2.6996 -0.5950
   72SLPC  C314 6361   5.441   0.690   8.995 -0.2827  0.2879 -0.1945
   72SLPC  H14X 6362   5.503   0.782   8.997 -0.5195  0.4543 -0.5275
   72SLPC  H14Y 6363   5.367   0.689   9.078 -0.5643 -1.8387 -0.4058
   72SLPC  C315 6364   5.358   0.700   8.863  0.0010  0.2082  0.5435
   72SLPC  H15X 6365   5.303   0.604   8.848  2.5901 -1.7143  2.4580
   72SLPC  H15Y 6366   5.431   0.699   8.779 -0.4805  1.3366  0.0946
   72SLPC  C316 6367   5.263   0.821   8.855 -0.6158  0.1748  0.6904
   72SLPC  H16X 6368   5.310   0.916   8.887 -0.3398  0.3260 -0.1384
   72SLPC  H16Y 6369   5.180   0.816   8.928 -0.8588  2.4833  0.6309
   72SLPC  C317 6370   5.201   0.835   8.715  0.2841  0.0941  0.3725
   72SLPC  H17X 6371   5.124   0.912   8.733  1.5288  0.9559  2.3181
   72SLPC  H17Y 6372   5.162   0.733   8.693  0.4128  0.4647 -1.8455
   72SLPC  C318 6373   5.298   0.883   8.603 -0.0546  0.1133 -0.2141
   72SLPC  H18X 6374   5.385   0.814   8.609 -0.3687 -0.2584  0.0826
   72SLPC  H18Y 6375   5.328   0.990   8.610  1.4511 -0.3007  0.2390
   72SLPC  H18Z 6376   5.249   0.867   8.505  0.0930  0.4248 -0.3399
   73SLPC     N 6377   3.877   5.923  11.027  0.7414  0.0424  0.2694
   73SLPC   C13 6378   3.951   5.977  11.145  0.2565 -0.3270 -0.0693
   73SLPC  H13A 6379   3.902   6.068  11.175 -0.0872 -0.4965 -0.1169
   73SLPC  H13B 6380   3.952   5.899  11.220 -0.0698  0.1108  0.3922
   73SLPC  H13C 6381   4.053   5.992  11.112  0.8330  1.1590  2.1830
   73SLPC   C14 6382   3.737   5.899  11.082  0.2746 -0.2987 -0.3174
   73SLPC  H14A 6383   3.698   5.982  11.139 -1.5337 -1.9568  1.0409
   73SLPC  H14B 6384   3.668   5.859  11.010  0.7659 -2.3562  0.2834
   73SLPC  H14C 6385   3.739   5.816  11.152  0.1680  0.5834  0.7605
   73SLPC   C15 6386   3.930   5.785  11.003  0.3583  0.7956  0.3666
   73SLPC  H15A 6387   3.886   5.730  10.920  0.2977  0.6929  0.4657
   73SLPC  H15B 6388   4.035   5.794  10.979  1.1598 -1.8351  2.3634
   73SLPC  H15C 6389   3.913   5.720  11.088 -3.8646  0.1549 -0.7157
   73SLPC   C12 6390   3.876   6.008  10.904  0.4352  0.7194 -0.3348
   73SLPC  H12A 6391   3.834   6.105  10.926 -2.3847 -0.3604 -0.4665
   73SLPC  H12B 6392   3.808   5.959  10.836 -0.5083  0.7699  0.5356
   73SLPC   C11 6393   4.002   6.017  10.819  0.3140  0.2105 -0.0348
   73SLPC  H11A 6394   3.969   6.079  10.733 -3.9626  1.0094  1.9113
   73SLPC  H11B 6395   4.028   5.913  10.790 -4.3883 -0.7883 -1.5216
   73SLPC     P 6396   4.116   6.247  10.895 -0.0306 -0.1281  0.2842
   73SLPC   O13 6397   4.001   6.295  10.975 -0.5841 -0.4694 -0.1236
   73SLPC   O14 6398   4.256   6.279  10.935  0.4173  0.4120 -0.3392
   73SLPC   O12 6399   4.105   6.086  10.891 -0.2156 -0.1438 -0.2963
   73SLPC   O11 6400   4.102   6.284  10.745  0.2980  0.1626  0.6141
   73SLPC    C1 6401   4.201   6.271  10.648 -0.0517  0.6058 -0.3912
   73SLPC    HA 6402   4.275   6.354  10.651  0.0481  0.4928  1.9245
   73SLPC    HB 6403   4.258   6.176  10.657  0.7047  0.6629 -3.5979
   73SLPC    C2 6404   4.164   6.267  10.494  0.5220  0.6359 -0.1046
   73SLPC    HS 6405   4.112   6.362  10.471  1.9244  1.4511 -0.0490
   73SLPC   O21 6406   4.085   6.157  10.461  0.7353 -0.0969  0.0277
   73SLPC   C21 6407   3.950   6.183  10.474  0.3199  1.0279  0.8634
   73SLPC   O22 6408   3.900   6.287  10.511  0.0407  0.1862  0.2849
   73SLPC   C22 6409   3.869   6.055  10.431  0.1196  0.3486  0.1189
   73SLPC   H2R 6410   3.892   5.973  10.503  1.4721  0.6444  0.0467
   73SLPC   H2S 6411   3.761   6.077  10.445  0.0329 -0.5962  1.1292
   73SLPC    C3 6412   4.295   6.259  10.405  0.3809  0.2267 -1.0905
   73SLPC    HX 6413   4.331   6.156  10.423 -2.0593 -0.5770 -0.4286
   73SLPC    HY 6414   4.361   6.333  10.457 -0.5461 -0.9845  2.0383
   73SLPC   O31 6415   4.282   6.288  10.264 -0.6353  0.2487 -0.0022
   73SLPC   C31 6416   4.268   6.175  10.186  0.1888  0.1085  0.1703
   73SLPC   O32 6417   4.280   6.061  10.225 -0.2168 -0.3240  0.0470
   73SLPC   C32 6418   4.239   6.207  10.045  0.6420  0.2010  0.5458
   73SLPC   H2X 6419   4.305   6.292  10.017 -0.1536 -0.1678 -2.8121
   73SLPC   H2Y 6420   4.132   6.226  10.023  0.9538  0.5157 -0.7841
   73SLPC   C23 6421   3.900   6.014  10.286  0.0624 -0.1662 -0.1310
   73SLPC   H3R 6422   4.006   5.985  10.275 -0.0040  0.1984 -2.0862
   73SLPC   H3S 6423   3.883   6.107  10.229  1.0164 -0.5014 -0.9794
   73SLPC   C24 6424   3.812   5.898  10.229 -0.0962  0.4181 -0.3274
   73SLPC   H4R 6425   3.718   5.884  10.287  0.9493  0.9208  1.5705
   73SLPC   H4S 6426   3.868   5.803  10.238 -2.5819 -1.1196 -0.2678
   73SLPC   C25 6427   3.789   5.919  10.076  0.7464 -0.1772  0.3887
   73SLPC   H5R 6428   3.751   6.023  10.061 -1.2388 -0.6384  1.8643
   73SLPC   H5S 6429   3.709   5.859  10.029 -0.8100 -0.7330  3.5552
   73SLPC   C26 6430   3.907   5.893   9.991 -1.0512 -0.1289 -0.6253
   73SLPC   H6R 6431   3.998   5.930  10.043 -2.1387 -0.9612  2.0870
   73SLPC   H6S 6432   3.902   5.957   9.900 -0.9998  2.2587  0.9435
   73SLPC   C27 6433   3.931   5.752   9.941  0.0649  0.3187  0.1662
   73SLPC   H7R 6434   3.836   5.706   9.906 -0.2753  0.5926  0.7243
   73SLPC   H7S 6435   3.958   5.697  10.033  0.8278  1.1465  0.4530
   73SLPC   C28 6436   4.045   5.743   9.837  0.5708  0.4163  0.3060
   73SLPC   H8R 6437   4.136   5.786   9.885  0.1815  1.6425 -0.0220
   73SLPC   H8S 6438   4.006   5.815   9.763 -1.5438  0.5530  1.4617
   73SLPC   C29 6439   4.066   5.599   9.788  0.7139 -0.2248 -0.0604
   73SLPC   H9R 6440   4.070   5.523   9.868 -2.6838 -1.0817 -0.5779
   73SLPC  C210 6441   4.072   5.545   9.667  0.2758  0.1463 -0.1881
   73SLPC  H10R 6442   4.059   5.436   9.666  1.8973 -0.1423  2.0146
   73SLPC  C211 6443   4.063   5.618   9.535 -0.2266 -0.0204 -0.0391
   73SLPC  H11R 6444   4.033   5.724   9.550 -0.7588 -0.1775  0.0340
   73SLPC  H11S 6445   3.976   5.567   9.488  1.1856 -2.6564  0.0439
   73SLPC  C212 6446   4.188   5.621   9.454  0.2946  0.6485 -0.5666
   73SLPC  H12R 6447   4.276   5.649   9.514 -0.7395  0.5891  1.0227
   73SLPC  C213 6448   4.198   5.610   9.320 -0.7080 -0.4466 -0.3087
   73SLPC  H13R 6449   4.296   5.599   9.271 -0.9361  0.9106 -1.1405
   73SLPC  C214 6450   4.087   5.585   9.226  0.1255 -0.0403 -0.0197
   73SLPC  H14R 6451   4.035   5.501   9.277  3.3830 -0.3232  3.2560
   73SLPC  H14S 6452   4.127   5.567   9.124 -0.7838 -1.7547 -0.1041
   73SLPC  C215 6453   3.997   5.712   9.198 -0.1516  0.6243  0.0643
   73SLPC  H15R 6454   4.057   5.786   9.141  1.5377 -1.2225 -0.6592
   73SLPC  H15S 6455   3.976   5.742   9.303  2.7855 -1.0180  1.2577
   73SLPC  C216 6456   3.859   5.674   9.137  0.1022  0.5904 -0.0211
   73SLPC  H16R 6457   3.804   5.596   9.193  1.7288 -0.2294  0.4867
   73SLPC  H16S 6458   3.878   5.627   9.038 -1.2711  0.4272 -0.2287
   73SLPC  C217 6459   3.766   5.785   9.110  0.1242  0.4539 -0.2128
   73SLPC  H17R 6460   3.754   5.839   9.206  0.4876  2.7417 -1.3826
   73SLPC  H17S 6461   3.666   5.746   9.081 -0.3503  1.6289 -0.2252
   73SLPC  C218 6462   3.814   5.885   9.005 -0.2671 -0.1483  0.7086
   73SLPC  H18R 6463   3.865   5.842   8.916  0.7454  1.1434  0.6297
   73SLPC  H18S 6464   3.892   5.956   9.040 -0.1166 -0.8136  1.8102
   73SLPC  H18T 6465   3.727   5.945   8.971 -0.3455 -0.3777  0.5010
   73SLPC   C33 6466   4.261   6.078   9.964  0.0096  0.0186  0.0686
   73SLPC   H3X 6467   4.175   6.012   9.988 -1.3714  1.6035 -0.2533
   73SLPC   H3Y 6468   4.353   6.020   9.987  0.8369  1.4997  0.6729
   73SLPC   C34 6469   4.253   6.117   9.820  0.2429 -0.5789 -0.0853
   73SLPC   H4X 6470   4.322   6.199   9.793 -1.2933  0.7211 -0.2161
   73SLPC   H4Y 6471   4.155   6.163   9.795  1.2100  1.6164 -0.0518
   73SLPC   C35 6472   4.283   6.001   9.727 -0.3386 -0.2473  0.2381
   73SLPC   H5X 6473   4.193   5.935   9.732  0.9879 -2.2127 -0.4745
   73SLPC   H5Y 6474   4.377   5.956   9.763  0.3270  1.4756  0.7588
   73SLPC   C36 6475   4.317   6.059   9.587 -0.4085 -0.0163  0.2357
   73SLPC   H6X 6476   4.410   6.120   9.593 -0.5257  0.1342  0.5450
   73SLPC   H6Y 6477   4.236   6.131   9.563 -0.8342 -0.8670 -0.9856
   73SLPC   C37 6478   4.328   5.946   9.490 -0.4867 -0.1578 -0.8237
   73SLPC   H7X 6479   4.233   5.889   9.487 -0.6082 -0.0116  0.0817
   73SLPC   H7Y 6480   4.401   5.868   9.520 -2.1289 -0.6972  2.1263
   73SLPC   C38 6481   4.351   5.997   9.347  0.0481 -0.4506  0.5081
   73SLPC   H8X 6482   4.357   5.903   9.288 -1.3171  0.4233 -1.1008
   73SLPC   H8Y 6483   4.447   6.052   9.336 -0.0795 -0.2794  0.2475
   73SLPC   C39 6484   4.241   6.084   9.267 -0.0594  1.4234  0.6608
   73SLPC   H9X 6485   4.172   6.141   9.332  0.6462 -0.2650  3.0123
   73SLPC   H9Y 6486   4.171   6.009   9.225  1.2005 -1.1902  2.9314
   73SLPC  C310 6487   4.309   6.183   9.166 -0.1398  0.6926 -0.2360
   73SLPC  H10X 6488   4.402   6.228   9.206 -0.2662  0.0527  0.8426
   73SLPC  H10Y 6489   4.241   6.268   9.146 -3.4886 -1.7161 -0.0378
   73SLPC  C311 6490   4.342   6.113   9.028 -0.3328 -0.1567 -0.7716
   73SLPC  H11X 6491   4.252   6.082   8.970 -1.1104  0.4234  0.1016
   73SLPC  H11Y 6492   4.411   6.027   9.045  1.9537  1.6920 -0.0778
   73SLPC  C312 6493   4.430   6.212   8.953  0.0273 -0.4104 -0.3874
   73SLPC  H12X 6494   4.524   6.226   9.010 -1.2351 -0.8655  1.9469
   73SLPC  H12Y 6495   4.395   6.317   8.942  3.6441  0.8461 -1.1658
   73SLPC  C313 6496   4.468   6.167   8.813 -0.0833  1.1765 -0.6959
   73SLPC  H13X 6497   4.394   6.185   8.733 -1.0247 -0.3740 -0.2076
   73SLPC  H13Y 6498   4.477   6.056   8.811 -3.7478  0.7114  0.9270
   73SLPC  C314 6499   4.598   6.239   8.768  1.0828 -0.5588 -0.6208
   73SLPC  H14X 6500   4.677   6.200   8.835  2.4878 -0.6558 -2.2623
   73SLPC  H14Y 6501   4.589   6.346   8.798 -0.0282 -1.2606  1.8439
   73SLPC  C315 6502   4.642   6.229   8.621 -0.4183  0.3914 -0.5834
   73SLPC  H15X 6503   4.734   6.289   8.602 -0.6470  0.8013 -0.3960
   73SLPC  H15Y 6504   4.573   6.279   8.550  0.3904  0.0900 -1.6060
   73SLPC  C316 6505   4.648   6.084   8.576 -0.1309  0.1572  0.7131
   73SLPC  H16X 6506   4.549   6.058   8.532 -0.3307  0.2411  1.1057
   73SLPC  H16Y 6507   4.655   6.015   8.663 -2.3457  1.4382  2.0227
   73SLPC  C317 6508   4.765   6.072   8.476 -0.0355 -0.4423 -0.8354
   73SLPC  H17X 6509   4.844   6.037   8.546 -1.3120 -0.6946  0.5025
   73SLPC  H17Y 6510   4.781   6.177   8.442  1.3038 -0.4820 -0.4054
   73SLPC  C318 6511   4.738   5.972   8.368  0.4892  0.1895  0.5027
   73SLPC  H18X 6512   4.633   5.954   8.338  0.4167 -1.4515  1.6139
   73SLPC  H18Y 6513   4.761   5.870   8.405 -0.7776  0.0154  0.8408
   73SLPC  H18Z 6514   4.807   5.992   8.283  0.6851 -0.4246  0.5119
   74SLPC     N 6515   6.368   1.586  10.709 -0.1645 -0.2032 -0.0682
   74SLPC   C13 6516   6.350   1.519  10.574  0.2089 -0.0709  0.5673
   74SLPC  H13A 6517   6.330   1.414  10.590 -0.8272  0.0693  0.2979
   74SLPC  H13B 6518   6.262   1.567  10.533  0.6758  1.2388  1.0462
   74SLPC  H13C 6519   6.439   1.537  10.515  0.3085  0.1543  0.7871
   74SLPC   C14 6520   6.474   1.508  10.788 -0.6354 -0.3239  0.0139
   74SLPC  H14A 6521   6.494   1.564  10.878  0.4408 -1.5686  0.5780
   74SLPC  H14B 6522   6.455   1.405  10.815 -1.6147 -0.3678 -0.7868
   74SLPC  H14C 6523   6.567   1.509  10.734 -0.6678 -0.8613 -0.0545
   74SLPC   C15 6524   6.242   1.584  10.789  0.3332 -0.0595 -0.2831
   74SLPC  H15A 6525   6.165   1.649  10.751  1.3081 -0.3499 -2.9324
   74SLPC  H15B 6526   6.216   1.483  10.814 -1.4839  0.3420 -0.3927
   74SLPC  H15C 6527   6.272   1.630  10.883  0.5379  0.3930 -0.5644
   74SLPC   C12 6528   6.422   1.726  10.679 -0.3988  0.4644  0.3810
   74SLPC  H12A 6529   6.512   1.703  10.625 -1.6320 -2.1931 -0.7230
   74SLPC  H12B 6530   6.458   1.777  10.767 -0.4040 -0.4395  0.9299
   74SLPC   C11 6531   6.333   1.825  10.605  0.6104  0.4588  0.3284
   74SLPC  H11A 6532   6.247   1.851  10.670  0.6589 -0.1768  0.6527
   74SLPC  H11B 6533   6.290   1.772  10.518 -0.5626  2.3548 -0.3148
   74SLPC     P 6534   6.404   2.071  10.662  0.2275  0.2112  0.1546
   74SLPC   O13 6535   6.355   2.185  10.578  0.1501  0.3571 -0.4374
   74SLPC   O14 6536   6.344   2.043  10.793 -0.5041  0.1416  0.7830
   74SLPC   O12 6537   6.412   1.939  10.577 -0.7032  0.3531  0.0002
   74SLPC   O11 6538   6.551   2.106  10.693  0.0561  0.6170  0.2292
   74SLPC    C1 6539   6.666   2.038  10.645  0.0333 -0.0058 -0.2989
   74SLPC    HA 6540   6.753   2.077  10.702  0.2175 -0.9335  0.0725
   74SLPC    HB 6541   6.669   1.928  10.661  1.6938 -0.5776 -3.6764
   74SLPC    C2 6542   6.697   2.078  10.498  0.1741 -0.4513  0.4176
   74SLPC    HS 6543   6.641   2.172  10.478  0.0206 -0.8877 -1.3293
   74SLPC   O21 6544   6.649   1.967  10.409 -0.4899 -1.3064 -0.1042
   74SLPC   C21 6545   6.560   2.002  10.318 -0.1595 -0.2601  0.5055
   74SLPC   O22 6546   6.534   2.118  10.292  0.0443  0.1127  0.2607
   74SLPC   C22 6547   6.501   1.877  10.255  0.5642 -0.5980  0.0000
   74SLPC   H2R 6548   6.490   1.790  10.323 -0.9523 -0.2203  0.2669
   74SLPC   H2S 6549   6.399   1.912  10.230  0.6612 -1.5488 -1.9536
   74SLPC    C3 6550   6.853   2.113  10.491 -0.0391 -0.0938 -0.0273
   74SLPC    HX 6551   6.906   2.037  10.550 -0.5391  1.8713  3.1986
   74SLPC    HY 6552   6.862   2.210  10.545 -0.9785 -0.0437  0.0536
   74SLPC   O31 6553   6.891   2.106  10.348  0.2707  0.5454 -0.4208
   74SLPC   C31 6554   6.874   2.203  10.265  0.5837 -0.1878 -0.3271
   74SLPC   O32 6555   6.819   2.306  10.290 -0.3881  0.1867 -0.0099
   74SLPC   C32 6556   6.929   2.165  10.126  0.0355 -0.3740  0.2053
   74SLPC   H2X 6557   7.030   2.125  10.150 -0.5463 -1.8502  0.3453
   74SLPC   H2Y 6558   6.927   2.259  10.068 -2.7387  0.8974  2.1418
   74SLPC   C23 6559   6.557   1.846  10.114  0.3443  0.6216 -0.0768
   74SLPC   H3R 6560   6.657   1.800  10.132 -0.8673 -1.2620  2.6940
   74SLPC   H3S 6561   6.563   1.939  10.054 -3.3712  0.8289 -0.3572
   74SLPC   C24 6562   6.484   1.744  10.025 -0.1205  0.2330  0.2180
   74SLPC   H4R 6563   6.396   1.799   9.987  1.1982  0.9133 -2.0487
   74SLPC   H4S 6564   6.446   1.652  10.074  0.5573 -1.4175 -2.1788
   74SLPC   C25 6565   6.559   1.709   9.895  0.2060 -0.0065  0.0507
   74SLPC   H5R 6566   6.651   1.659   9.933 -0.1772  0.1769  1.2602
   74SLPC   H5S 6567   6.589   1.805   9.848 -0.0448  0.8869  1.6397
   74SLPC   C26 6568   6.474   1.613   9.822 -0.2710 -0.2007  0.5470
   74SLPC   H6R 6569   6.376   1.664   9.814  0.6167  1.5594  0.5378
   74SLPC   H6S 6570   6.468   1.515   9.875  1.4211 -0.8880 -0.4535
   74SLPC   C27 6571   6.540   1.591   9.688  0.0241  0.0197 -0.2051
   74SLPC   H7R 6572   6.637   1.545   9.718  0.1168  1.2352  1.5307
   74SLPC   H7S 6573   6.557   1.692   9.645 -0.4001 -0.1876 -0.8796
   74SLPC   C28 6574   6.480   1.482   9.592  0.8884 -0.1108 -0.0884
   74SLPC   H8R 6575   6.471   1.392   9.657  1.3631  1.9488  3.0182
   74SLPC   H8S 6576   6.551   1.453   9.511  2.3515 -1.6386  1.6533
   74SLPC   C29 6577   6.349   1.527   9.535  0.4816  1.0171  0.4850
   74SLPC   H9R 6578   6.263   1.527   9.603  1.3857  3.2267  1.7306
   74SLPC  C210 6579   6.334   1.561   9.402  0.1221  0.5657  0.4508
   74SLPC  H10R 6580   6.230   1.578   9.369  0.1164  1.1779  0.7727
   74SLPC  C211 6581   6.430   1.556   9.283 -0.9703 -0.3783  0.5274
   74SLPC  H11R 6582   6.394   1.467   9.228  0.0033  0.3650 -1.4252
   74SLPC  H11S 6583   6.537   1.527   9.296 -0.4688  0.8907 -0.4936
   74SLPC  C212 6584   6.427   1.684   9.207 -0.2185  0.4275 -0.3498
   74SLPC  H12R 6585   6.466   1.769   9.265  4.6293 -1.1557 -0.8357
   74SLPC  C213 6586   6.381   1.709   9.082  0.4203 -0.0336  0.1639
   74SLPC  H13R 6587   6.388   1.808   9.035  1.9411 -0.8636 -1.4793
   74SLPC  C214 6588   6.321   1.616   8.987 -0.1324 -0.0341 -0.1924
   74SLPC  H14R 6589   6.211   1.630   8.977 -0.1590 -1.0895 -1.9031
   74SLPC  H14S 6590   6.326   1.507   9.011  2.7373 -0.7028 -3.0875
   74SLPC  C215 6591   6.381   1.622   8.846  0.8495  0.3443 -0.1249
   74SLPC  H15R 6592   6.473   1.560   8.842  0.5424 -0.3058  1.7723
   74SLPC  H15S 6593   6.405   1.730   8.830 -0.7461  1.0182  1.5877
   74SLPC  C216 6594   6.279   1.557   8.748  0.1430  0.2076  0.6451
   74SLPC  H16R 6595   6.175   1.597   8.742 -0.4753 -1.5191 -1.1772
   74SLPC  H16S 6596   6.267   1.451   8.779 -1.0204  0.4741  1.1819
   74SLPC  C217 6597   6.338   1.560   8.603  0.5919 -0.2307  0.7216
   74SLPC  H17R 6598   6.440   1.517   8.604  0.7635  0.1409  0.0265
   74SLPC  H17S 6599   6.342   1.667   8.571  0.1279 -0.4903 -0.2405
   74SLPC  C218 6600   6.250   1.494   8.496  0.0934  0.1146 -0.5875
   74SLPC  H18R 6601   6.144   1.527   8.505 -0.0599 -0.8219  1.3852
   74SLPC  H18S 6602   6.241   1.386   8.520  0.3878 -0.5023 -2.9801
   74SLPC  H18T 6603   6.288   1.516   8.393 -2.8746  0.4230 -1.7201
   74SLPC   C33 6604   6.851   2.055  10.054  0.0120 -0.4620  0.2320
   74SLPC   H3X 6605   6.773   2.109   9.996 -1.2637 -2.5998 -0.1482
   74SLPC   H3Y 6606   6.800   1.978  10.115 -1.1177 -1.1368 -1.4867
   74SLPC   C34 6607   6.935   1.975   9.954  0.0814  0.2918  0.1077
   74SLPC   H4X 6608   6.997   1.898  10.006 -2.1460 -1.9960 -0.4082
   74SLPC   H4Y 6609   7.002   2.056   9.918  0.5252 -0.5269 -0.9482
   74SLPC   C35 6610   6.869   1.900   9.836 -0.2411  0.2746 -0.8100
   74SLPC   H5X 6611   6.804   1.966   9.774  1.9469  1.7981 -1.5965
   74SLPC   H5Y 6612   6.806   1.824   9.885 -0.3745 -0.0168 -1.4246
   74SLPC   C36 6613   6.964   1.817   9.747 -0.5413  0.4661 -0.2933
   74SLPC   H6X 6614   7.004   1.738   9.813 -0.9269  1.2286  0.8681
   74SLPC   H6Y 6615   7.045   1.880   9.703 -0.2682  0.5315  0.2991
   74SLPC   C37 6616   6.887   1.774   9.619 -0.0235  0.6350  0.2340
   74SLPC   H7X 6617   6.836   1.862   9.575  0.2907  0.0901 -1.2551
   74SLPC   H7Y 6618   6.812   1.698   9.650  1.2245  0.4005  3.0218
   74SLPC   C38 6619   6.985   1.727   9.514 -0.6088 -0.0007  0.6976
   74SLPC   H8X 6620   7.005   1.620   9.535 -0.6878 -0.8277 -2.7738
   74SLPC   H8Y 6621   7.074   1.793   9.510 -1.3952  1.0209 -1.6004
   74SLPC   C39 6622   6.922   1.733   9.374 -0.4673 -0.0018 -0.0507
   74SLPC   H9X 6623   6.885   1.831   9.336 -3.2412 -1.7853 -2.3160
   74SLPC   H9Y 6624   6.835   1.664   9.374  0.1250 -0.8644 -2.6390
   74SLPC  C310 6625   7.023   1.685   9.265  0.3083  0.0954  0.1879
   74SLPC  H10X 6626   6.971   1.695   9.167 -0.3753 -1.2472  0.3975
   74SLPC  H10Y 6627   7.038   1.575   9.263  1.9887  0.2751  1.0355
   74SLPC  C311 6628   7.150   1.770   9.259  0.0330 -0.0827  0.2766
   74SLPC  H11X 6629   7.208   1.746   9.350 -1.0059 -0.4009  0.8825
   74SLPC  H11Y 6630   7.120   1.876   9.279 -0.7714 -0.3685  0.6332
   74SLPC  C312 6631   7.243   1.757   9.144 -0.6226 -0.4030 -0.1127
   74SLPC  H12X 6632   7.331   1.826   9.143 -0.0942 -1.0694 -1.0234
   74SLPC  H12Y 6633   7.184   1.802   9.061  1.7872  2.5858 -0.4103
   74SLPC  C313 6634   7.284   1.609   9.116  0.1247 -0.9301 -0.3449
   74SLPC  H13X 6635   7.197   1.548   9.083  0.8168 -2.9585  1.3589
   74SLPC  H13Y 6636   7.317   1.554   9.206  2.7961  0.0420 -0.6367
   74SLPC  C314 6637   7.392   1.591   9.009  0.4741 -0.0693  0.1932
   74SLPC  H14X 6638   7.419   1.485   8.988 -1.4193 -0.6033  0.2740
   74SLPC  H14Y 6639   7.472   1.663   9.038 -0.6359  1.2679  0.0386
   74SLPC  C315 6640   7.349   1.628   8.864  0.5986 -0.0087 -0.2079
   74SLPC  H15X 6641   7.318   1.734   8.865 -1.7342 -0.6271 -0.6223
   74SLPC  H15Y 6642   7.257   1.574   8.830  0.3521 -0.2491  0.7937
   74SLPC  C316 6643   7.451   1.611   8.752  0.0192 -0.3152  0.1303
   74SLPC  H16X 6644   7.431   1.507   8.716  0.3529 -0.0351 -0.8784
   74SLPC  H16Y 6645   7.550   1.613   8.802 -0.4978  0.8282  1.1583
   74SLPC  C317 6646   7.444   1.709   8.636 -0.6271 -1.0817 -0.1173
   74SLPC  H17X 6647   7.340   1.745   8.621  0.4176  2.9393  1.2235
   74SLPC  H17Y 6648   7.476   1.662   8.540  2.0954 -0.9650  0.6605
   74SLPC  C318 6649   7.546   1.828   8.645 -0.5286 -0.1935 -0.0044
   74SLPC  H18X 6650   7.520   1.918   8.584 -2.7102 -0.2819  0.7238
   74SLPC  H18Y 6651   7.653   1.799   8.635 -0.2623  0.4439  0.8335
   74SLPC  H18Z 6652   7.546   1.873   8.747  1.2750  0.1258 -0.1048
   75SLPC     N 6653   1.868   1.574   6.458 -0.5064  0.0123  0.1337
   75SLPC   C13 6654   1.745   1.602   6.387  0.1908  1.5876 -0.4753
   75SLPC  H13A 6655   1.732   1.533   6.304  0.6639 -0.7999  1.3401
   75SLPC  H13B 6656   1.665   1.609   6.459  0.9543  1.2046  0.4271
   75SLPC  H13C 6657   1.747   1.692   6.327  0.7689  1.6782 -0.3235
   75SLPC   C14 6658   1.892   1.699   6.538  0.2154 -0.3819  0.2932
   75SLPC  H14A 6659   1.886   1.790   6.481  0.8328 -0.1346  0.6020
   75SLPC  H14B 6660   1.828   1.715   6.623 -1.4784  0.5319 -1.1084
   75SLPC  H14C 6661   1.997   1.693   6.564  0.5589  1.7070 -0.4137
   75SLPC   C15 6662   1.975   1.566   6.357  0.8459 -0.1154  0.6545
   75SLPC  H15A 6663   1.967   1.627   6.268  2.3292 -0.8498 -0.0113
   75SLPC  H15B 6664   2.071   1.589   6.401  1.0653  0.5823 -0.1523
   75SLPC  H15C 6665   1.973   1.463   6.325 -1.7377  0.1982 -0.4236
   75SLPC   C12 6666   1.874   1.454   6.547  0.3490 -0.6653 -0.8769
   75SLPC  H12A 6667   1.793   1.456   6.618  1.1020  0.3345 -0.0117
   75SLPC  H12B 6668   1.953   1.467   6.619  0.3902  1.5878 -1.2576
   75SLPC   C11 6669   1.871   1.314   6.490  0.4238 -0.2175 -0.0893
   75SLPC  H11A 6670   1.892   1.235   6.565  0.8157 -1.4506 -1.4319
   75SLPC  H11B 6671   1.958   1.311   6.420  0.2086  0.2656 -0.3861
   75SLPC     P 6672   1.629   1.236   6.502  0.1067 -0.1521 -0.1925
   75SLPC   O13 6673   1.509   1.303   6.447 -0.0983 -0.4561  0.1569
   75SLPC   O14 6674   1.630   1.089   6.487  0.0283 -0.1841  0.3137
   75SLPC   O12 6675   1.752   1.290   6.422 -0.3238  0.6541  0.2258
   75SLPC   O11 6676   1.651   1.289   6.645  0.0384  0.0680  0.1142
   75SLPC    C1 6677   1.563   1.246   6.747 -0.4456  0.6689  0.2387
   75SLPC    HA 6678   1.541   1.327   6.820 -0.0162 -0.6474  1.8754
   75SLPC    HB 6679   1.471   1.197   6.709 -0.1578 -1.0519  1.6800
   75SLPC    C2 6680   1.641   1.143   6.834  0.3031  0.1948  0.2496
   75SLPC    HS 6681   1.671   1.058   6.768 -0.6491 -0.2813  0.4231
   75SLPC   O21 6682   1.552   1.093   6.943  0.6719  0.3028  0.4399
   75SLPC   C21 6683   1.499   0.973   6.926 -0.1244  0.0323  0.0620
   75SLPC   O22 6684   1.530   0.897   6.835 -0.2991 -0.1601 -0.2229
   75SLPC   C22 6685   1.399   0.949   7.039 -0.9617  0.3082 -0.3100
   75SLPC   H2R 6686   1.458   0.894   7.115 -1.5750  0.2744  0.1469
   75SLPC   H2S 6687   1.378   1.052   7.074  1.0194  0.5243  0.3368
   75SLPC    C3 6688   1.764   1.214   6.896 -0.5146  0.6005  0.1927
   75SLPC    HX 6689   1.744   1.318   6.930  2.2580  1.6317 -1.0390
   75SLPC    HY 6690   1.839   1.231   6.816 -0.3383 -0.8887  0.0039
   75SLPC   O31 6691   1.830   1.131   6.997 -0.3481 -0.0470  0.3342
   75SLPC   C31 6692   1.790   1.164   7.120 -0.4882 -0.1268  0.1228
   75SLPC   O32 6693   1.730   1.266   7.152  0.3514 -0.1604 -0.0572
   75SLPC   C32 6694   1.794   1.049   7.212  0.2315  0.3104 -0.1377
   75SLPC   H2X 6695   1.877   0.980   7.185  0.7554  0.7844  0.2365
   75SLPC   H2Y 6696   1.700   0.994   7.187  1.0482 -0.6173 -1.2807
   75SLPC   C23 6697   1.278   0.863   6.998 -0.0262  0.1401 -0.9020
   75SLPC   H3R 6698   1.304   0.757   6.981  1.0749  0.1932  0.3218
   75SLPC   H3S 6699   1.238   0.904   6.903 -1.6108 -0.1495 -0.3896
   75SLPC   C24 6700   1.171   0.856   7.111 -0.0409 -0.0365  0.5331
   75SLPC   H4R 6701   1.085   0.823   7.049  0.6332  1.0606 -1.0495
   75SLPC   H4S 6702   1.149   0.958   7.148  0.4301  0.4025 -0.3653
   75SLPC   C25 6703   1.199   0.763   7.223 -0.8618  0.4520 -0.1367
   75SLPC   H5R 6704   1.273   0.687   7.189 -0.4093  0.8529 -0.0564
   75SLPC   H5S 6705   1.101   0.712   7.235 -0.7037  0.3583  0.8103
   75SLPC   C26 6706   1.242   0.827   7.358  0.2403 -0.4627 -0.6887
   75SLPC   H6R 6707   1.163   0.900   7.384  3.3651  1.6778  4.2862
   75SLPC   H6S 6708   1.331   0.891   7.342 -0.3779  0.4854 -0.4073
   75SLPC   C27 6709   1.254   0.715   7.470 -0.8747  0.6853 -0.3719
   75SLPC   H7R 6710   1.309   0.630   7.424 -3.6044 -0.0440 -2.5050
   75SLPC   H7S 6711   1.157   0.680   7.512  0.3162  1.6440  3.6846
   75SLPC   C28 6712   1.339   0.759   7.590 -0.5924  0.5752 -0.3821
   75SLPC   H8R 6713   1.430   0.807   7.548  0.4366 -2.0023 -1.3584
   75SLPC   H8S 6714   1.374   0.671   7.649 -0.1364  1.9494  1.4898
   75SLPC   C29 6715   1.269   0.855   7.687 -0.5790 -0.3116  0.2183
   75SLPC   H9R 6716   1.233   0.949   7.642  2.0090 -0.7081 -3.0319
   75SLPC  C210 6717   1.245   0.838   7.821  0.8558 -0.0129  0.9843
   75SLPC  H10R 6718   1.176   0.904   7.876 -1.4726  0.1957 -1.9198
   75SLPC  C211 6719   1.284   0.716   7.893 -0.1560 -0.3463 -0.4863
   75SLPC  H11R 6720   1.295   0.615   7.847  0.6798 -1.0500  1.1466
   75SLPC  H11S 6721   1.199   0.692   7.961 -1.2450  0.1161 -1.6488
   75SLPC  C212 6722   1.407   0.753   7.973 -0.0831 -0.7637 -0.0411
   75SLPC  H12R 6723   1.432   0.859   7.981 -0.6702 -0.5696 -0.7199
   75SLPC  C213 6724   1.488   0.660   8.036  0.3687 -0.4225 -0.2398
   75SLPC  H13R 6725   1.558   0.701   8.110  1.5447 -1.0666 -0.9549
   75SLPC  C214 6726   1.475   0.510   8.034  0.0671  0.0949  0.1287
   75SLPC  H14R 6727   1.577   0.468   8.049  0.5650  2.1102  3.2611
   75SLPC  H14S 6728   1.432   0.478   7.937 -2.6076 -0.6114  1.4632
   75SLPC  C215 6729   1.378   0.463   8.137  0.3750 -0.2622 -0.3008
   75SLPC  H15R 6730   1.274   0.497   8.119  0.7468  1.3269  0.3853
   75SLPC  H15S 6731   1.406   0.484   8.243 -0.3634 -0.1062 -0.1272
   75SLPC  C216 6732   1.366   0.310   8.127  0.0973 -0.4296  0.1183
   75SLPC  H16R 6733   1.466   0.266   8.146 -0.0139 -1.0350 -0.6432
   75SLPC  H16S 6734   1.346   0.267   8.026 -2.4779 -0.8628  0.7289
   75SLPC  C217 6735   1.260   0.253   8.217  0.7160 -0.8829 -0.1140
   75SLPC  H17R 6736   1.171   0.319   8.210  0.6775 -0.8687  0.4749
   75SLPC  H17S 6737   1.301   0.233   8.318 -1.1081 -1.8269  0.4797
   75SLPC  C218 6738   1.215   0.107   8.182 -0.3332  0.9075 -0.0180
   75SLPC  H18R 6739   1.142   0.071   8.257  1.1062 -0.2969  0.8761
   75SLPC  H18S 6740   1.299   0.035   8.179 -1.6574 -0.6688 -0.0765
   75SLPC  H18T 6741   1.178   0.107   8.078  0.3664 -0.8567 -0.2977
   75SLPC   C33 6742   1.791   1.074   7.365  0.1498  0.3283 -0.1457
   75SLPC   H3X 6743   1.814   0.987   7.431  1.9322 -0.3687 -1.6213
   75SLPC   H3Y 6744   1.863   1.153   7.394  0.2363  0.4473 -0.6855
   75SLPC   C34 6745   1.651   1.108   7.415 -0.1675  1.0736 -0.3428
   75SLPC   H4X 6746   1.574   1.034   7.382 -0.7417  0.8227  1.4740
   75SLPC   H4Y 6747   1.625   1.205   7.367  1.4582  1.4956 -0.4215
   75SLPC   C35 6748   1.655   1.115   7.569  0.7698  0.0740 -0.6116
   75SLPC   H5X 6749   1.558   1.167   7.588 -1.2467 -2.8192 -2.2021
   75SLPC   H5Y 6750   1.742   1.174   7.605  0.0439 -1.3304  4.2411
   75SLPC   C36 6751   1.664   0.989   7.650 -0.5753 -0.6541  0.4019
   75SLPC   H6X 6752   1.771   0.958   7.646  0.3040  2.1128  0.7828
   75SLPC   H6Y 6753   1.609   0.911   7.594 -1.2178  0.7056 -0.9142
   75SLPC   C37 6754   1.614   0.992   7.799 -0.2301  0.3065 -0.1647
   75SLPC   H7X 6755   1.643   0.890   7.833 -0.9525 -0.8115 -2.6186
   75SLPC   H7Y 6756   1.503   1.002   7.798 -0.2550  0.0348 -0.1907
   75SLPC   C38 6757   1.678   1.095   7.893  0.2145  0.5352  0.4134
   75SLPC   H8X 6758   1.652   1.195   7.851 -0.9930  1.2357  2.6728
   75SLPC   H8Y 6759   1.789   1.096   7.896  0.2111  1.8767  2.3121
   75SLPC   C39 6760   1.621   1.089   8.039 -0.4693  0.5786 -0.1284
   75SLPC   H9X 6761   1.654   1.000   8.098  0.1481 -0.0898 -1.4562
   75SLPC   H9Y 6762   1.510   1.093   8.045 -0.4040  2.6457  0.4294
   75SLPC  C310 6763   1.685   1.211   8.118  0.0768 -0.1562  0.0418
   75SLPC  H10X 6764   1.678   1.309   8.066 -0.9923 -0.7501 -0.9826
   75SLPC  H10Y 6765   1.795   1.203   8.135  0.0265  1.3786  1.3358
   75SLPC  C311 6766   1.611   1.220   8.261 -0.3118  0.6998  0.2851
   75SLPC  H11X 6767   1.585   1.118   8.297  1.1654 -0.0645 -0.7298
   75SLPC  H11Y 6768   1.513   1.272   8.255 -0.7965 -0.2554 -0.3054
   75SLPC  C312 6769   1.695   1.268   8.378 -0.5691 -0.6773 -0.2136
   75SLPC  H12X 6770   1.713   1.377   8.365 -0.2630 -0.8444 -1.2929
   75SLPC  H12Y 6771   1.796   1.224   8.392 -0.4706  0.0671  1.8331
   75SLPC  C313 6772   1.627   1.253   8.514  0.1434  0.4846 -0.3690
   75SLPC  H13X 6773   1.626   1.144   8.534  2.6899  0.0884 -1.9197
   75SLPC  H13Y 6774   1.523   1.291   8.510  0.7054  2.1596  0.2268
   75SLPC  C314 6775   1.697   1.323   8.631 -0.6122  0.2808  0.2367
   75SLPC  H14X 6776   1.623   1.322   8.714 -0.1897 -1.0413  0.6253
   75SLPC  H14Y 6777   1.727   1.428   8.612  0.1759 -0.3531 -2.3718
   75SLPC  C315 6778   1.826   1.239   8.672 -0.3156 -0.4032  0.0202
   75SLPC  H15X 6779   1.895   1.254   8.587 -0.7891 -0.9511 -0.4676
   75SLPC  H15Y 6780   1.800   1.131   8.674 -2.2684 -0.0163 -1.3564
   75SLPC  C316 6781   1.895   1.303   8.791 -0.2634 -0.3685 -0.0246
   75SLPC  H16X 6782   1.921   1.406   8.759  1.4090  0.1932  2.7557
   75SLPC  H16Y 6783   1.986   1.244   8.816 -0.5506 -0.9945 -0.4427
   75SLPC  C317 6784   1.813   1.308   8.921  0.1868  0.5091  0.6560
   75SLPC  H17X 6785   1.702   1.315   8.913 -0.1274 -0.4542  3.0583
   75SLPC  H17Y 6786   1.842   1.402   8.972 -0.8786  0.9137  0.5554
   75SLPC  C318 6787   1.839   1.199   9.023  0.0035  0.1051  0.2646
   75SLPC  H18X 6788   1.927   1.220   9.087 -0.4754 -1.2809  1.4231
   75SLPC  H18Y 6789   1.856   1.102   8.971  3.7122  1.4388 -1.4449
   75SLPC  H18Z 6790   1.747   1.184   9.083 -1.0843 -1.3513 -1.6471
   76SLPC     N 6791   4.561   1.010   5.840  0.1116  0.1771  0.5399
   76SLPC   C13 6792   4.564   1.145   5.779 -0.1231  0.2376 -0.8628
   76SLPC  H13A 6793   4.488   1.134   5.703 -3.3370 -0.3414  2.1611
   76SLPC  H13B 6794   4.521   1.210   5.854  1.6427 -1.3037  1.6233
   76SLPC  H13C 6795   4.660   1.183   5.747 -0.6766  1.8188 -0.7746
   76SLPC   C14 6796   4.604   0.911   5.737  0.0638 -0.4909  0.5601
   76SLPC  H14A 6797   4.537   0.889   5.655 -1.2728  0.3184  1.3751
   76SLPC  H14B 6798   4.699   0.945   5.701  0.2939 -1.2845  0.4032
   76SLPC  H14C 6799   4.616   0.814   5.783  3.0542  0.8698  2.9777
   76SLPC   C15 6800   4.430   0.958   5.886  0.8747 -0.4368 -0.0818
   76SLPC  H15A 6801   4.422   0.854   5.913 -0.1997  0.1451  2.1207
   76SLPC  H15B 6802   4.391   1.024   5.963 -0.1253 -0.8243 -0.2421
   76SLPC  H15C 6803   4.353   0.974   5.812 -2.3605  0.9056  3.2202
   76SLPC   C12 6804   4.662   0.994   5.951  0.1491  0.3318  0.1943
   76SLPC  H12A 6805   4.755   1.035   5.916 -0.6196  0.4862 -1.7471
   76SLPC  H12B 6806   4.682   0.893   5.983  0.5978 -0.0639 -1.2688
   76SLPC   C11 6807   4.632   1.081   6.072  0.2216 -0.4959 -0.4371
   76SLPC  H11A 6808   4.533   1.055   6.114  0.1784  1.7573  1.0163
   76SLPC  H11B 6809   4.636   1.189   6.048  0.4090 -0.6403 -1.0856
   76SLPC     P 6810   4.778   0.930   6.241  0.0691 -0.5499  0.4089
   76SLPC   O13 6811   4.862   0.840   6.158  0.1554 -0.3546 -0.3034
   76SLPC   O14 6812   4.838   0.988   6.364  0.2880  0.7242  0.0927
   76SLPC   O12 6813   4.743   1.058   6.163  0.4895  0.0748  0.7484
   76SLPC   O11 6814   4.645   0.863   6.278 -0.2915 -0.1854  0.3000
   76SLPC    C1 6815   4.552   0.941   6.354 -0.4087 -0.4464  0.3169
   76SLPC    HA 6816   4.563   1.051   6.347  0.7845 -0.6180 -1.1866
   76SLPC    HB 6817   4.452   0.916   6.312 -0.9774 -0.3444  1.5712
   76SLPC    C2 6818   4.530   0.895   6.503 -0.3791 -0.8879 -1.0939
   76SLPC    HS 6819   4.429   0.932   6.530 -0.2135 -1.5846  0.6316
   76SLPC   O21 6820   4.635   0.948   6.593 -0.2475  0.7889  0.2357
   76SLPC   C21 6821   4.626   1.072   6.624  0.1240  0.0285  0.8239
   76SLPC   O22 6822   4.562   1.158   6.560 -0.3882  0.0381  0.1500
   76SLPC   C22 6823   4.715   1.093   6.746 -0.3545 -0.5381 -0.4596
   76SLPC   H2R 6824   4.807   1.032   6.731 -0.3548 -0.1833 -1.9821
   76SLPC   H2S 6825   4.751   1.197   6.756 -0.9308 -0.4699  1.3142
   76SLPC    C3 6826   4.523   0.741   6.514 -0.0047 -0.1773 -0.2692
   76SLPC    HX 6827   4.622   0.692   6.500 -0.5832 -1.1461 -1.0897
   76SLPC    HY 6828   4.460   0.700   6.433 -0.3904  0.3877 -0.2629
   76SLPC   O31 6829   4.462   0.702   6.641  0.8970  0.3645 -0.0565
   76SLPC   C31 6830   4.547   0.673   6.744 -0.0899  0.3953  0.0906
   76SLPC   O32 6831   4.669   0.700   6.743 -0.1018 -0.0400  0.1369
   76SLPC   C32 6832   4.477   0.596   6.853  0.5121 -0.2370 -0.8435
   76SLPC   H2X 6833   4.479   0.489   6.821  2.0350 -0.4391 -0.1454
   76SLPC   H2Y 6834   4.375   0.640   6.858 -0.0287 -1.5603  2.9651
   76SLPC   C23 6835   4.631   1.045   6.869 -0.6215 -0.6073 -0.1622
   76SLPC   H3R 6836   4.603   0.939   6.849 -0.1512 -1.2106  2.1208
   76SLPC   H3S 6837   4.539   1.106   6.869 -0.7771 -0.8373 -0.4370
   76SLPC   C24 6838   4.720   1.044   6.993 -0.1707 -0.7728  0.0866
   76SLPC   H4R 6839   4.769   1.140   7.020 -1.6667  0.2779 -0.7559
   76SLPC   H4S 6840   4.807   0.976   6.980  1.7467  1.8428 -2.0254
   76SLPC   C25 6841   4.637   0.988   7.107  0.3268  0.2131 -0.6462
   76SLPC   H5R 6842   4.595   0.886   7.093  1.3890 -0.2641 -0.4899
   76SLPC   H5S 6843   4.554   1.059   7.128 -0.9117 -1.1239 -0.8848
   76SLPC   C26 6844   4.732   0.974   7.233 -0.4754 -0.4264  0.0613
   76SLPC   H6R 6845   4.770   1.077   7.251  0.0088 -0.4960 -0.5616
   76SLPC   H6S 6846   4.809   0.908   7.188  1.3434  0.5348  1.6099
   76SLPC   C27 6847   4.651   0.911   7.343  0.0547  0.5597 -0.7217
   76SLPC   H7R 6848   4.626   0.807   7.313  1.8873 -0.1677  0.1054
   76SLPC   H7S 6849   4.570   0.981   7.373 -0.7082 -0.3367 -0.6773
   76SLPC   C28 6850   4.744   0.901   7.474  0.3157  0.5730  0.3031
   76SLPC   H8R 6851   4.839   0.852   7.446  1.8536  2.3324  2.1268
   76SLPC   H8S 6852   4.778   0.999   7.515 -0.6933  0.7599  0.7218
   76SLPC   C29 6853   4.680   0.812   7.573  0.4070  0.5402  0.5050
   76SLPC   H9R 6854   4.602   0.743   7.538 -1.1439  2.8130 -0.7955
   76SLPC  C210 6855   4.716   0.804   7.705 -0.1294  0.7799  1.0686
   76SLPC  H10R 6856   4.669   0.729   7.770 -0.4926 -1.2884 -1.4244
   76SLPC  C211 6857   4.835   0.879   7.761  0.9233 -0.6104 -0.6334
   76SLPC  H11R 6858   4.796   0.931   7.851 -0.9917 -1.7001 -0.7627
   76SLPC  H11S 6859   4.868   0.963   7.695  3.3349 -0.5937  0.4840
   76SLPC  C212 6860   4.949   0.789   7.801 -0.2945 -0.7701 -0.0732
   76SLPC  H12R 6861   5.033   0.787   7.731  2.1934  3.0251  2.4513
   76SLPC  C213 6862   4.968   0.735   7.923 -0.0358  0.9485  0.1133
   76SLPC  H13R 6863   5.063   0.682   7.938  0.2223  1.2637 -0.3640
   76SLPC  C214 6864   4.874   0.752   8.044 -0.0493 -0.8712  0.7505
   76SLPC  H14R 6865   4.883   0.656   8.099  2.0809 -0.5286  1.0717
   76SLPC  H14S 6866   4.772   0.758   8.000  0.0333 -1.4044  0.4711
   76SLPC  C215 6867   4.907   0.859   8.144  0.3790 -0.2684 -0.7556
   76SLPC  H15R 6868   4.835   0.866   8.228  1.5368 -2.4894  0.4993
   76SLPC  H15S 6869   4.903   0.954   8.087  0.3411 -0.6567 -1.4169
   76SLPC  C216 6870   5.044   0.851   8.205 -0.5613 -0.3303 -0.6924
   76SLPC  H16R 6871   5.066   0.945   8.261 -0.3324 -1.9576  2.1884
   76SLPC  H16S 6872   5.110   0.837   8.117 -1.0103 -0.6487 -0.9793
   76SLPC  C217 6873   5.075   0.731   8.294 -0.2257  0.8692 -0.1658
   76SLPC  H17R 6874   5.170   0.743   8.351 -0.8735 -0.5493  1.2850
   76SLPC  H17S 6875   5.082   0.641   8.230 -2.0026  0.8907 -0.4325
   76SLPC  C218 6876   4.978   0.706   8.407  0.5433 -0.2004 -0.1360
   76SLPC  H18R 6877   5.013   0.623   8.472 -0.5873 -0.3170  0.3661
   76SLPC  H18S 6878   4.874   0.676   8.379  0.1336 -1.1206  2.1327
   76SLPC  H18T 6879   4.980   0.796   8.472  2.7641 -1.0430  1.0421
   76SLPC   C33 6880   4.546   0.595   6.992 -0.2057  0.0061 -0.4508
   76SLPC   H3X 6881   4.557   0.701   7.024  1.2121  0.0099 -0.8655
   76SLPC   H3Y 6882   4.651   0.559   6.979  0.2213  0.0134  2.3363
   76SLPC   C34 6883   4.472   0.511   7.097 -0.5997 -0.3765 -0.3363
   76SLPC   H4X 6884   4.470   0.402   7.074 -0.1724 -0.8630  1.6770
   76SLPC   H4Y 6885   4.365   0.537   7.089 -0.3634  1.6114  1.8763
   76SLPC   C35 6886   4.525   0.544   7.232  0.2966  0.1331 -0.2320
   76SLPC   H5X 6887   4.489   0.648   7.246 -0.1763 -0.0448 -0.1076
   76SLPC   H5Y 6888   4.635   0.546   7.226  0.3586 -2.8421 -2.6097
   76SLPC   C36 6889   4.466   0.448   7.333 -0.1340  0.0697 -0.0138
   76SLPC   H6X 6890   4.504   0.348   7.306 -1.5358 -0.1508 -1.2795
   76SLPC   H6Y 6891   4.355   0.449   7.329 -0.1292 -0.4538 -0.3052
   76SLPC   C37 6892   4.498   0.485   7.477 -0.0416 -0.1324 -1.1214
   76SLPC   H7X 6893   4.439   0.572   7.512  0.4451 -1.2798  3.1918
   76SLPC   H7Y 6894   4.605   0.516   7.481  0.4542 -1.4232 -3.1863
   76SLPC   C38 6895   4.474   0.390   7.598  0.0539 -0.4159 -0.0098
   76SLPC   H8X 6896   4.514   0.289   7.574  1.2061 -0.2632  1.2013
   76SLPC   H8Y 6897   4.363   0.385   7.596  0.0985 -1.4215 -0.7435
   76SLPC   C39 6898   4.542   0.446   7.727  0.6982  0.3350 -0.3891
   76SLPC   H9X 6899   4.646   0.483   7.714  1.3370 -1.1631  0.3444
   76SLPC   H9Y 6900   4.557   0.361   7.796  0.5232  0.7632  0.1857
   76SLPC  C310 6901   4.450   0.545   7.786 -0.2961  0.3929  0.0398
   76SLPC  H10X 6902   4.343   0.517   7.783 -0.5738  1.4884 -1.3663
   76SLPC  H10Y 6903   4.468   0.635   7.723  1.8256  0.5283  0.7671
   76SLPC  C311 6904   4.486   0.591   7.928  0.8259 -0.2292  0.2660
   76SLPC  H11X 6905   4.596   0.600   7.930  1.0151 -1.6155 -1.3658
   76SLPC  H11Y 6906   4.451   0.508   7.994 -0.8176  0.2055 -0.0206
   76SLPC  C312 6907   4.413   0.719   7.963 -0.0469 -0.0476 -0.1586
   76SLPC  H12X 6908   4.307   0.710   7.934  0.4579 -2.5092 -1.5281
   76SLPC  H12Y 6909   4.460   0.795   7.897 -0.4265 -0.2424 -0.6591
   76SLPC  C313 6910   4.441   0.781   8.102  0.2828  1.0662  0.6114
   76SLPC  H13X 6911   4.552   0.775   8.107  0.3205  1.6222  0.5610
   76SLPC  H13Y 6912   4.393   0.717   8.179 -2.8753 -1.1788 -2.8767
   76SLPC  C314 6913   4.413   0.931   8.108  0.3714  0.2986  0.3355
   76SLPC  H14X 6914   4.317   0.959   8.059 -0.0205  0.0895  0.9717
   76SLPC  H14Y 6915   4.494   0.975   8.047  0.2960 -2.3982 -1.9097
   76SLPC  C315 6916   4.421   0.990   8.250  0.0482  0.5567 -0.1351
   76SLPC  H15X 6917   4.491   0.932   8.313 -1.4826 -0.9433  0.2458
   76SLPC  H15Y 6918   4.320   0.980   8.295  1.0590  0.9966  2.4374
   76SLPC  C316 6919   4.461   1.139   8.241 -0.4500  0.7910 -0.4212
   76SLPC  H16X 6920   4.397   1.192   8.167  1.6542  3.7329 -0.2900
   76SLPC  H16Y 6921   4.568   1.161   8.223 -0.5776  0.9253 -1.0439
   76SLPC  C317 6922   4.445   1.205   8.380 -0.0651 -0.1948 -0.2291
   76SLPC  H17X 6923   4.334   1.204   8.386  0.0300 -1.2960  2.2312
   76SLPC  H17Y 6924   4.483   1.309   8.368  0.5599 -0.3152  0.6230
   76SLPC  C318 6925   4.509   1.140   8.498  0.1188 -0.1367 -0.6258
   76SLPC  H18X 6926   4.517   1.197   8.593  1.5775 -0.5511 -0.4835
   76SLPC  H18Y 6927   4.614   1.109   8.477  0.3561 -0.5871  1.1028
   76SLPC  H18Z 6928   4.460   1.043   8.523  2.6179 -1.1400  0.8009
   77SLPC     N 6929   1.480   0.781   6.106  0.1575  0.0809  0.0168
   77SLPC   C13 6930   1.567   0.877   6.034 -0.8229  0.0310  0.7159
   77SLPC  H13A 6931   1.604   0.954   6.100 -1.0933  0.8235 -0.0533
   77SLPC  H13B 6932   1.642   0.839   5.966 -0.4130  1.6740  0.2093
   77SLPC  H13C 6933   1.507   0.933   5.965 -0.3564 -1.5097 -1.0283
   77SLPC   C14 6934   1.562   0.666   6.166  0.8834  0.4007  0.4278
   77SLPC  H14A 6935   1.493   0.603   6.220 -1.8324  0.9766 -2.0771
   77SLPC  H14B 6936   1.617   0.610   6.092 -1.3393 -0.4959 -0.6483
   77SLPC  H14C 6937   1.636   0.696   6.239  0.8904 -0.1708  0.6615
   77SLPC   C15 6938   1.396   0.715   5.997  0.4697 -0.1525 -0.5820
   77SLPC  H15A 6939   1.313   0.663   6.042  0.2476 -0.4909 -1.3715
   77SLPC  H15B 6940   1.357   0.794   5.935  1.8135  0.7233 -0.3561
   77SLPC  H15C 6941   1.448   0.647   5.931  0.0390 -0.1069 -0.9689
   77SLPC   C12 6942   1.389   0.846   6.208 -0.2029  0.8360 -0.1584
   77SLPC  H12A 6943   1.323   0.919   6.164  0.8134  0.7460 -1.8943
   77SLPC  H12B 6944   1.446   0.906   6.277 -1.3817 -1.3783  2.9913
   77SLPC   C11 6945   1.312   0.748   6.300 -0.0261 -0.0333 -0.7382
   77SLPC  H11A 6946   1.266   0.811   6.379  1.6090  2.1402 -1.4073
   77SLPC  H11B 6947   1.387   0.688   6.356 -0.3113  2.0258  2.0454
   77SLPC     P 6948   1.094   0.591   6.275 -0.1604  0.3924  0.2973
   77SLPC   O13 6949   1.000   0.693   6.328  0.0761 -0.4515 -0.1203
   77SLPC   O14 6950   1.044   0.497   6.173  0.3328 -0.3636  0.0327
   77SLPC   O12 6951   1.225   0.661   6.229 -0.1980  0.1502  0.3392
   77SLPC   O11 6952   1.143   0.513   6.400  0.8566  0.6908 -0.3241
   77SLPC    C1 6953   1.256   0.427   6.393  0.4670 -0.2885  0.3642
   77SLPC    HA 6954   1.226   0.334   6.340 -1.4920  1.0468 -0.9773
   77SLPC    HB 6955   1.340   0.479   6.342 -0.6256  0.1645 -1.0186
   77SLPC    C2 6956   1.322   0.389   6.529 -0.0078  0.1446 -0.6161
   77SLPC    HS 6957   1.380   0.296   6.513  1.1113  0.9819 -1.6819
   77SLPC   O21 6958   1.215   0.376   6.628 -0.2812  0.3498 -0.3557
   77SLPC   C21 6959   1.135   0.268   6.618 -0.3158 -0.6584 -0.3356
   77SLPC   O22 6960   1.145   0.188   6.526 -0.3316  0.1234  0.0015
   77SLPC   C22 6961   1.037   0.265   6.723 -0.2114  0.7234  0.0026
   77SLPC   H2R 6962   0.957   0.323   6.673  0.1990  1.4697  0.1956
   77SLPC   H2S 6963   1.004   0.162   6.745 -0.7820  1.3206  2.1661
   77SLPC    C3 6964   1.425   0.497   6.576  0.1975  0.1806 -0.6507
   77SLPC    HX 6965   1.384   0.600   6.578  2.0743  0.9765 -1.4626
   77SLPC    HY 6966   1.507   0.504   6.502 -0.0671 -1.4112 -1.1235
   77SLPC   O31 6967   1.487   0.458   6.698 -0.1711  0.0169  0.3688
   77SLPC   C31 6968   1.444   0.508   6.808 -0.2632  0.0456  0.3158
   77SLPC   O32 6969   1.348   0.585   6.824 -0.1046  0.1068 -0.1940
   77SLPC   C32 6970   1.529   0.459   6.926  0.2892 -0.0966  0.0009
   77SLPC   H2X 6971   1.635   0.470   6.897  0.5504  1.1523  1.2989
   77SLPC   H2Y 6972   1.505   0.356   6.959 -1.5887 -0.7896 -3.1172
   77SLPC   C23 6973   1.060   0.348   6.852  1.0043 -0.0278  0.4736
   77SLPC   H3R 6974   0.970   0.378   6.909 -0.6569 -1.9133 -0.9736
   77SLPC   H3S 6975   1.106   0.443   6.819 -1.1075  0.6620 -0.6915
   77SLPC   C24 6976   1.138   0.261   6.948 -0.3747 -0.3954  0.0060
   77SLPC   H4R 6977   1.226   0.209   6.904  1.2273  1.5155  0.7581
   77SLPC   H4S 6978   1.069   0.182   6.983  1.2058 -1.6497  0.4293
   77SLPC   C25 6979   1.167   0.350   7.070 -0.7085  0.4337 -0.1036
   77SLPC   H5R 6980   1.077   0.412   7.088 -1.0680 -0.5268  1.6979
   77SLPC   H5S 6981   1.249   0.422   7.051  0.9024 -0.3673  3.0564
   77SLPC   C26 6982   1.220   0.265   7.184 -0.1808 -0.3801  0.4038
   77SLPC   H6R 6983   1.324   0.239   7.154  0.3703  0.8234  1.2015
   77SLPC   H6S 6984   1.163   0.169   7.186  1.0610 -1.2035 -1.3090
   77SLPC   C27 6985   1.220   0.340   7.315 -0.5744  0.5418  0.6971
   77SLPC   H7R 6986   1.113   0.358   7.342 -1.1018  0.8241 -1.3886
   77SLPC   H7S 6987   1.274   0.435   7.296 -1.7296  0.7225 -2.1914
   77SLPC   C28 6988   1.286   0.251   7.424 -0.0901  0.0170 -0.2063
   77SLPC   H8R 6989   1.393   0.241   7.394  0.3736  0.2690  1.2467
   77SLPC   H8S 6990   1.247   0.147   7.422  2.0489 -0.8297 -1.8347
   77SLPC   C29 6991   1.272   0.318   7.559 -0.4877  1.1058  0.3081
   77SLPC   H9R 6992   1.359   0.374   7.595 -0.5896  1.6395 -0.2637
   77SLPC  C210 6993   1.165   0.307   7.637  1.0690 -1.0073  0.4678
   77SLPC  H10R 6994   1.157   0.361   7.732 -0.8548  1.3235 -0.9050
   77SLPC  C211 6995   1.046   0.219   7.603 -0.4286 -0.0201 -0.0706
   77SLPC  H11R 6996   1.062   0.123   7.657  0.6750  0.6300  0.7997
   77SLPC  H11S 6997   1.038   0.189   7.497  0.7687 -0.2013 -0.1261
   77SLPC  C212 6998   0.911   0.279   7.653  0.0732 -0.3112  0.7792
   77SLPC  H12R 6999   0.846   0.321   7.575 -2.5106  2.7606  4.2209
   77SLPC  C213 7000   0.863   0.279   7.781 -1.0288 -0.4376  0.0270
   77SLPC  H13R 7001   0.767   0.334   7.789 -0.5864  0.3008  0.3408
   77SLPC  C214 7002   0.936   0.219   7.905 -0.2661  0.1842  0.2026
   77SLPC  H14R 7003   1.036   0.186   7.869 -1.1796  0.1450 -2.5433
   77SLPC  H14S 7004   0.903   0.115   7.926  1.8974 -0.9320 -1.5091
   77SLPC  C215 7005   0.929   0.312   8.029  0.2965  0.3653 -0.0703
   77SLPC  H15R 7006   0.965   0.264   8.123  0.6187  0.3781 -0.1861
   77SLPC  H15S 7007   0.819   0.324   8.032  0.2896  0.2185  0.2473
   77SLPC  C216 7008   0.992   0.449   8.010  0.7019 -0.5111  0.6452
   77SLPC  H16R 7009   0.976   0.488   7.907  2.2899  0.8130  0.8684
   77SLPC  H16S 7010   1.102   0.447   8.022  0.7771 -2.9045  0.0635
   77SLPC  C217 7011   0.938   0.557   8.108 -0.1491 -0.0387  0.0653
   77SLPC  H17R 7012   0.830   0.579   8.095 -0.0409  1.0618  0.8527
   77SLPC  H17S 7013   0.992   0.652   8.089 -0.4152  0.3532  1.1672
   77SLPC  C218 7014   0.959   0.524   8.259  0.9523  0.4479 -0.4056
   77SLPC  H18R 7015   0.909   0.605   8.315 -0.3709  0.0520 -0.9569
   77SLPC  H18S 7016   1.061   0.514   8.301  1.4423  2.2227 -1.1021
   77SLPC  H18T 7017   0.909   0.427   8.281 -1.1895  1.4189 -0.7805
   77SLPC   C33 7018   1.524   0.552   7.050 -0.9841  0.2502  0.5364
   77SLPC   H3X 7019   1.419   0.560   7.085 -0.6831 -0.0743  1.5595
   77SLPC   H3Y 7020   1.559   0.654   7.023 -1.1935 -0.2103 -1.6676
   77SLPC   C34 7021   1.609   0.486   7.160 -0.5761  0.1753  1.1218
   77SLPC   H4X 7022   1.710   0.458   7.121 -0.5164 -0.0927  1.4691
   77SLPC   H4Y 7023   1.554   0.392   7.178 -1.2261  0.1278 -0.7995
   77SLPC   C35 7024   1.632   0.575   7.287  0.2109  0.2505 -0.7755
   77SLPC   H5X 7025   1.553   0.654   7.288 -1.2662 -1.1686 -0.7275
   77SLPC   H5Y 7026   1.730   0.625   7.275 -0.4387  1.6689 -0.4283
   77SLPC   C36 7027   1.620   0.497   7.419  0.9992  0.2418 -0.5648
   77SLPC   H6X 7028   1.700   0.421   7.426 -0.7900 -1.6472  0.9420
   77SLPC   H6Y 7029   1.523   0.443   7.431  1.8856 -1.2860 -0.0622
   77SLPC   C37 7030   1.639   0.586   7.550 -0.3493  0.4269  0.7036
   77SLPC   H7X 7031   1.603   0.533   7.641  1.8650 -2.2623  0.1664
   77SLPC   H7Y 7032   1.577   0.677   7.545  0.2529  0.9686  2.3682
   77SLPC   C38 7033   1.784   0.642   7.556 -0.0068  0.7178 -0.2438
   77SLPC   H8X 7034   1.781   0.737   7.614 -0.4270  1.5116 -1.5309
   77SLPC   H8Y 7035   1.818   0.690   7.462 -3.8095  0.9120 -1.7250
   77SLPC   C39 7036   1.879   0.556   7.637 -0.2120 -0.1176  0.1025
   77SLPC   H9X 7037   1.983   0.589   7.617  0.4319 -0.9111  1.9833
   77SLPC   H9Y 7038   1.872   0.453   7.597  1.5757  0.1063 -0.8682
   77SLPC  C310 7039   1.846   0.577   7.785  0.4584  0.2158  0.3141
   77SLPC  H10X 7040   1.841   0.477   7.832  0.4653 -0.8371 -1.7934
   77SLPC  H10Y 7041   1.745   0.622   7.790  1.4901  2.5540  3.4038
   77SLPC  C311 7042   1.949   0.665   7.846 -0.7340 -0.4240 -0.5177
   77SLPC  H11X 7043   1.949   0.761   7.790  0.4898 -0.4399 -0.5813
   77SLPC  H11Y 7044   2.054   0.630   7.852 -0.0043  1.6578 -0.2001
   77SLPC  C312 7045   1.912   0.709   7.990  0.4880  0.1982 -0.5129
   77SLPC  H12X 7046   1.819   0.768   7.981 -0.8311 -1.3524  1.6806
   77SLPC  H12Y 7047   1.995   0.769   8.033  0.5249 -0.8063  0.9196
   77SLPC  C313 7048   1.896   0.597   8.093  0.0453 -0.1592  0.0975
   77SLPC  H13X 7049   1.817   0.521   8.071 -1.0086  0.6336  1.0264
   77SLPC  H13Y 7050   1.861   0.648   8.185  1.7520 -1.4898  1.5438
   77SLPC  C314 7051   2.024   0.524   8.121 -0.2627 -0.0029 -0.3805
   77SLPC  H14X 7052   2.097   0.593   8.169  0.8622 -0.8846 -0.7855
   77SLPC  H14Y 7053   2.083   0.483   8.037  3.2739  1.4514  1.1927
   77SLPC  C315 7054   2.000   0.404   8.224  0.0476 -0.3388 -0.4291
   77SLPC  H15X 7055   1.934   0.328   8.179 -0.7022 -1.1816  1.9263
   77SLPC  H15Y 7056   1.941   0.444   8.309 -0.9692  0.0256 -1.2820
   77SLPC  C316 7057   2.123   0.342   8.282  0.2416  0.3398 -0.2037
   77SLPC  H16X 7058   2.190   0.420   8.323  0.4011 -0.0572  0.2931
   77SLPC  H16Y 7059   2.175   0.280   8.206 -0.2608 -0.0999 -0.1961
   77SLPC  C317 7060   2.097   0.234   8.395  0.3428 -0.1468 -0.1844
   77SLPC  H17X 7061   2.191   0.175   8.404  1.3497  1.4235 -0.1453
   77SLPC  H17Y 7062   2.021   0.160   8.361 -0.6428  1.6963 -2.2293
   77SLPC  C318 7063   2.052   0.299   8.523 -0.7482 -0.3155  0.4861
   77SLPC  H18X 7064   2.100   0.260   8.615  1.9961  1.9800  0.1632
   77SLPC  H18Y 7065   1.942   0.285   8.517 -0.5850 -1.7763  0.3353
   77SLPC  H18Z 7066   2.074   0.407   8.516 -1.3208 -0.2961 -1.6239
   78SLPC     N 7067   3.540   2.021   6.391  0.0030 -0.0093  0.3533
   78SLPC   C13 7068   3.412   1.991   6.464  0.7497 -0.6585  0.1909
   78SLPC  H13A 7069   3.331   2.058   6.440  1.6903  1.0488  1.5122
   78SLPC  H13B 7070   3.381   1.889   6.444 -1.5384 -0.5806  2.7680
   78SLPC  H13C 7071   3.425   1.992   6.571  0.7926 -1.6105  0.2025
   78SLPC   C14 7072   3.644   1.908   6.414 -0.6390 -0.1506 -0.3162
   78SLPC  H14A 7073   3.695   1.932   6.507 -0.0726 -1.2252 -0.3276
   78SLPC  H14B 7074   3.594   1.812   6.414 -0.2416 -0.3610 -0.5682
   78SLPC  H14C 7075   3.723   1.908   6.340  0.4521 -0.5671  0.8158
   78SLPC   C15 7076   3.605   2.150   6.432 -0.8864  0.5183  0.8282
   78SLPC  H15A 7077   3.677   2.135   6.511  1.2544 -0.2546 -1.1732
   78SLPC  H15B 7078   3.657   2.201   6.353  1.1719  0.9207  2.3610
   78SLPC  H15C 7079   3.534   2.227   6.458 -1.8227  0.7367 -2.0699
   78SLPC   C12 7080   3.510   2.025   6.241  0.0422  0.3273  0.2857
   78SLPC  H12A 7081   3.596   2.066   6.192  1.3564 -0.4414  1.8472
   78SLPC  H12B 7082   3.424   2.087   6.218  2.6687  3.1318 -2.9694
   78SLPC   C11 7083   3.471   1.894   6.167 -0.2946 -0.0762 -0.6025
   78SLPC  H11A 7084   3.565   1.837   6.152  0.6441  0.5891  2.0732
   78SLPC  H11B 7085   3.446   1.937   6.068  1.8599 -0.4563 -1.3712
   78SLPC     P 7086   3.365   1.671   6.264 -0.3353 -0.3629 -0.4748
   78SLPC   O13 7087   3.270   1.661   6.374 -0.0197  0.0977 -0.2838
   78SLPC   O14 7088   3.333   1.588   6.147  0.1028 -0.5031  0.7525
   78SLPC   O12 7089   3.363   1.825   6.222 -0.2902  0.1717  0.0028
   78SLPC   O11 7090   3.502   1.647   6.315 -0.4548 -0.2388  0.0684
   78SLPC    C1 7091   3.561   1.522   6.316  0.2851 -0.1439 -0.4017
   78SLPC    HA 7092   3.531   1.454   6.233 -0.2258  1.3164 -1.4461
   78SLPC    HB 7093   3.669   1.538   6.298  0.2389 -0.3052 -0.8444
   78SLPC    C2 7094   3.560   1.445   6.457 -0.3676  0.2505  0.2078
   78SLPC    HS 7095   3.634   1.362   6.459 -1.6919 -1.0338 -1.4559
   78SLPC   O21 7096   3.427   1.399   6.484  0.1370 -0.8355 -0.3420
   78SLPC   C21 7097   3.407   1.273   6.443 -0.3857 -0.5341  0.0514
   78SLPC   O22 7098   3.476   1.205   6.373 -0.8639 -0.5568  0.4898
   78SLPC   C22 7099   3.270   1.227   6.493 -0.5204  0.2806 -0.1604
   78SLPC   H2R 7100   3.224   1.309   6.552 -0.6043 -0.1916  0.4389
   78SLPC   H2S 7101   3.217   1.198   6.400 -0.8585 -2.4963  0.8122
   78SLPC    C3 7102   3.601   1.548   6.574 -0.3069  0.5994  0.2563
   78SLPC    HX 7103   3.530   1.632   6.559  0.5473  0.9764 -2.2346
   78SLPC    HY 7104   3.699   1.581   6.534 -1.9130  1.4412 -3.4292
   78SLPC   O31 7105   3.596   1.488   6.705 -0.1355  0.7985  0.0579
   78SLPC   C31 7106   3.562   1.577   6.796 -0.4180  0.5668  0.0956
   78SLPC   O32 7107   3.565   1.699   6.783 -0.0784 -0.2945  0.4995
   78SLPC   C32 7108   3.530   1.502   6.929  0.4838  0.3455 -0.1184
   78SLPC   H2X 7109   3.576   1.400   6.928  1.1472  0.6374  0.1926
   78SLPC   H2Y 7110   3.421   1.481   6.918  0.5352  1.0105 -2.4828
   78SLPC   C23 7111   3.278   1.090   6.566  0.6372  0.0795 -0.1614
   78SLPC   H3R 7112   3.352   1.021   6.520  0.0050 -2.8269  2.8299
   78SLPC   H3S 7113   3.184   1.031   6.555  0.9438 -0.5975  0.7130
   78SLPC   C24 7114   3.297   1.098   6.716  0.4328 -0.6727  0.0290
   78SLPC   H4R 7115   3.387   1.153   6.750 -0.4594  0.8717 -0.0280
   78SLPC   H4S 7116   3.295   0.996   6.761 -2.1672  0.0279  1.7403
   78SLPC   C25 7117   3.171   1.157   6.778  0.5867 -0.1813 -0.3988
   78SLPC   H5R 7118   3.093   1.084   6.747  2.8221 -1.7272 -2.7845
   78SLPC   H5S 7119   3.139   1.257   6.741 -2.0570 -1.2027 -1.1034
   78SLPC   C26 7120   3.163   1.155   6.928  0.1645  0.2844  0.6286
   78SLPC   H6R 7121   3.248   1.215   6.966  0.7616  0.3916 -0.8115
   78SLPC   H6S 7122   3.170   1.048   6.957 -0.1980  0.6373  2.0817
   78SLPC   C27 7123   3.025   1.208   6.979 -0.1013 -0.2587 -0.3820
   78SLPC   H7R 7124   2.947   1.132   6.961 -0.0886 -0.9579  2.0654
   78SLPC   H7S 7125   3.009   1.299   6.917  2.8181 -0.8908 -2.2501
   78SLPC   C28 7126   3.013   1.244   7.128  0.2387 -0.2687  0.2969
   78SLPC   H8R 7127   3.033   1.149   7.181 -0.0246 -0.2792  0.3827
   78SLPC   H8S 7128   2.906   1.264   7.154  0.2632  0.3155 -0.0384
   78SLPC   C29 7129   3.101   1.355   7.183 -0.8409  0.5891  0.3560
   78SLPC   H9R 7130   3.128   1.431   7.108  1.0348 -1.5841 -1.3605
   78SLPC  C210 7131   3.161   1.352   7.302  0.6534  0.5506 -0.2229
   78SLPC  H10R 7132   3.227   1.434   7.336  1.2919 -0.7126  1.7673
   78SLPC  C211 7133   3.145   1.245   7.407  0.2003  0.4630  0.0866
   78SLPC  H11R 7134   3.232   1.207   7.464  0.9644  2.0140  0.0067
   78SLPC  H11S 7135   3.111   1.153   7.356 -1.3527  1.1073 -0.1005
   78SLPC  C212 7136   3.040   1.280   7.506 -0.2109 -0.2509 -0.6919
   78SLPC  H12R 7137   2.936   1.251   7.483 -0.4068 -1.5747  1.5165
   78SLPC  C213 7138   3.065   1.330   7.628  0.1129 -0.4837 -0.0273
   78SLPC  H13R 7139   2.983   1.353   7.696  0.2202  1.0264 -0.3823
   78SLPC  C214 7140   3.197   1.374   7.683 -0.7675  0.1547 -0.2422
   78SLPC  H14R 7141   3.228   1.470   7.637 -1.1389 -0.0161 -0.8599
   78SLPC  H14S 7142   3.277   1.308   7.646  0.7805  1.7378  0.1359
   78SLPC  C215 7143   3.212   1.386   7.832 -0.3974  0.0701 -0.2774
   78SLPC  H15R 7144   3.155   1.476   7.865 -2.4274 -1.0612 -0.5241
   78SLPC  H15S 7145   3.314   1.420   7.858  0.0145 -0.8334 -0.6830
   78SLPC  C216 7146   3.175   1.265   7.920  0.0552  0.7560  0.0942
   78SLPC  H16R 7147   3.238   1.182   7.882  1.3609  1.5750  0.4280
   78SLPC  H16S 7148   3.066   1.245   7.911  0.1961  0.6074 -1.5874
   78SLPC  C217 7149   3.204   1.276   8.074  0.0898  0.4941  0.6043
   78SLPC  H17R 7150   3.313   1.298   8.083 -0.2245  3.3512 -1.2092
   78SLPC  H17S 7151   3.180   1.174   8.112 -0.7732  0.5623  0.2639
   78SLPC  C218 7152   3.132   1.398   8.142 -0.0449  0.0670  0.3021
   78SLPC  H18R 7153   3.170   1.490   8.092  2.7397  0.3155  2.6279
   78SLPC  H18S 7154   3.138   1.391   8.253  0.7341 -1.9533  0.1738
   78SLPC  H18T 7155   3.023   1.395   8.119 -0.3920 -1.1589  1.9524
   78SLPC   C33 7156   3.563   1.572   7.061  1.0607  0.3128 -0.1315
   78SLPC   H3X 7157   3.502   1.662   7.085 -1.0275 -1.0622  0.0505
   78SLPC   H3Y 7158   3.668   1.605   7.048  1.0206  0.2097 -0.7727
   78SLPC   C34 7159   3.543   1.496   7.188 -0.2142 -0.5081 -0.3920
   78SLPC   H4X 7160   3.612   1.409   7.182 -0.3299 -0.5124 -2.3119
   78SLPC   H4Y 7161   3.435   1.473   7.175 -0.4098 -0.8380  1.4996
   78SLPC   C35 7162   3.569   1.589   7.317 -0.0464 -0.3144 -0.3868
   78SLPC   H5X 7163   3.524   1.690   7.312  2.9278  1.3336  2.3072
   78SLPC   H5Y 7164   3.678   1.609   7.318  0.1834 -1.2108  2.4101
   78SLPC   C36 7165   3.523   1.523   7.450 -0.5642  1.0327  0.9839
   78SLPC   H6X 7166   3.582   1.428   7.451 -0.4490  0.9934 -2.1323
   78SLPC   H6Y 7167   3.417   1.494   7.435  0.2065  0.0599 -4.9558
   78SLPC   C37 7168   3.558   1.611   7.567 -0.0745  0.4432  0.4660
   78SLPC   H7X 7169   3.497   1.702   7.550  2.2957  1.7454 -1.9528
   78SLPC   H7Y 7170   3.662   1.649   7.559 -0.0292 -0.0097 -1.7205
   78SLPC   C38 7171   3.529   1.528   7.695  0.6015  0.5846  0.1289
   78SLPC   H8X 7172   3.444   1.457   7.688 -0.1996  1.5773 -0.5324
   78SLPC   H8Y 7173   3.485   1.591   7.774 -0.9993 -1.3442  0.8730
   78SLPC   C39 7174   3.653   1.454   7.744 -0.2443 -0.4752  0.2973
   78SLPC   H9X 7175   3.728   1.534   7.762 -1.0827  1.4832 -3.7583
   78SLPC   H9Y 7176   3.687   1.380   7.669 -2.1323  0.6717 -1.8236
   78SLPC  C310 7177   3.628   1.369   7.869 -0.6088  0.3594 -0.1201
   78SLPC  H10X 7178   3.715   1.300   7.871 -0.2150  0.5810 -3.6592
   78SLPC  H10Y 7179   3.534   1.311   7.856 -1.0297  1.2590 -1.2332
   78SLPC  C311 7180   3.618   1.456   7.995 -0.1068 -0.1594 -0.1603
   78SLPC  H11X 7181   3.520   1.509   7.996  0.1062  0.2526 -0.4750
   78SLPC  H11Y 7182   3.690   1.540   7.993  0.7212 -0.8442 -2.5958
   78SLPC  C312 7183   3.643   1.379   8.127  0.0404 -0.4082 -0.6617
   78SLPC  H12X 7184   3.740   1.328   8.111  0.1834 -0.2985 -0.1632
   78SLPC  H12Y 7185   3.575   1.292   8.137  0.7585 -0.7184  2.5795
   78SLPC  C313 7186   3.661   1.459   8.253  0.3389 -0.2678  0.3790
   78SLPC  H13X 7187   3.749   1.526   8.244  1.0851 -1.3581 -0.5948
   78SLPC  H13Y 7188   3.683   1.392   8.338  0.5922  1.4768  1.7418
   78SLPC  C314 7189   3.532   1.539   8.278 -0.1942 -0.4161 -0.2219
   78SLPC  H14X 7190   3.445   1.472   8.264  0.4501 -1.5753  1.0501
   78SLPC  H14Y 7191   3.532   1.630   8.215 -0.9777  1.1560  1.9391
   78SLPC  C315 7192   3.492   1.579   8.424  0.4919  0.1126 -0.3229
   78SLPC  H15X 7193   3.560   1.658   8.460 -1.7822  2.6379 -1.2144
   78SLPC  H15Y 7194   3.516   1.494   8.492  1.1096  0.9387  0.5145
   78SLPC  C316 7195   3.349   1.642   8.444 -0.8261  0.1722 -0.4182
   78SLPC  H16X 7196   3.270   1.571   8.411  0.7556 -1.1762 -1.4496
   78SLPC  H16Y 7197   3.343   1.730   8.375 -0.3939  0.5195 -0.0189
   78SLPC  C317 7198   3.323   1.672   8.593  0.6711 -0.4110 -0.5579
   78SLPC  H17X 7199   3.400   1.738   8.637 -0.6226 -1.0116  2.9444
   78SLPC  H17Y 7200   3.328   1.583   8.659  0.7790  0.9066  1.2757
   78SLPC  C318 7201   3.180   1.730   8.613 -0.2142 -0.8762 -0.1727
   78SLPC  H18X 7202   3.162   1.725   8.723  0.5624 -3.6711 -0.1009
   78SLPC  H18Y 7203   3.105   1.656   8.576  0.4106 -1.9094  0.5804
   78SLPC  H18Z 7204   3.156   1.829   8.569 -2.1171 -1.1973  0.0476
   79SLPC     N 7205   4.055   4.032   6.346  0.0588 -0.0699  0.3093
   79SLPC   C13 7206   4.006   4.038   6.204 -0.2306 -0.4205 -0.2197
   79SLPC  H13A 7207   4.077   4.087   6.139 -0.0867 -1.0316 -0.5395
   79SLPC  H13B 7208   3.973   3.945   6.159 -0.6212  0.5413 -1.9956
   79SLPC  H13C 7209   3.923   4.106   6.191 -0.3962 -0.7632 -1.0066
   79SLPC   C14 7210   4.101   4.172   6.379 -0.1515 -0.8057  0.3106
   79SLPC  H14A 7211   4.106   4.180   6.486  2.4168  0.5049  0.1664
   79SLPC  H14B 7212   4.190   4.204   6.326 -2.0836  1.0184 -2.0103
   79SLPC  H14C 7213   4.028   4.248   6.358 -0.6216 -1.0267  1.1453
   79SLPC   C15 7214   4.169   3.936   6.359  0.1230 -0.4676  0.2310
   79SLPC  H15A 7215   4.265   3.969   6.321 -1.3380  1.2898 -2.1681
   79SLPC  H15B 7216   4.181   3.916   6.465 -1.3202  0.5608  0.6116
   79SLPC  H15C 7217   4.143   3.842   6.312  2.1208 -1.2895  0.6607
   79SLPC   C12 7218   3.944   3.995   6.440  0.7969  0.1943  0.4329
   79SLPC  H12A 7219   3.980   3.979   6.541  0.5193  2.0833  0.8533
   79SLPC  H12B 7220   3.921   3.899   6.397  0.2188  0.0976  0.9482
   79SLPC   C11 7221   3.815   4.083   6.446 -0.1960 -0.3333 -0.3017
   79SLPC  H11A 7222   3.837   4.189   6.473  1.0992 -1.1176  2.0304
   79SLPC  H11B 7223   3.755   4.049   6.533 -1.9399  3.1941  0.0625
   79SLPC     P 7224   3.629   3.952   6.320 -0.2272 -0.2625 -0.2512
   79SLPC   O13 7225   3.574   3.943   6.183 -1.4516  0.4776 -0.2535
   79SLPC   O14 7226   3.689   3.829   6.386  0.0696 -0.0907 -0.2777
   79SLPC   O12 7227   3.739   4.071   6.323  0.2213 -0.2269 -0.0135
   79SLPC   O11 7228   3.536   4.018   6.424  0.3228  0.6812  0.2380
   79SLPC    C1 7229   3.489   4.157   6.428  0.1855  0.0306  1.0062
   79SLPC    HA 7230   3.563   4.227   6.385 -2.3742  2.2333 -0.0505
   79SLPC    HB 7231   3.405   4.176   6.359  1.3796 -0.7639 -0.7374
   79SLPC    C2 7232   3.448   4.198   6.573  0.5416  0.9879 -0.4756
   79SLPC    HS 7233   3.385   4.288   6.554  0.5681  0.8059 -1.4532
   79SLPC   O21 7234   3.563   4.215   6.662  0.0595 -0.4406  0.0011
   79SLPC   C21 7235   3.551   4.294   6.766  0.3102 -0.0989 -0.0158
   79SLPC   O22 7236   3.456   4.369   6.790  1.0367  0.2414  0.2544
   79SLPC   C22 7237   3.678   4.284   6.844 -0.5731 -0.2196  0.0628
   79SLPC   H2R 7238   3.698   4.178   6.871  1.0231  0.0290 -0.0616
   79SLPC   H2S 7239   3.767   4.321   6.789  0.3617 -1.2230  0.8602
   79SLPC    C3 7240   3.361   4.078   6.632  0.4646  0.4551  0.5652
   79SLPC    HX 7241   3.425   3.991   6.659 -0.9588 -0.6248  0.5478
   79SLPC    HY 7242   3.287   4.030   6.565  1.5973 -1.3008  0.5099
   79SLPC   O31 7243   3.316   4.113   6.762  0.3058  0.0672  0.2407
   79SLPC   C31 7244   3.186   4.150   6.763  0.3064 -0.2671  0.2427
   79SLPC   O32 7245   3.115   4.148   6.665 -0.2283 -0.3712  0.3943
   79SLPC   C32 7246   3.135   4.181   6.902  0.0764 -0.5502  0.4071
   79SLPC   H2X 7247   3.212   4.161   6.979 -1.0666 -2.8834  1.0455
   79SLPC   H2Y 7248   3.048   4.117   6.928 -0.7612  0.0161 -0.9286
   79SLPC   C23 7249   3.660   4.361   6.974 -0.3426  0.3675 -0.1016
   79SLPC   H3R 7250   3.607   4.458   6.958  0.5814  1.1483  1.3997
   79SLPC   H3S 7251   3.759   4.393   7.011 -0.1404 -0.7066  0.3039
   79SLPC   C24 7252   3.583   4.282   7.086 -0.1458 -0.3208 -0.5674
   79SLPC   H4R 7253   3.630   4.182   7.098 -1.8281 -1.3134 -1.7558
   79SLPC   H4S 7254   3.476   4.270   7.059 -0.0959 -0.7775 -0.5727
   79SLPC   C25 7255   3.574   4.367   7.221 -0.1812 -0.0447  0.0399
   79SLPC   H5R 7256   3.527   4.465   7.201  1.3365  0.5809 -0.6328
   79SLPC   H5S 7257   3.680   4.386   7.248  0.9498 -2.0872 -2.5136
   79SLPC   C26 7258   3.502   4.295   7.338 -0.0916 -0.6039 -0.6834
   79SLPC   H6R 7259   3.569   4.208   7.359  2.9536  2.0508  1.6177
   79SLPC   H6S 7260   3.399   4.272   7.303 -0.2782  1.0778 -1.3182
   79SLPC   C27 7261   3.499   4.379   7.465 -0.3583  0.2395  0.5447
   79SLPC   H7R 7262   3.488   4.487   7.442  1.5899  0.1677 -0.9481
   79SLPC   H7S 7263   3.597   4.376   7.518 -0.6598 -2.0835  1.1082
   79SLPC   C28 7264   3.384   4.337   7.564 -0.6483  0.1648 -0.0678
   79SLPC   H8R 7265   3.300   4.299   7.501  0.0671  0.5836 -1.3038
   79SLPC   H8S 7266   3.351   4.433   7.609  0.9988  1.2057 -0.9911
   79SLPC   C29 7267   3.431   4.233   7.658  0.3555  0.0735  0.6053
   79SLPC   H9R 7268   3.520   4.179   7.622  0.2775  2.2350 -3.3120
   79SLPC  C210 7269   3.378   4.198   7.776  0.3065 -0.2773  0.3303
   79SLPC  H10R 7270   3.432   4.127   7.840  0.3437 -1.2815 -0.7705
   79SLPC  C211 7271   3.251   4.263   7.826  0.3498 -0.3634  0.3435
   79SLPC  H11R 7272   3.245   4.364   7.781  2.5487  0.6777  2.1632
   79SLPC  H11S 7273   3.260   4.283   7.935  0.5975 -2.2580  0.7110
   79SLPC  C212 7274   3.131   4.184   7.793 -1.0795  0.6430 -0.7640
   79SLPC  H12R 7275   3.067   4.224   7.712 -0.4020  0.9917 -1.1392
   79SLPC  C213 7276   3.075   4.084   7.868  0.3657 -0.2949 -0.7781
   79SLPC  H13R 7277   2.975   4.048   7.841  0.0381 -0.9587  1.1363
   79SLPC  C214 7278   3.126   4.030   8.001 -0.0174  0.0001  0.0328
   79SLPC  H14R 7279   3.226   4.073   8.026  0.1561  0.5437 -1.4820
   79SLPC  H14S 7280   3.139   3.920   8.002  2.4467  0.2289 -0.2685
   79SLPC  C215 7281   3.021   4.066   8.113 -0.5176 -0.3910  0.0402
   79SLPC  H15R 7282   3.048   4.025   8.213 -1.5085  1.3323  1.0861
   79SLPC  H15S 7283   2.924   4.018   8.087 -0.6208 -0.7883  1.1010
   79SLPC  C216 7284   2.991   4.214   8.130  0.0070 -0.0319  0.0758
   79SLPC  H16R 7285   2.942   4.240   8.033 -1.7506  2.6051  1.5701
   79SLPC  H16S 7286   3.085   4.273   8.135 -0.9578  1.4619  1.2277
   79SLPC  C217 7287   2.909   4.257   8.253 -0.1050 -0.0939  0.8298
   79SLPC  H17R 7288   2.805   4.218   8.247 -0.6719  1.5822 -1.6419
   79SLPC  H17S 7289   2.901   4.368   8.250 -1.5714 -0.2022 -1.0601
   79SLPC  C218 7290   2.958   4.214   8.389 -0.3200 -0.1807 -0.3994
   79SLPC  H18R 7291   2.894   4.252   8.472  1.4539  1.4894  0.2743
   79SLPC  H18S 7292   3.059   4.253   8.413 -0.0913 -1.5198  0.9566
   79SLPC  H18T 7293   2.947   4.104   8.394  1.4096 -0.3304  2.4804
   79SLPC   C33 7294   3.097   4.327   6.912  0.5069 -0.1737  0.3246
   79SLPC   H3X 7295   3.005   4.346   6.853 -0.8392  1.1413  2.7036
   79SLPC   H3Y 7296   3.187   4.385   6.879  0.5407  0.1365  0.9531
   79SLPC   C34 7297   3.068   4.368   7.055 -0.2138 -0.1453 -0.6595
   79SLPC   H4X 7298   3.162   4.360   7.114  1.0500  0.6635 -2.4600
   79SLPC   H4Y 7299   3.003   4.295   7.107 -0.5070  2.0658  2.3986
   79SLPC   C35 7300   3.007   4.514   7.064 -0.5215 -0.0336 -0.1332
   79SLPC   H5X 7301   2.919   4.518   6.997 -1.7307  0.2216  1.4360
   79SLPC   H5Y 7302   3.075   4.591   7.019 -0.5082 -0.2633 -0.5146
   79SLPC   C36 7303   2.970   4.563   7.202 -0.2282 -0.3792 -0.4338
   79SLPC   H6X 7304   2.916   4.658   7.188 -2.3289 -1.1150  1.8876
   79SLPC   H6Y 7305   3.075   4.570   7.239 -0.4836  2.1042 -0.0345
   79SLPC   C37 7306   2.888   4.464   7.286  0.0418  0.4067 -0.0325
   79SLPC   H7X 7307   2.933   4.363   7.277 -1.6693 -0.2188 -2.8701
   79SLPC   H7Y 7308   2.788   4.455   7.239  0.9244 -0.7290 -1.8263
   79SLPC   C38 7309   2.864   4.499   7.435 -0.6140 -0.7049  0.5761
   79SLPC   H8X 7310   2.783   4.442   7.483 -0.5946 -0.1890  1.2308
   79SLPC   H8Y 7311   2.835   4.606   7.441 -0.6549 -0.6764 -0.0222
   79SLPC   C39 7312   2.983   4.483   7.526  0.2929  0.3061 -0.0660
   79SLPC   H9X 7313   3.073   4.502   7.464  0.4723 -2.0848 -0.6130
   79SLPC   H9Y 7314   3.002   4.376   7.550 -1.4026 -0.2007 -0.9077
   79SLPC  C310 7315   2.985   4.579   7.650 -0.0121  0.4135  1.1375
   79SLPC  H10X 7316   2.994   4.684   7.616  1.1063 -0.6792 -2.3582
   79SLPC  H10Y 7317   3.083   4.572   7.702  0.5977  2.2553  0.3069
   79SLPC  C311 7318   2.881   4.556   7.757 -0.3192 -0.3348 -0.4749
   79SLPC  H11X 7319   2.883   4.460   7.812 -1.6205 -0.3178 -0.3648
   79SLPC  H11Y 7320   2.781   4.566   7.709  0.4218  1.4923 -1.7929
   79SLPC  C312 7321   2.900   4.666   7.861 -0.9395  0.2591 -0.0674
   79SLPC  H12X 7322   2.943   4.762   7.825  2.5556 -0.1312  2.5110
   79SLPC  H12Y 7323   2.979   4.652   7.938 -2.5874  1.2688  1.9139
   79SLPC  C313 7324   2.761   4.697   7.925 -0.9627  0.3372 -0.1998
   79SLPC  H13X 7325   2.745   4.606   7.987  2.3399 -0.0765  0.2005
   79SLPC  H13Y 7326   2.681   4.697   7.848 -1.5802  0.8950  0.4295
   79SLPC  C314 7327   2.749   4.826   8.004 -0.1378  0.3321 -0.1285
   79SLPC  H14X 7328   2.651   4.829   8.056  0.0897 -0.1737  0.3330
   79SLPC  H14Y 7329   2.750   4.920   7.945  0.9424 -0.9625 -2.3125
   79SLPC  C315 7330   2.854   4.836   8.109 -0.1744  0.1650  0.3555
   79SLPC  H15X 7331   2.838   4.936   8.154  0.9475  0.6391 -0.2316
   79SLPC  H15Y 7332   2.949   4.835   8.051  0.0937 -0.5751  0.7896
   79SLPC  C316 7333   2.854   4.724   8.219 -0.3327 -0.6779  0.0000
   79SLPC  H16X 7334   2.919   4.759   8.302 -1.8809 -0.1597  1.0423
   79SLPC  H16Y 7335   2.897   4.633   8.173 -0.7643 -0.7660 -0.2391
   79SLPC  C317 7336   2.721   4.691   8.291  0.2220  0.2777  0.0320
   79SLPC  H17X 7337   2.650   4.647   8.218  1.0295  1.6442 -1.6486
   79SLPC  H17Y 7338   2.678   4.781   8.341 -0.6683 -1.0607  1.8035
   79SLPC  C318 7339   2.741   4.587   8.404  0.3339  0.0577 -0.0885
   79SLPC  H18X 7340   2.822   4.629   8.468  1.0945 -1.8658  0.2728
   79SLPC  H18Y 7341   2.782   4.493   8.362  0.8068  0.0042  0.4806
   79SLPC  H18Z 7342   2.645   4.561   8.454  0.7646 -1.1327  0.1699
   80SLPC     N 7343   3.354   0.889   6.118  0.2393 -0.3981 -0.3908
   80SLPC   C13 7344   3.352   1.006   6.224 -0.1360  0.4314  0.5207
   80SLPC  H13A 7345   3.324   1.098   6.175 -1.3861  0.7028  1.6788
   80SLPC  H13B 7346   3.287   0.987   6.308  0.7889  1.0717  1.3948
   80SLPC  H13C 7347   3.455   1.025   6.250 -0.0708 -0.2461  0.7857
   80SLPC   C14 7348   3.378   0.759   6.194 -0.5833  0.5080 -0.0660
   80SLPC  H14A 7349   3.388   0.673   6.131  0.3007  1.2571 -0.9815
   80SLPC  H14B 7350   3.466   0.764   6.257  0.1975  0.7185 -1.1552
   80SLPC  H14C 7351   3.288   0.743   6.252 -1.9073  2.2870 -1.5373
   80SLPC   C15 7352   3.451   0.906   6.016 -0.2202  0.2529 -0.3400
   80SLPC  H15A 7353   3.449   0.844   5.928 -1.0834  1.1784 -0.9860
   80SLPC  H15B 7354   3.441   1.003   5.970 -2.9999  1.1974  1.9075
   80SLPC  H15C 7355   3.549   0.885   6.058  0.5782 -0.1482 -2.3172
   80SLPC   C12 7356   3.212   0.888   6.055 -0.2863 -0.3619 -0.0583
   80SLPC  H12A 7357   3.213   0.969   5.983  3.0053  1.0630  1.3998
   80SLPC  H12B 7358   3.138   0.905   6.132  0.4041 -0.4880  0.6425
   80SLPC   C11 7359   3.151   0.767   5.979  0.1009 -0.1682  0.1711
   80SLPC  H11A 7360   3.222   0.745   5.896  1.2958  2.4333  0.3977
   80SLPC  H11B 7361   3.055   0.786   5.927  0.2195 -2.0848 -0.8426
   80SLPC     P 7362   3.124   0.503   6.028  0.0323  0.0290  0.2641
   80SLPC   O13 7363   3.165   0.481   5.886 -0.5675  0.4513  0.2527
   80SLPC   O14 7364   3.196   0.419   6.128  0.7214  0.2518 -0.4561
   80SLPC   O12 7365   3.123   0.656   6.063  0.3156 -0.0250 -0.9533
   80SLPC   O11 7366   2.972   0.459   6.027 -0.3430  0.1312  0.8465
   80SLPC    C1 7367   2.859   0.542   6.034 -0.5547  0.3069 -0.7714
   80SLPC    HA 7368   2.871   0.645   5.994 -0.6973  1.4365  1.8644
   80SLPC    HB 7369   2.772   0.494   5.983 -1.7816  1.7424 -0.0917
   80SLPC    C2 7370   2.836   0.561   6.185 -0.0973 -0.5388  0.8878
   80SLPC    HS 7371   2.927   0.603   6.235  1.3526 -3.3750  0.8693
   80SLPC   O21 7372   2.811   0.436   6.250  0.2423 -0.4976  0.5522
   80SLPC   C21 7373   2.854   0.425   6.368 -0.0091  0.0423 -0.1984
   80SLPC   O22 7374   2.934   0.501   6.426  0.5520  0.1231  0.2717
   80SLPC   C22 7375   2.784   0.309   6.446  0.4600 -0.2556 -0.3967
   80SLPC   H2R 7376   2.676   0.332   6.439  0.5722  0.1194 -0.9400
   80SLPC   H2S 7377   2.801   0.212   6.394 -1.6033 -0.6640 -0.3876
   80SLPC    C3 7378   2.714   0.651   6.211 -1.0069 -0.6872  0.1077
   80SLPC    HX 7379   2.643   0.603   6.140 -0.4639 -1.1393 -0.1405
   80SLPC    HY 7380   2.739   0.752   6.173 -0.0804 -1.7592 -2.3817
   80SLPC   O31 7381   2.665   0.656   6.343 -0.3041 -0.2034 -0.0393
   80SLPC   C31 7382   2.540   0.648   6.357  1.3577 -0.5388  0.4971
   80SLPC   O32 7383   2.457   0.632   6.269  0.2408 -0.1075 -0.4295
   80SLPC   C32 7384   2.509   0.678   6.507 -0.2055  0.2127 -0.1068
   80SLPC   H2X 7385   2.403   0.651   6.528 -0.4179  0.5036 -0.7641
   80SLPC   H2Y 7386   2.499   0.786   6.530 -3.8365 -0.4853  2.4229
   80SLPC   C23 7387   2.827   0.316   6.597  0.0115  0.8877 -0.2173
   80SLPC   H3R 7388   2.791   0.415   6.632 -2.4365  0.3052 -0.8581
   80SLPC   H3S 7389   2.936   0.307   6.613 -0.1935 -0.0621  0.7504
   80SLPC   C24 7390   2.770   0.203   6.685 -0.5500 -0.8789  0.5675
   80SLPC   H4R 7391   2.787   0.109   6.628  0.4012 -0.0517 -0.5694
   80SLPC   H4S 7392   2.663   0.214   6.712 -0.8506 -1.9909 -0.1116
   80SLPC   C25 7393   2.857   0.192   6.819  0.4225 -0.4041  0.5926
   80SLPC   H5R 7394   2.858   0.295   6.860  3.5035 -0.9590  2.1679
   80SLPC   H5S 7395   2.961   0.162   6.795  0.5437  0.6898 -0.3184
   80SLPC   C26 7396   2.787   0.099   6.919  0.2850  0.5525 -0.3778
   80SLPC   H6R 7397   2.799  -0.001   6.873  0.4890  0.6604 -0.5582
   80SLPC   H6S 7398   2.681   0.132   6.921 -0.5011 -1.8225  0.5186
   80SLPC   C27 7399   2.826   0.123   7.068 -0.2909 -0.1085  0.4530
   80SLPC   H7R 7400   2.750   0.084   7.138  0.8580 -1.1245  1.1722
   80SLPC   H7S 7401   2.831   0.232   7.087  0.3993  0.5346 -2.7310
   80SLPC   C28 7402   2.960   0.050   7.103  0.5719  0.7347 -0.2095
   80SLPC   H8R 7403   3.046   0.086   7.043  1.3469 -0.1753  0.3235
   80SLPC   H8S 7404   2.946  -0.059   7.089 -0.6179  0.5163  2.1510
   80SLPC   C29 7405   2.988   0.077   7.249  0.4106 -0.4925  0.2062
   80SLPC   H9R 7406   3.037   0.173   7.269 -1.5343  1.2362 -2.5798
   80SLPC  C210 7407   2.961   0.008   7.359 -0.4449 -0.1459 -0.4664
   80SLPC  H10R 7408   2.998   0.055   7.451 -0.2542 -0.4999 -0.3605
   80SLPC  C211 7409   2.898  -0.128   7.372 -0.6281 -0.5578 -0.2563
   80SLPC  H11R 7410   2.870  -0.171   7.273  2.1930  1.8722 -2.2969
   80SLPC  H11S 7411   2.806  -0.103   7.430 -0.3137  0.7708 -0.3102
   80SLPC  C212 7412   2.985  -0.225   7.453 -0.2280  0.2647  0.2980
   80SLPC  H12R 7413   3.058  -0.278   7.391 -1.0077  1.0255 -1.3232
   80SLPC  C213 7414   2.973  -0.253   7.579  0.1899 -0.0626 -0.3095
   80SLPC  H13R 7415   3.053  -0.317   7.620 -1.0070 -1.6774 -0.4061
   80SLPC  C214 7416   2.879  -0.185   7.679  0.1699 -0.0636  0.0836
   80SLPC  H14R 7417   2.781  -0.233   7.662  1.1365 -1.1822 -3.1241
   80SLPC  H14S 7418   2.877  -0.077   7.654  1.2707  0.0226  0.3017
   80SLPC  C215 7419   2.918  -0.208   7.827 -0.2281  0.6507  0.6945
   80SLPC  H15R 7420   3.027  -0.190   7.838  0.0724 -0.9050  0.5192
   80SLPC  H15S 7421   2.905  -0.317   7.848 -1.6575  0.6816  0.0553
   80SLPC  C216 7422   2.840  -0.126   7.926 -0.2115 -0.5485  0.0251
   80SLPC  H16R 7423   2.736  -0.165   7.933 -0.2947 -0.2480  0.5014
   80SLPC  H16S 7424   2.844  -0.027   7.876 -0.3455 -0.6450 -0.1781
   80SLPC  C217 7425   2.911  -0.111   8.062 -0.2073 -0.1126 -0.3483
   80SLPC  H17R 7426   2.848  -0.049   8.129 -1.5216 -0.2928 -1.3866
   80SLPC  H17S 7427   3.014  -0.071   8.052  0.0452 -0.3148  1.1229
   80SLPC  C218 7428   2.943  -0.247   8.126  0.5683  0.1177 -0.4531
   80SLPC  H18R 7429   3.019  -0.303   8.066  2.9356  2.9871 -0.3787
   80SLPC  H18S 7430   2.849  -0.305   8.137 -1.4338  2.7780 -2.1620
   80SLPC  H18T 7431   2.993  -0.227   8.223  1.3575 -0.8073 -0.6551
   80SLPC   C33 7432   2.594   0.598   6.603 -0.2129  0.3027 -0.1726
   80SLPC   H3X 7433   2.703   0.619   6.590  0.0874 -1.3606 -0.5031
   80SLPC   H3Y 7434   2.574   0.495   6.569  0.9592  0.0254 -0.0854
   80SLPC   C34 7435   2.547   0.619   6.748  0.3227  0.0231  0.2136
   80SLPC   H4X 7436   2.439   0.641   6.764  0.5518  1.5928 -0.2070
   80SLPC   H4Y 7437   2.594   0.710   6.789  1.3824 -0.1438 -0.6067
   80SLPC   C35 7438   2.595   0.510   6.842 -0.5407 -0.7507  0.1179
   80SLPC   H5X 7439   2.700   0.539   6.862 -1.2962  0.6525  2.3850
   80SLPC   H5Y 7440   2.589   0.408   6.797  2.0042 -0.6857 -0.5179
   80SLPC   C36 7441   2.538   0.517   6.982  0.1435  0.0422  0.6514
   80SLPC   H6X 7442   2.430   0.495   6.982 -0.8097  3.8000 -1.9194
   80SLPC   H6Y 7443   2.537   0.625   7.008  0.8332  0.7262 -1.9201
   80SLPC   C37 7444   2.619   0.437   7.077 -0.3927 -0.1269  0.5226
   80SLPC   H7X 7445   2.720   0.479   7.093 -0.3027  0.8335 -2.0972
   80SLPC   H7Y 7446   2.637   0.338   7.031  1.7569 -0.6530  2.3149
   80SLPC   C38 7447   2.549   0.417   7.210 -0.2125  0.4447  0.1355
   80SLPC   H8X 7448   2.449   0.379   7.181  0.4137 -1.4064  0.2532
   80SLPC   H8Y 7449   2.535   0.517   7.256 -0.9626 -1.0151  3.3530
   80SLPC   C39 7450   2.634   0.326   7.305 -0.3002  0.0138  0.2441
   80SLPC   H9X 7451   2.739   0.361   7.297  0.5669 -1.5269  3.2301
   80SLPC   H9Y 7452   2.621   0.221   7.271  0.6231 -0.4999  1.4381
   80SLPC  C310 7453   2.592   0.347   7.448  0.5153  0.5213 -0.3291
   80SLPC  H10X 7454   2.481   0.344   7.450  0.5422 -0.6410 -0.0186
   80SLPC  H10Y 7455   2.612   0.453   7.475  0.7023  0.3870  0.0578
   80SLPC  C311 7456   2.648   0.238   7.552  0.3533 -0.0829 -0.0140
   80SLPC  H11X 7457   2.617   0.135   7.526  0.2226  0.2173 -1.0783
   80SLPC  H11Y 7458   2.592   0.267   7.644 -0.7907  2.0299 -1.2953
   80SLPC  C312 7459   2.796   0.249   7.565 -0.9194 -0.8496 -0.0016
   80SLPC  H12X 7460   2.850   0.275   7.471  1.0222  2.1603  1.7393
   80SLPC  H12Y 7461   2.828   0.149   7.601 -1.1932 -0.8831  0.1458
   80SLPC  C313 7462   2.834   0.352   7.673  0.0162 -0.0116  0.5189
   80SLPC  H13X 7463   2.778   0.444   7.647 -1.6461 -0.8702  0.9298
   80SLPC  H13Y 7464   2.945   0.364   7.675 -0.1996  2.6382  3.1246
   80SLPC  C314 7465   2.805   0.293   7.812  0.2572 -0.2491  0.0050
   80SLPC  H14X 7466   2.840   0.188   7.820 -1.8659 -1.0678 -0.7408
   80SLPC  H14Y 7467   2.694   0.294   7.816  0.1497  1.7372 -1.9790
   80SLPC  C315 7468   2.856   0.377   7.919  0.7514 -0.3551 -0.7373
   80SLPC  H15X 7469   2.805   0.475   7.921 -0.9554 -0.9588 -4.7852
   80SLPC  H15Y 7470   2.963   0.398   7.902  0.6632 -0.1394 -1.0336
   80SLPC  C316 7471   2.816   0.314   8.048 -0.4462  0.2640  0.2238
   80SLPC  H16X 7472   2.846   0.207   8.052  1.4450  0.7011 -0.9943
   80SLPC  H16Y 7473   2.707   0.332   8.057 -0.3147  1.8107 -0.9719
   80SLPC  C317 7474   2.870   0.370   8.183 -0.3341  0.0541  0.3595
   80SLPC  H17X 7475   2.850   0.480   8.183 -1.1167 -0.0090 -2.7061
   80SLPC  H17Y 7476   2.980   0.358   8.172 -0.5115 -0.7148 -0.7475
   80SLPC  C318 7477   2.815   0.298   8.310 -0.6325  0.0515  0.5572
   80SLPC  H18X 7478   2.845   0.191   8.303 -1.0871 -0.0553  0.1830
   80SLPC  H18Y 7479   2.708   0.322   8.321  0.1518  3.4070  2.2598
   80SLPC  H18Z 7480   2.861   0.347   8.399 -1.6033 -0.4485  1.3535
   81SAPS     N 7481   2.272   3.067  10.899 -0.2141 -0.0000 -0.6114
   81SAPS   HN1 7482   2.187   3.068  10.839 -1.0569  1.0113  0.5553
   81SAPS   HN2 7483   2.281   3.167  10.925 -1.2772  0.4498 -1.8925
   81SAPS   HN3 7484   2.350   3.040  10.836 -0.3643 -3.1144  0.3272
   81SAPS   C12 7485   2.268   2.966  11.011  0.9410  0.0050  0.3879
   81SAPS  H12A 7486   2.301   2.872  10.971 -0.3899 -0.0602 -0.6310
   81SAPS   C13 7487   2.352   2.998  11.135 -0.8858 -0.2319 -0.0137
   81SAPS  O13A 7488   2.429   3.097  11.132 -0.3376  0.0024 -0.4198
   81SAPS  O13B 7489   2.348   2.919  11.234 -0.0579  0.0285  0.0804
   81SAPS   C11 7490   2.118   2.952  11.051  0.6236  0.0903  0.2078
   81SAPS  H11A 7491   2.081   3.054  11.076  1.1911  0.2917  0.2471
   81SAPS  H11B 7492   2.110   2.901  11.149 -0.5740 -0.3031 -0.0743
   81SAPS     P 7493   1.988   2.756  10.933  0.0147 -0.3467  0.2300
   81SAPS   O13 7494   2.106   2.672  10.959  0.2690 -0.1683  0.2181
   81SAPS   O14 7495   1.861   2.734  11.004  0.2068  0.0088 -0.0627
   81SAPS   O12 7496   2.032   2.907  10.944 -0.6189  0.2081 -0.2542
   81SAPS   O11 7497   1.961   2.749  10.781  0.4404 -0.3991 -0.4707
   81SAPS    C1 7498   1.858   2.836  10.727  0.4720 -0.6755 -0.6966
   81SAPS    HA 7499   1.757   2.791  10.738  0.2821 -1.3839 -4.1303
   81SAPS    HB 7500   1.852   2.938  10.772 -0.1146 -1.4824  1.1538
   81SAPS    C2 7501   1.880   2.856  10.577  0.2738  0.3521  0.4069
   81SAPS    HS 7502   1.800   2.921  10.536  0.4982  1.5050  1.7021
   81SAPS   O21 7503   1.885   2.729  10.511  0.4053 -0.4207 -0.3569
   81SAPS   C21 7504   1.775   2.677  10.462  0.0573 -0.1350 -0.0080
   81SAPS   O22 7505   1.669   2.744  10.451 -0.3049  0.5523 -0.2676
   81SAPS   C22 7506   1.788   2.528  10.425  0.3416 -0.2337  0.1204
   81SAPS   H2R 7507   1.887   2.513  10.378  0.1609 -0.1413 -0.2881
   81SAPS   H2S 7508   1.793   2.469  10.520  2.0868  2.9286  2.1547
   81SAPS    C3 7509   2.029   2.915  10.556  0.3390 -0.6654  0.0937
   81SAPS    HX 7510   2.109   2.881  10.625  0.7464  0.9162  0.4375
   81SAPS    HY 7511   2.012   3.019  10.592  0.5389 -0.5995 -0.0039
   81SAPS   O31 7512   2.065   2.927  10.421  0.1467  0.1576  0.7254
   81SAPS   C31 7513   2.147   2.835  10.376 -0.5988 -0.7193  0.0400
   81SAPS   O32 7514   2.217   2.760  10.440 -0.2389  0.3644 -0.4031
   81SAPS   C32 7515   2.156   2.841  10.219  0.1241 -0.1556 -0.2362
   81SAPS   H2X 7516   2.182   2.743  10.172 -2.4368 -1.0121 -0.0310
   81SAPS   H2Y 7517   2.236   2.916  10.203 -2.3545  3.7803  3.4593
   81SAPS   C23 7518   1.670   2.485  10.339  0.3149 -0.3015 -0.1966
   81SAPS   H3R 7519   1.661   2.563  10.260 -1.4249  2.0226  2.1369
   81SAPS   H3S 7520   1.576   2.487  10.396  0.2814  0.2301 -0.2673
   81SAPS   C24 7521   1.693   2.353  10.266  0.5136  0.0917 -0.5145
   81SAPS   H4R 7522   1.597   2.325  10.218  1.5039 -1.1235 -1.8627
   81SAPS   H4S 7523   1.706   2.281  10.350 -0.7515  0.6282  0.1663
   81SAPS   C25 7524   1.794   2.335  10.160  0.3943 -0.0214  0.3651
   81SAPS   H5R 7525   1.892   2.312  10.202  0.9225  0.8627 -0.3445
   81SAPS   C26 7526   1.779   2.348  10.026 -0.2045  0.3250 -0.0306
   81SAPS   H6R 7527   1.863   2.333   9.958 -0.0748 -0.4806  0.2947
   81SAPS   C27 7528   1.648   2.379   9.957  0.1063 -0.1546  0.1905
   81SAPS   H7R 7529   1.570   2.405  10.031  1.7195  0.9753  1.5736
   81SAPS   H7S 7530   1.616   2.290   9.899  0.9936  0.1207 -0.7496
   81SAPS   C28 7531   1.672   2.497   9.873  0.3162  0.1724  0.4142
   81SAPS   H8R 7532   1.685   2.591   9.929 -0.2234  0.7915 -0.4891
   81SAPS   C29 7533   1.678   2.510   9.742  0.0836 -0.1085  0.6975
   81SAPS   H9R 7534   1.706   2.613   9.716 -1.0971  0.4110  1.3928
   81SAPS  C210 7535   1.662   2.409   9.620  0.3567  0.3592 -0.6755
   81SAPS  H10R 7536   1.566   2.413   9.563  0.5016  1.8084 -0.8698
   81SAPS  H10S 7537   1.669   2.306   9.659 -1.0444  0.1976 -0.7937
   81SAPS  C211 7538   1.772   2.423   9.520  0.0091 -0.1587  0.3623
   81SAPS  H11R 7539   1.867   2.368   9.534  0.3399 -0.0799 -1.3140
   81SAPS  C212 7540   1.779   2.507   9.416 -0.3070 -0.2280 -0.0865
   81SAPS  H12R 7541   1.867   2.496   9.351 -1.1099 -0.2996 -1.1855
   81SAPS  C213 7542   1.668   2.598   9.370 -0.6941  0.3821  0.0489
   81SAPS  H13R 7543   1.714   2.693   9.335  0.0033 -0.1090 -0.3910
   81SAPS  H13S 7544   1.599   2.636   9.449 -1.5111  0.7079 -0.8066
   81SAPS  C214 7545   1.589   2.525   9.262  0.2312  0.3058 -0.2622
   81SAPS  H14R 7546   1.547   2.428   9.295  0.4313  0.8030  1.5604
   81SAPS  C215 7547   1.569   2.573   9.139 -0.0841 -0.2092  0.2621
   81SAPS  H15R 7548   1.507   2.518   9.068 -1.0686 -2.2173  2.5687
   81SAPS  C216 7549   1.624   2.703   9.076  0.3793 -0.2998 -0.5642
   81SAPS  H16R 7550   1.714   2.684   9.014 -0.1618 -1.9647 -0.9017
   81SAPS  H16S 7551   1.652   2.779   9.152  2.1784  0.4467 -1.9176
   81SAPS  C217 7552   1.523   2.765   8.986  0.1031 -0.3629  0.5801
   81SAPS  H17R 7553   1.424   2.774   9.036 -1.8010 -2.0164 -2.5775
   81SAPS  H17S 7554   1.510   2.700   8.897 -1.1410  1.1258 -0.3880
   81SAPS  C218 7555   1.553   2.912   8.938 -0.4910  0.3208  0.3256
   81SAPS  H18R 7556   1.533   2.985   9.019 -1.3952 -0.2295  0.6135
   81SAPS  H18S 7557   1.480   2.947   8.863  0.2612  1.9026  0.2947
   81SAPS  C219 7558   1.701   2.926   8.885 -0.7362 -0.6521 -0.4446
   81SAPS  H19R 7559   1.739   2.851   8.812  0.0604 -1.1268  0.4249
   81SAPS  H19S 7560   1.772   2.909   8.969 -2.2744  0.1921  1.0876
   81SAPS  C220 7561   1.732   3.064   8.820 -0.0978 -0.1019  0.5506
   81SAPS  H20R 7562   1.678   3.154   8.855 -0.6668  0.1364 -0.8538
   81SAPS  H20S 7563   1.710   3.057   8.711 -0.9529 -2.1261  0.8072
   81SAPS  H20T 7564   1.840   3.088   8.823  0.1505 -0.8373 -1.2849
   81SAPS   C33 7565   2.024   2.888  10.141 -0.5522 -0.6973 -0.2475
   81SAPS   H3X 7566   2.045   2.941  10.046 -1.3484  2.0691  1.0323
   81SAPS   H3Y 7567   1.993   2.977  10.199 -0.2989 -1.4144  1.0331
   81SAPS   C34 7568   1.908   2.789  10.118  0.4813 -0.6620  0.1884
   81SAPS   H4X 7569   1.925   2.731  10.211  0.7275  2.2786  2.1198
   81SAPS   H4Y 7570   1.931   2.738  10.023  1.2552 -0.8618  0.4763
   81SAPS   C35 7571   1.777   2.874  10.126 -0.3471  0.0154 -0.2857
   81SAPS   H5X 7572   1.765   2.913  10.230 -0.2686  0.4519 -0.4398
   81SAPS   H5Y 7573   1.681   2.818  10.120 -0.7374  0.7050 -0.5110
   81SAPS   C36 7574   1.774   2.985  10.021 -0.2182 -0.5122 -0.4311
   81SAPS   H6X 7575   1.855   2.961   9.949  1.8026 -1.8871  2.1217
   81SAPS   H6Y 7576   1.789   3.086  10.064 -1.9670 -0.2445 -0.3946
   81SAPS   C37 7577   1.636   2.983   9.945 -0.5593 -0.4493  0.3953
   81SAPS   H7X 7578   1.561   3.022  10.017  1.3703  1.1337  1.6409
   81SAPS   H7Y 7579   1.624   2.875   9.923 -0.2728 -0.4262  0.1338
   81SAPS   C38 7580   1.632   3.055   9.814 -0.2225  0.1179 -0.2220
   81SAPS   H8X 7581   1.643   3.164   9.831 -0.8645  0.4359 -1.7100
   81SAPS   H8Y 7582   1.534   3.027   9.769  0.0193 -0.6316 -0.3033
   81SAPS   C39 7583   1.752   3.026   9.719 -0.8734  0.5499 -1.0746
   81SAPS   H9X 7584   1.762   2.916   9.713  0.1272  0.4210  1.5909
   81SAPS   H9Y 7585   1.848   3.060   9.762  0.8801 -0.4012 -3.9311
   81SAPS  C310 7586   1.730   3.092   9.584 -0.6356 -0.8475 -0.2567
   81SAPS  H10X 7587   1.832   3.113   9.544 -0.3930  0.2703  0.8540
   81SAPS  H10Y 7588   1.673   3.187   9.596 -0.2251 -0.8405  2.2143
   81SAPS  C311 7589   1.650   3.017   9.477 -0.6250 -0.2285 -0.1410
   81SAPS  H11X 7590   1.548   3.014   9.520 -1.2455 -1.2361 -1.5918
   81SAPS  H11Y 7591   1.690   2.914   9.462  0.3371 -0.0642  1.1869
   81SAPS  C312 7592   1.631   3.092   9.341  1.2119 -0.0585 -0.7337
   81SAPS  H12X 7593   1.603   3.196   9.369 -2.3105 -1.4152  1.5895
   81SAPS  H12Y 7594   1.539   3.052   9.293  0.2681  0.8663  0.2211
   81SAPS  C313 7595   1.750   3.079   9.248  0.0146  0.1762 -0.4912
   81SAPS  H13X 7596   1.737   2.987   9.188  0.0205  0.2205 -0.5599
   81SAPS  H13Y 7597   1.836   3.052   9.314 -0.3363 -1.0923 -0.5368
   81SAPS  C314 7598   1.779   3.202   9.167 -0.9266 -0.1522 -0.4003
   81SAPS  H14X 7599   1.685   3.256   9.141 -0.8235  0.2909  0.1440
   81SAPS  H14Y 7600   1.825   3.159   9.075  0.8143 -1.7748  1.1458
   81SAPS  C315 7601   1.882   3.293   9.242 -0.4088  0.2554  0.0631
   81SAPS  H15X 7602   1.952   3.218   9.284  0.5526 -0.3403 -2.3833
   81SAPS  H15Y 7603   1.819   3.350   9.313 -0.3991  0.1792  0.1324
   81SAPS  C316 7604   1.957   3.390   9.154 -0.4089  0.2072 -0.1044
   81SAPS  H16X 7605   1.887   3.425   9.075 -0.1982  0.1531 -0.3174
   81SAPS  H16Y 7606   2.047   3.352   9.100 -0.6596  1.4854 -1.4951
   81SAPS  C317 7607   2.001   3.521   9.233 -0.2200  0.4901  0.4987
   81SAPS  H17X 7608   2.069   3.500   9.318  1.7091  0.1906 -1.0196
   81SAPS  H17Y 7609   1.910   3.565   9.277 -1.4608 -1.8159  0.3660
   81SAPS  C318 7610   2.071   3.625   9.144 -0.2670 -0.1969  0.3680
   81SAPS  H18X 7611   2.102   3.708   9.210  0.1693  0.2451 -0.3718
   81SAPS  H18Y 7612   2.014   3.658   9.054 -0.1686 -2.5902 -0.6605
   81SAPS  H18Z 7613   2.160   3.575   9.101  0.1365  1.3988 -0.7344
   82SAPS     N 7614   2.625   3.318  11.122  0.1996 -0.0745  0.5004
   82SAPS   HN1 7615   2.699   3.275  11.180 -1.8210 -2.3033  1.5883
   82SAPS   HN2 7616   2.589   3.404  11.167  2.5897  1.6324 -0.6393
   82SAPS   HN3 7617   2.551   3.246  11.105 -1.3911  0.6416  3.5953
   82SAPS   C12 7618   2.684   3.355  10.987 -0.5258  0.3657 -0.0448
   82SAPS  H12A 7619   2.721   3.456  10.997 -1.0471  0.7251 -1.5211
   82SAPS   C13 7620   2.794   3.254  10.954 -0.3991  0.6159 -0.1656
   82SAPS  O13A 7621   2.824   3.160  11.032  0.3913 -0.1102  0.1349
   82SAPS  O13B 7622   2.878   3.284  10.863 -0.1090  0.1187 -1.0333
   82SAPS   C11 7623   2.584   3.346  10.869 -0.2906  0.0336 -0.5351
   82SAPS  H11A 7624   2.524   3.253  10.869  1.1935 -0.9619 -1.6805
   82SAPS  H11B 7625   2.648   3.365  10.781  0.3349  0.9596  0.0962
   82SAPS     P 7626   2.349   3.465  10.865  0.4455  0.0263 -0.2025
   82SAPS   O13 7627   2.292   3.332  10.897 -0.4108  0.6428  0.1892
   82SAPS   O14 7628   2.298   3.587  10.930 -0.1959  0.6117  0.2566
   82SAPS   O12 7629   2.506   3.467  10.871 -0.0474  0.2675  0.0829
   82SAPS   O11 7630   2.326   3.490  10.709  0.4555  0.4103 -0.0536
   82SAPS    C1 7631   2.422   3.457  10.610 -0.1875  0.5543 -0.4206
   82SAPS    HA 7632   2.496   3.539  10.606 -2.0677  2.5839  2.2097
   82SAPS    HB 7633   2.486   3.368  10.629  0.9254  0.6545 -3.2198
   82SAPS    C2 7634   2.358   3.417  10.479 -0.4462  0.0363  0.7936
   82SAPS    HS 7635   2.441   3.406  10.405  0.0399  0.7673  1.2163
   82SAPS   O21 7636   2.268   3.515  10.434 -0.7165  0.5804  0.9062
   82SAPS   C21 7637   2.316   3.633  10.405  0.0348  0.4521 -0.0905
   82SAPS   O22 7638   2.432   3.670  10.422  0.2776  0.3431 -0.5086
   82SAPS   C22 7639   2.201   3.708  10.334 -0.1937 -0.4347  0.3230
   82SAPS   H2R 7640   2.225   3.816  10.327 -1.1135 -0.1723  1.0173
   82SAPS   H2S 7641   2.196   3.667  10.231 -0.3221  0.2476  0.0534
   82SAPS    C3 7642   2.282   3.280  10.490 -0.1278 -0.0085  0.2259
   82SAPS    HX 7643   2.218   3.286  10.580  0.8064  2.0280  0.8061
   82SAPS    HY 7644   2.358   3.202  10.512  1.3990  1.0627 -0.9512
   82SAPS   O31 7645   2.205   3.256  10.372 -0.4480  0.2326  0.0997
   82SAPS   C31 7646   2.079   3.284  10.376 -0.3069  0.4128  0.1511
   82SAPS   O32 7647   2.018   3.318  10.476 -0.5562  0.2208 -0.3852
   82SAPS   C32 7648   2.022   3.271  10.235 -1.2315 -0.2070  0.1884
   82SAPS   H2X 7649   1.913   3.291  10.245 -1.2169  0.0906 -0.2381
   82SAPS   H2Y 7650   2.041   3.170  10.193  0.9155 -0.7208  2.1829
   82SAPS   C23 7651   2.066   3.688  10.410  0.3326 -0.0819  0.1564
   82SAPS   H3R 7652   2.072   3.728  10.514  1.2019  0.7922 -0.2073
   82SAPS   H3S 7653   2.045   3.579  10.417 -0.8457  0.2403  3.7517
   82SAPS   C24 7654   1.942   3.752  10.331 -0.1123  0.1473  0.6132
   82SAPS   H4R 7655   1.847   3.721  10.380 -1.1662 -0.2518 -1.5327
   82SAPS   H4S 7656   1.933   3.727  10.223  0.5733  3.8955 -0.4453
   82SAPS   C25 7657   1.950   3.904  10.331  0.1093 -0.5152  0.9192
   82SAPS   H5R 7658   2.034   3.945  10.389 -0.4179 -0.6450  1.7977
   82SAPS   C26 7659   1.870   3.993  10.270 -0.4794  0.0840  0.6764
   82SAPS   H6R 7660   1.894   4.100  10.274 -1.1889  0.3123 -0.4999
   82SAPS   C27 7661   1.757   3.961  10.185  0.0871  0.8008  0.3945
   82SAPS   H7R 7662   1.685   3.890  10.231 -1.8724  1.4903 -1.4642
   82SAPS   H7S 7663   1.774   3.913  10.087 -0.4283 -0.8564  1.0745
   82SAPS   C28 7664   1.674   4.082  10.161 -0.0151  0.2775  1.0175
   82SAPS   H8R 7665   1.659   4.145  10.250  1.4037  0.7262  0.9574
   82SAPS   C29 7666   1.619   4.113  10.041  0.3866 -0.0460 -0.1943
   82SAPS   H9R 7667   1.543   4.193  10.038  0.3756 -0.0538 -0.1211
   82SAPS  C210 7668   1.620   4.040   9.911 -0.3386 -0.5488 -0.7724
   82SAPS  H10R 7669   1.643   3.933   9.931  0.1132  0.1514  3.3557
   82SAPS  H10S 7670   1.713   4.075   9.861  0.6476 -0.4505  1.0279
   82SAPS  C211 7671   1.503   4.062   9.820 -0.6510 -0.0063  0.0191
   82SAPS  H11R 7672   1.423   4.124   9.863  0.1812  0.2357  1.2912
   82SAPS  C212 7673   1.501   4.041   9.688 -0.0075 -0.2606  0.8248
   82SAPS  H12R 7674   1.406   4.051   9.635  1.9503  1.3971 -2.7521
   82SAPS  C213 7675   1.617   3.989   9.605  0.0853 -0.3216 -0.1051
   82SAPS  H13R 7676   1.611   3.878   9.596  1.7711 -0.3639 -1.0590
   82SAPS  H13S 7677   1.716   4.006   9.652 -0.3491 -0.9081  1.0861
   82SAPS  C214 7678   1.615   4.048   9.465 -0.7181  0.6452  0.1619
   82SAPS  H14R 7679   1.555   3.986   9.398  1.1386 -0.2129 -0.7912
   82SAPS  C215 7680   1.677   4.161   9.420  0.1120 -0.3527 -0.0324
   82SAPS  H15R 7681   1.661   4.196   9.316  1.9760  0.5912 -0.0406
   82SAPS  C216 7682   1.762   4.256   9.494 -0.0178  0.4055 -0.3905
   82SAPS  H16R 7683   1.755   4.235   9.603  0.0377 -0.4538 -0.5457
   82SAPS  H16S 7684   1.717   4.356   9.475  1.4856  0.5942 -3.5045
   82SAPS  C217 7685   1.907   4.259   9.448 -0.1745  0.0435 -0.1728
   82SAPS  H17R 7686   1.959   4.169   9.485  0.1278  0.2631 -0.0530
   82SAPS  H17S 7687   1.958   4.344   9.499 -1.0778  0.6071 -0.1936
   82SAPS  C218 7688   1.924   4.281   9.292  0.6589  0.5293  0.0042
   82SAPS  H18R 7689   1.845   4.349   9.255  0.1958  0.9302  1.6585
   82SAPS  H18S 7690   1.908   4.182   9.245 -1.0473  1.9741 -2.7138
   82SAPS  C219 7691   2.070   4.320   9.258  0.1466 -0.0513 -0.4378
   82SAPS  H19R 7692   2.136   4.231   9.270  0.8999  0.4096 -1.0779
   82SAPS  H19S 7693   2.106   4.398   9.327 -0.0252 -0.4058  0.0585
   82SAPS  C220 7694   2.083   4.365   9.115 -0.0447 -0.5243  0.5122
   82SAPS  H20R 7695   2.034   4.464   9.101  0.6475 -0.0588  1.2768
   82SAPS  H20S 7696   2.025   4.304   9.042 -1.9674  2.9596 -1.1105
   82SAPS  H20T 7697   2.186   4.378   9.074  0.2443 -0.7690  1.1523
   82SAPS   C33 7698   2.080   3.381  10.135  0.5005  0.1617  0.3142
   82SAPS   H3X 7699   2.191   3.387  10.148  0.6259 -0.4096 -0.4287
   82SAPS   H3Y 7700   2.028   3.478  10.152  0.5829  0.2567  0.0282
   82SAPS   C34 7701   2.047   3.344   9.989  0.9077 -0.2498 -0.5197
   82SAPS   H4X 7702   1.938   3.340   9.969  0.6667 -0.2166  0.7119
   82SAPS   H4Y 7703   2.085   3.241   9.975  1.1810 -0.1459 -0.5534
   82SAPS   C35 7704   2.111   3.453   9.897  0.2519 -0.0336 -0.3472
   82SAPS   H5X 7705   2.218   3.466   9.925 -0.0878  1.0065  0.5617
   82SAPS   H5Y 7706   2.071   3.556   9.912  1.1700  0.3102 -0.2273
   82SAPS   C36 7707   2.105   3.426   9.744 -0.5767 -0.0126 -0.1769
   82SAPS   H6X 7708   2.155   3.516   9.703 -1.5497  1.8472  2.3940
   82SAPS   H6Y 7709   2.000   3.423   9.709 -1.0898 -0.5935  1.3443
   82SAPS   C37 7710   2.182   3.302   9.702  1.0435  0.3786  0.3484
   82SAPS   H7X 7711   2.140   3.209   9.746  1.2269  0.2955  0.3490
   82SAPS   H7Y 7712   2.289   3.307   9.732  1.1473 -0.9956  0.2534
   82SAPS   C38 7713   2.198   3.302   9.551 -0.7092 -0.3609  0.6644
   82SAPS   H8X 7714   2.103   3.339   9.507 -0.3454  0.1686  0.3166
   82SAPS   H8Y 7715   2.206   3.196   9.520 -2.9439 -0.6201  0.7999
   82SAPS   C39 7716   2.322   3.381   9.519  0.0200 -1.1331 -0.0801
   82SAPS   H9X 7717   2.411   3.333   9.563  1.1138 -0.3501 -1.3514
   82SAPS   H9Y 7718   2.315   3.488   9.549 -0.1686 -1.7714  2.2911
   82SAPS  C310 7719   2.343   3.369   9.368 -0.5309 -0.0030 -0.0147
   82SAPS  H10X 7720   2.257   3.412   9.312  0.0553  2.9273  1.1754
   82SAPS  H10Y 7721   2.346   3.260   9.347  0.6234 -0.1162  0.6633
   82SAPS  C311 7722   2.461   3.440   9.311  0.2109 -0.1224 -0.2157
   82SAPS  H11X 7723   2.550   3.399   9.363  0.5084  1.0070  0.1922
   82SAPS  H11Y 7724   2.463   3.549   9.334  0.2780 -0.0217 -0.6877
   82SAPS  C312 7725   2.478   3.421   9.156  0.1873  0.0854 -0.5134
   82SAPS  H12X 7726   2.405   3.493   9.114 -1.3220 -0.5263  0.9658
   82SAPS  H12Y 7727   2.467   3.313   9.130  0.6372 -1.0672  3.3678
   82SAPS  C313 7728   2.618   3.462   9.112  0.6352  0.2620 -0.6157
   82SAPS  H13X 7729   2.692   3.388   9.150 -0.1260  0.3983  1.2271
   82SAPS  H13Y 7730   2.640   3.565   9.149  0.3196 -0.2444  1.0787
   82SAPS  C314 7731   2.622   3.474   8.958 -0.0526  0.3851 -0.5329
   82SAPS  H14X 7732   2.554   3.400   8.909 -0.8086  1.7318 -1.6046
   82SAPS  H14Y 7733   2.725   3.467   8.918  0.5451  1.5843  0.7138
   82SAPS  C315 7734   2.568   3.602   8.906 -0.3370  0.0124 -0.3871
   82SAPS  H15X 7735   2.624   3.682   8.960  0.7730 -2.5024  2.4405
   82SAPS  H15Y 7736   2.462   3.607   8.939 -0.2483 -1.8426  0.2445
   82SAPS  C316 7737   2.563   3.627   8.752 -0.1302  0.2963 -0.2517
   82SAPS  H16X 7738   2.668   3.642   8.720 -0.4598  0.7522 -1.1634
   82SAPS  H16Y 7739   2.512   3.723   8.733 -2.6314 -0.5685  1.5564
   82SAPS  C317 7740   2.500   3.511   8.673 -0.2608  0.1727 -0.0524
   82SAPS  H17X 7741   2.552   3.415   8.697 -1.2146 -0.9908 -2.3623
   82SAPS  H17Y 7742   2.515   3.515   8.563  1.3292 -1.5045  0.0384
   82SAPS  C318 7743   2.354   3.496   8.710 -0.4455 -0.1902  0.9276
   82SAPS  H18X 7744   2.313   3.598   8.724 -2.5390 -1.0896  1.8433
   82SAPS  H18Y 7745   2.326   3.444   8.804  1.6772 -0.0021  1.7359
   82SAPS  H18Z 7746   2.296   3.445   8.630  1.4656  1.1627 -1.4698
   83SAPS     N 7747   2.601   4.845  10.934  0.3820  0.3875  0.6382
   83SAPS   HN1 7748   2.652   4.831  10.845 -0.5978 -1.3436  0.2920
   83SAPS   HN2 7749   2.583   4.747  10.964  1.1552 -0.2093 -0.7427
   83SAPS   HN3 7750   2.509   4.888  10.909  1.7594  1.1294 -4.1385
   83SAPS   C12 7751   2.673   4.920  11.039  0.2808  0.2015  0.7599
   83SAPS  H12A 7752   2.622   5.005  11.081  0.4957 -0.6141  2.7866
   83SAPS   C13 7753   2.701   4.842  11.167  0.4576 -0.5110  0.6132
   83SAPS  O13A 7754   2.672   4.722  11.180 -0.2568  0.6578  0.1942
   83SAPS  O13B 7755   2.746   4.910  11.266  0.2270  0.2852 -0.2526
   83SAPS   C11 7756   2.807   4.980  10.991 -0.6671  0.2061  0.5474
   83SAPS  H11A 7757   2.870   4.898  10.949 -1.0125  0.0337  0.3612
   83SAPS  H11B 7758   2.862   5.014  11.081  0.8670  1.0466 -0.6698
   83SAPS     P 7759   2.816   5.230  10.926  0.2773  0.1085 -0.2002
   83SAPS   O13 7760   2.746   5.269  11.049 -0.5516 -0.0768 -0.0311
   83SAPS   O14 7761   2.960   5.241  10.920 -0.4066 -0.1295 -0.0477
   83SAPS   O12 7762   2.775   5.081  10.900  0.7945 -0.2939  0.1051
   83SAPS   O11 7763   2.753   5.312  10.812 -0.0395  0.1159 -0.1256
   83SAPS    C1 7764   2.647   5.264  10.724  0.1867 -0.2476 -1.0011
   83SAPS    HA 7765   2.582   5.186  10.768  0.2945  0.6653  0.8439
   83SAPS    HB 7766   2.576   5.347  10.701 -0.5128 -0.9477 -1.4219
   83SAPS    C2 7767   2.703   5.230  10.586  0.5592  0.0826  0.0893
   83SAPS    HS 7768   2.772   5.145  10.603 -0.9574 -1.1897  0.0692
   83SAPS   O21 7769   2.758   5.349  10.535  0.3369  0.2048  0.6778
   83SAPS   C21 7770   2.884   5.346  10.505 -0.0216 -0.4878 -0.2052
   83SAPS   O22 7771   2.952   5.248  10.495  0.8171  0.3121 -0.3890
   83SAPS   C22 7772   2.935   5.489  10.483 -0.0466 -0.1464 -0.1904
   83SAPS   H2R 7773   2.845   5.553  10.500 -2.0327 -3.1118  1.4225
   83SAPS   H2S 7774   3.016   5.505  10.557 -0.3662 -0.4846  0.2349
   83SAPS    C3 7775   2.598   5.178  10.489  0.0359 -0.2737 -0.4539
   83SAPS    HX 7776   2.515   5.252  10.496  1.7051  1.5342  1.8003
   83SAPS    HY 7777   2.547   5.083  10.517  2.5474 -2.1216 -1.8219
   83SAPS   O31 7778   2.649   5.169  10.358  0.0765  0.3608 -0.0751
   83SAPS   C31 7779   2.724   5.063  10.339 -0.5805  1.0761  0.2027
   83SAPS   O32 7780   2.733   4.970  10.424 -0.0659  0.0578  0.3712
   83SAPS   C32 7781   2.789   5.059  10.203  0.4867  0.1253  0.6319
   83SAPS   H2X 7782   2.831   5.161  10.186  0.5457 -0.2986 -2.2436
   83SAPS   H2Y 7783   2.712   5.039  10.126 -2.5329  2.3460  2.8231
   83SAPS   C23 7784   2.989   5.507  10.340 -0.1347 -0.1712  0.6466
   83SAPS   H3R 7785   2.916   5.486  10.259  1.6992  0.4751 -1.2759
   83SAPS   H3S 7786   3.077   5.439  10.328 -1.2304 -1.3545 -1.0424
   83SAPS   C24 7787   3.050   5.649  10.321  0.6759  0.0155 -0.0483
   83SAPS   H4R 7788   3.120   5.657  10.236 -0.3882  0.9813 -0.8577
   83SAPS   H4S 7789   3.099   5.678  10.417  2.8932 -0.8486 -0.8588
   83SAPS   C25 7790   2.951   5.754  10.281 -0.5654  0.6913  0.2300
   83SAPS   H5R 7791   2.903   5.803  10.367 -0.8394 -1.1788  1.1963
   83SAPS   C26 7792   2.913   5.795  10.161 -0.9358  0.3299 -0.0406
   83SAPS   H6R 7793   2.848   5.883  10.163 -0.6245  0.5868 -0.8026
   83SAPS   C27 7794   2.960   5.739  10.027 -0.2726  0.2826  0.2121
   83SAPS   H7R 7795   2.866   5.714   9.973  0.3776 -2.0756  0.0449
   83SAPS   H7S 7796   3.016   5.643  10.023 -1.6756 -0.5292 -1.1759
   83SAPS   C28 7797   3.029   5.842   9.939  0.5931 -0.1696 -0.6295
   83SAPS   H8R 7798   3.070   5.932   9.987  0.4439 -0.5506  0.2366
   83SAPS   C29 7799   3.046   5.831   9.804 -0.5242 -0.2442 -0.3883
   83SAPS   H9R 7800   3.105   5.905   9.749 -0.0676  0.1081  0.5574
   83SAPS  C210 7801   2.998   5.711   9.723  0.0456 -0.1287  0.8502
   83SAPS  H10R 7802   2.966   5.755   9.626  0.8688 -0.5180  0.3887
   83SAPS  H10S 7803   2.907   5.668   9.770 -0.0478 -1.6530 -0.6492
   83SAPS  C211 7804   3.107   5.608   9.693  0.3952  0.2785 -0.6892
   83SAPS  H11R 7805   3.186   5.607   9.770  0.5658 -0.3747 -0.8632
   83SAPS  C212 7806   3.134   5.540   9.579 -0.3241 -0.5399  0.3183
   83SAPS  H12R 7807   3.226   5.480   9.577 -0.5569 -0.9842  1.5307
   83SAPS  C213 7808   3.051   5.528   9.449 -0.1237 -0.3674  0.2032
   83SAPS  H13R 7809   2.943   5.508   9.466 -0.5706  0.2216 -1.7202
   83SAPS  H13S 7810   3.093   5.441   9.393  0.8374 -0.2161  0.6667
   83SAPS  C214 7811   3.040   5.657   9.371  0.2549 -0.8132  0.3742
   83SAPS  H14R 7812   3.034   5.749   9.432  1.1183 -0.3640 -0.1959
   83SAPS  C215 7813   3.026   5.674   9.236 -0.0373  0.3698  0.0425
   83SAPS  H15R 7814   3.017   5.778   9.202 -0.0316  0.5534  0.6038
   83SAPS  C216 7815   3.027   5.564   9.128 -0.0745 -0.3461 -0.6379
   83SAPS  H16R 7816   3.003   5.465   9.172 -0.7951 -0.0319 -0.3119
   83SAPS  H16S 7817   3.125   5.562   9.076  1.3199 -4.4127  1.7000
   83SAPS  C217 7818   2.922   5.588   9.017 -0.3246  0.0140 -0.4220
   83SAPS  H17R 7819   2.959   5.683   8.972  1.0784  0.3888  1.3932
   83SAPS  H17S 7820   2.828   5.616   9.069 -0.9380  0.4009 -1.6977
   83SAPS  C218 7821   2.916   5.487   8.904  0.3678  0.4149  0.9656
   83SAPS  H18R 7822   2.871   5.392   8.940  1.5973  0.1196  1.8009
   83SAPS  H18S 7823   3.017   5.462   8.866 -0.3900 -0.8011 -0.3532
   83SAPS  C219 7824   2.846   5.534   8.776  0.6337  0.5761  0.0692
   83SAPS  H19R 7825   2.908   5.615   8.732  1.4911 -0.9557 -1.7065
   83SAPS  H19S 7826   2.747   5.575   8.807  1.5324  1.9819  1.1810
   83SAPS  C220 7827   2.822   5.425   8.671 -0.1414 -0.6464 -0.4696
   83SAPS  H20R 7828   2.917   5.369   8.657 -1.0080 -2.8354  1.6939
   83SAPS  H20S 7829   2.787   5.468   8.575 -0.1247 -1.3164 -0.7786
   83SAPS  H20T 7830   2.758   5.350   8.722  3.6638 -1.3098  4.0938
   83SAPS   C33 7831   2.913   4.963  10.189 -0.3521 -0.6382 -0.0466
   83SAPS   H3X 7832   2.957   4.935  10.286 -1.2143  1.8566  1.1575
   83SAPS   H3Y 7833   2.995   5.008  10.129  2.6021 -0.2341  3.9249
   83SAPS   C34 7834   2.869   4.832  10.122  0.0133 -0.5008  0.2530
   83SAPS   H4X 7835   2.782   4.780  10.167 -1.8734  1.3228 -1.1061
   83SAPS   H4Y 7836   2.964   4.775  10.117  0.7433  0.6810  0.1215
   83SAPS   C35 7837   2.823   4.842   9.974 -0.0504  0.4890  0.1293
   83SAPS   H5X 7838   2.732   4.904   9.960 -0.6248 -0.5921 -1.1949
   83SAPS   H5Y 7839   2.789   4.744   9.933 -0.4924 -0.1221  1.8554
   83SAPS   C36 7840   2.926   4.895   9.877  0.0765  0.9154 -0.0650
   83SAPS   H6X 7841   3.026   4.864   9.914 -0.4142 -0.3918  0.2158
   83SAPS   H6Y 7842   2.928   5.006   9.869  1.5512  1.1391  2.4720
   83SAPS   C37 7843   2.907   4.830   9.740 -0.3293 -0.1109  0.6057
   83SAPS   H7X 7844   2.797   4.829   9.721 -0.1738  1.3321 -0.5228
   83SAPS   H7Y 7845   2.936   4.723   9.756 -1.2248 -0.5787 -0.7443
   83SAPS   C38 7846   2.996   4.890   9.633  0.7799 -0.7850  0.0411
   83SAPS   H8X 7847   3.102   4.918   9.651  0.7255 -0.9708  0.6715
   83SAPS   H8Y 7848   2.935   4.979   9.606 -0.0523 -1.9107 -1.9880
   83SAPS   C39 7849   2.998   4.805   9.504  0.8308 -0.6592  0.1802
   83SAPS   H9X 7850   3.036   4.705   9.536  1.5909 -0.1322  0.9494
   83SAPS   H9Y 7851   3.061   4.857   9.429  0.3950  0.3948  0.5284
   83SAPS  C310 7852   2.860   4.793   9.448 -0.7471  0.1488  0.3513
   83SAPS  H10X 7853   2.813   4.892   9.430  2.2415  1.4116 -1.2490
   83SAPS  H10Y 7854   2.803   4.742   9.529 -0.8044  2.8199  2.1194
   83SAPS  C311 7855   2.866   4.709   9.316 -0.9597  0.0195 -0.5867
   83SAPS  H11X 7856   2.923   4.615   9.333 -2.9977 -1.2084 -0.3075
   83SAPS  H11Y 7857   2.906   4.773   9.234  1.2188 -0.5390 -0.0232
   83SAPS  C312 7858   2.729   4.670   9.271 -0.3148  0.5117  0.9814
   83SAPS  H12X 7859   2.673   4.765   9.259  1.1575  1.1778 -1.2128
   83SAPS  H12Y 7860   2.674   4.598   9.336  2.5799 -0.4794  2.5137
   83SAPS  C313 7861   2.729   4.623   9.123  0.7654 -0.3237  0.2526
   83SAPS  H13X 7862   2.802   4.540   9.115  1.9951  0.8851 -2.5815
   83SAPS  H13Y 7863   2.773   4.709   9.067 -0.5975  0.6755  0.6514
   83SAPS  C314 7864   2.585   4.600   9.072 -0.3756 -0.1474 -0.0413
   83SAPS  H14X 7865   2.524   4.686   9.106 -1.4936 -1.0512  0.3128
   83SAPS  H14Y 7866   2.536   4.507   9.109  1.0315 -0.7757  0.3494
   83SAPS  C315 7867   2.572   4.588   8.915 -0.1743 -0.1854 -0.3203
   83SAPS  H15X 7868   2.640   4.502   8.899  1.7671  0.7808  2.0474
   83SAPS  H15Y 7869   2.606   4.673   8.852 -0.0503 -0.2100 -0.2865
   83SAPS  C316 7870   2.431   4.540   8.859 -0.4128 -0.2385 -0.2727
   83SAPS  H16X 7871   2.405   4.441   8.903 -1.4385  0.2264  0.1883
   83SAPS  H16Y 7872   2.427   4.534   8.748 -1.9023  3.8422 -0.5871
   83SAPS  C317 7873   2.312   4.641   8.895 -0.5964  0.5461  0.1165
   83SAPS  H17X 7874   2.313   4.655   9.005  3.2601 -3.1113  0.8204
   83SAPS  H17Y 7875   2.217   4.586   8.882 -0.0435 -0.5637  0.6028
   83SAPS  C318 7876   2.311   4.770   8.811  0.2807 -0.7807  0.6522
   83SAPS  H18X 7877   2.210   4.815   8.804  1.1222  1.0178 -0.6451
   83SAPS  H18Y 7878   2.335   4.735   8.708 -0.9474  0.2400 -0.0037
   83SAPS  H18Z 7879   2.390   4.836   8.853  3.2577 -2.2476 -2.1774
   84SAPS     N 7880   3.131   3.346  10.799 -0.0161  0.6990 -0.2928
   84SAPS   HN1 7881   3.120   3.449  10.805 -2.2314  0.5251 -0.6205
   84SAPS   HN2 7882   3.177   3.321  10.709 -0.2924  3.1873 -1.1876
   84SAPS   HN3 7883   3.035   3.307  10.806 -1.0263  2.6808 -2.0032
   84SAPS   C12 7884   3.200   3.288  10.919 -0.8777  0.3781 -0.1780
   84SAPS  H12A 7885   3.163   3.336  11.009 -0.3638  0.1334  0.1655
   84SAPS   C13 7886   3.200   3.134  10.929  0.5284 -0.5506  0.1584
   84SAPS  O13A 7887   3.160   3.072  10.829  0.3726  0.2830  0.8337
   84SAPS  O13B 7888   3.241   3.065  11.027  0.3925  0.1277  0.1326
   84SAPS   C11 7889   3.351   3.333  10.927 -0.2359  0.3834  0.8250
   84SAPS  H11A 7890   3.403   3.287  10.841 -1.1947 -0.0040  0.4316
   84SAPS  H11B 7891   3.392   3.301  11.026 -0.7142  2.0265  1.5902
   84SAPS     P 7892   3.521   3.544  10.923  0.0130 -0.2314  0.2728
   84SAPS   O13 7893   3.514   3.691  10.913  0.1121  0.3969  0.0583
   84SAPS   O14 7894   3.612   3.493  11.029 -0.1325 -0.0753 -0.3520
   84SAPS   O12 7895   3.372   3.478  10.938 -0.5735 -0.5913  0.2137
   84SAPS   O11 7896   3.571   3.488  10.781  0.0358  0.5215  0.4726
   84SAPS    C1 7897   3.510   3.536  10.657 -0.2215  0.2781  0.4311
   84SAPS    HA 7898   3.399   3.540  10.658 -0.2679 -0.6250  1.0414
   84SAPS    HB 7899   3.544   3.639  10.633 -0.8348  0.3352 -0.2026
   84SAPS    C2 7900   3.541   3.428  10.548 -0.3632  0.7899 -0.0609
   84SAPS    HS 7901   3.527   3.328  10.594  1.9069  0.3893 -0.1293
   84SAPS   O21 7902   3.680   3.449  10.504 -0.3270 -0.2012  0.0354
   84SAPS   C21 7903   3.732   3.344  10.453 -0.4498  0.1162 -0.3366
   84SAPS   O22 7904   3.674   3.243  10.423 -0.1404  0.1497 -0.0958
   84SAPS   C22 7905   3.884   3.364  10.452 -0.1931 -0.3280  0.9654
   84SAPS   H2R 7906   3.903   3.471  10.430 -1.2679 -0.3337 -0.0896
   84SAPS   H2S 7907   3.933   3.346  10.549 -0.4461  1.1115  1.3874
   84SAPS    C3 7908   3.430   3.453  10.438  0.1132  0.4860 -0.6486
   84SAPS    HX 7909   3.412   3.562  10.427  1.7539  0.7015 -1.4627
   84SAPS    HY 7910   3.334   3.411  10.474  1.2537  0.8676  3.2179
   84SAPS   O31 7911   3.472   3.404  10.312  0.4486 -0.3673 -0.9350
   84SAPS   C31 7912   3.429   3.285  10.269  0.3421  0.2185 -0.8455
   84SAPS   O32 7913   3.359   3.209  10.328  0.4663  0.3952 -0.3788
   84SAPS   C32 7914   3.485   3.265  10.126  0.0250 -0.3187  0.4444
   84SAPS   H2X 7915   3.426   3.183  10.079 -1.5370  1.2415 -0.3980
   84SAPS   H2Y 7916   3.592   3.235  10.134 -0.0071 -1.6255 -2.7459
   84SAPS   C23 7917   3.959   3.278  10.342 -0.1794 -0.3703 -0.0394
   84SAPS   H3R 7918   3.893   3.262  10.253  0.2713 -1.6881 -0.1576
   84SAPS   H3S 7919   3.978   3.176  10.383 -2.5704 -1.4606 -1.3976
   84SAPS   C24 7920   4.082   3.363  10.295  1.0891 -0.0135 -0.3208
   84SAPS   H4R 7921   4.041   3.450  10.240 -0.4307 -0.7153 -0.3504
   84SAPS   H4S 7922   4.122   3.300  10.213 -0.0002  1.2379 -1.8663
   84SAPS   C25 7923   4.187   3.390  10.396 -0.7194 -0.0913 -0.2997
   84SAPS   H5R 7924   4.204   3.298  10.455 -0.8032  0.4835  0.6446
   84SAPS   C26 7925   4.257   3.500  10.416 -0.7360 -0.0309  0.0149
   84SAPS   H6R 7926   4.328   3.506  10.500 -0.1993 -0.9441 -0.3646
   84SAPS   C27 7927   4.261   3.632  10.340  0.7808  0.1875 -0.4482
   84SAPS   H7R 7928   4.239   3.712  10.413  0.8647 -1.3939  1.4018
   84SAPS   H7S 7929   4.173   3.639  10.273 -0.8510  3.7218  1.7711
   84SAPS   C28 7930   4.393   3.649  10.269  0.1839  0.2451 -0.0903
   84SAPS   H8R 7931   4.484   3.661  10.330  0.2937 -0.2274 -0.1585
   84SAPS   C29 7932   4.414   3.654  10.136  0.5683 -0.2783 -0.4981
   84SAPS   H9R 7933   4.515   3.664  10.096  0.7114  1.5879  0.2231
   84SAPS  C210 7934   4.309   3.649  10.032  0.9081  0.0986  1.0677
   84SAPS  H10R 7935   4.362   3.689   9.943  0.5880  1.5663  1.5041
   84SAPS  H10S 7936   4.228   3.717  10.067  2.5073  1.5994  1.9758
   84SAPS  C211 7937   4.237   3.520  10.003 -0.8583 -0.8214 -0.3126
   84SAPS  H11R 7938   4.189   3.480  10.093 -1.6849  2.7954  1.0131
   84SAPS  C212 7939   4.215   3.456   9.882 -0.1156 -0.5669  0.0592
   84SAPS  H12R 7940   4.146   3.370   9.887 -2.0105  0.9367  1.8368
   84SAPS  C213 7941   4.270   3.488   9.744  0.4235  0.0361 -0.2494
   84SAPS  H13R 7942   4.235   3.590   9.718  0.2656  0.3559  1.1499
   84SAPS  H13S 7943   4.213   3.430   9.668  1.1759 -0.6204 -0.3298
   84SAPS  C214 7944   4.417   3.472   9.729 -0.8321  0.1596 -0.0465
   84SAPS  H14R 7945   4.475   3.536   9.797 -0.4287 -0.5000  0.2336
   84SAPS  C215 7946   4.483   3.378   9.665 -0.4391 -0.1679 -0.3571
   84SAPS  H15R 7947   4.592   3.392   9.668 -0.6839  2.1500  0.3948
   84SAPS  C216 7948   4.434   3.262   9.587 -0.5877  0.1106  0.9609
   84SAPS  H16R 7949   4.329   3.237   9.615 -0.9156 -0.4741 -0.6752
   84SAPS  H16S 7950   4.483   3.170   9.624 -2.8049 -1.6617 -0.2420
   84SAPS  C217 7951   4.423   3.285   9.438 -0.6003 -0.0838 -0.3014
   84SAPS  H17R 7952   4.403   3.186   9.391 -0.5985  0.1478 -0.8036
   84SAPS  H17S 7953   4.517   3.300   9.380 -0.9725  1.4127 -0.5770
   84SAPS  C218 7954   4.315   3.380   9.387 -0.7037 -0.2179 -0.2242
   84SAPS  H18R 7955   4.328   3.480   9.433  0.8045 -0.0389 -0.9650
   84SAPS  H18S 7956   4.218   3.340   9.422  0.4757 -0.9784  2.4657
   84SAPS  C219 7957   4.315   3.390   9.233 -0.2137  0.3396 -0.0457
   84SAPS  H19R 7958   4.226   3.452   9.210 -1.2221  0.4390  3.5780
   84SAPS  H19S 7959   4.306   3.292   9.182 -0.5971 -0.1597  0.9688
   84SAPS  C220 7960   4.438   3.466   9.181  0.7670  0.4175  0.3234
   84SAPS  H20R 7961   4.537   3.428   9.214  0.4559 -1.2893 -0.5693
   84SAPS  H20S 7962   4.420   3.574   9.200  0.1158 -0.0482  2.5882
   84SAPS  H20T 7963   4.445   3.436   9.074  0.2738  1.1944  0.0628
   84SAPS   C33 7964   3.466   3.380  10.017 -0.0835 -0.6585 -0.9687
   84SAPS   H3X 7965   3.505   3.476  10.056 -1.6372 -0.2383 -0.3969
   84SAPS   H3Y 7966   3.356   3.392  10.005 -0.2926 -2.1587 -0.8351
   84SAPS   C34 7967   3.534   3.338   9.885  0.1255 -1.2165 -0.0331
   84SAPS   H4X 7968   3.495   3.237   9.859  0.1808 -1.0015 -0.9926
   84SAPS   H4Y 7969   3.641   3.338   9.913 -0.2810 -0.1007  1.6826
   84SAPS   C35 7970   3.499   3.428   9.771 -0.3762 -0.2339 -0.0635
   84SAPS   H5X 7971   3.516   3.537   9.788 -0.9246 -0.3482  1.3310
   84SAPS   H5Y 7972   3.393   3.408   9.747 -0.1273 -1.4717 -0.1786
   84SAPS   C36 7973   3.574   3.385   9.644  0.3035  0.1627  0.9005
   84SAPS   H6X 7974   3.556   3.278   9.621  1.9586 -0.1499  0.9096
   84SAPS   H6Y 7975   3.684   3.393   9.661  0.1416 -0.4124  2.3245
   84SAPS   C37 7976   3.523   3.468   9.523  0.0744  0.4533 -0.5892
   84SAPS   H7X 7977   3.574   3.566   9.524 -2.4395  1.8703  1.3852
   84SAPS   H7Y 7978   3.414   3.490   9.523  0.2946  1.7003 -1.6247
   84SAPS   C38 7979   3.568   3.399   9.394  0.0699 -0.5646  0.3180
   84SAPS   H8X 7980   3.532   3.294   9.402 -0.6501 -0.4470 -1.0240
   84SAPS   H8Y 7981   3.678   3.393   9.384  0.1880  2.2626 -0.8406
   84SAPS   C39 7982   3.508   3.469   9.272  0.2351  0.5631 -0.0128
   84SAPS   H9X 7983   3.549   3.570   9.255  2.7800 -0.1204  1.4772
   84SAPS   H9Y 7984   3.402   3.473   9.306  0.2903 -0.7277  0.3868
   84SAPS  C310 7985   3.517   3.388   9.148  0.3864  0.0260  0.5829
   84SAPS  H10X 7986   3.458   3.294   9.149  0.2648 -0.1341 -3.5202
   84SAPS  H10Y 7987   3.621   3.364   9.118  0.0458 -0.2351 -0.4089
   84SAPS  C311 7988   3.465   3.467   9.031  0.0085  0.2877 -0.2601
   84SAPS  H11X 7989   3.544   3.539   9.003  0.1003  0.4993  0.5160
   84SAPS  H11Y 7990   3.368   3.516   9.058 -1.0444 -0.1093 -3.0341
   84SAPS  C312 7991   3.445   3.378   8.910  0.3919  0.8400  0.4495
   84SAPS  H12X 7992   3.360   3.308   8.925  1.9957 -1.2370  0.4195
   84SAPS  H12Y 7993   3.531   3.307   8.911  0.1391  0.5274  0.4303
   84SAPS  C313 7994   3.454   3.440   8.770  0.0242  0.0099 -0.2689
   84SAPS  H13X 7995   3.473   3.357   8.699  2.4658 -0.6238  0.9969
   84SAPS  H13Y 7996   3.544   3.505   8.756  0.5791 -0.0060  2.6017
   84SAPS  C314 7997   3.333   3.527   8.740 -0.4503  0.2528  0.6035
   84SAPS  H14X 7998   3.336   3.619   8.802  0.2852 -0.5980  1.8495
   84SAPS  H14Y 7999   3.242   3.464   8.755 -0.8817 -0.4676 -3.6108
   84SAPS  C315 8000   3.342   3.565   8.591  0.1274 -0.8162 -0.3237
   84SAPS  H15X 8001   3.362   3.469   8.540  0.2491 -0.7663 -0.3694
   84SAPS  H15Y 8002   3.431   3.619   8.553 -1.3385  1.1229 -1.2134
   84SAPS  C316 8003   3.213   3.636   8.536 -0.5694  0.1254  0.1497
   84SAPS  H16X 8004   3.203   3.729   8.597  0.5568 -0.6946  1.6552
   84SAPS  H16Y 8005   3.122   3.576   8.554 -2.0720  1.7441 -1.6772
   84SAPS  C317 8006   3.227   3.678   8.394  0.0272  0.2075 -0.1994
   84SAPS  H17X 8007   3.259   3.592   8.332  2.5457  1.9080 -1.4532
   84SAPS  H17Y 8008   3.303   3.759   8.388 -0.0851  0.4677  1.5330
   84SAPS  C318 8009   3.098   3.738   8.329  0.1537 -0.6978 -0.2377
   84SAPS  H18X 8010   3.124   3.749   8.221 -1.2446 -0.1303 -0.5459
   84SAPS  H18Y 8011   3.063   3.833   8.375  1.7805 -0.0588 -0.2379
   84SAPS  H18Z 8012   3.015   3.665   8.332 -0.8909  0.4967  1.3129
   85SAPS     N 8013   1.745   6.402  10.931  0.5799  0.3546  0.1448
   85SAPS   HN1 8014   1.779   6.494  10.896 -0.4389  0.6317 -0.1834
   85SAPS   HN2 8015   1.680   6.418  11.011  0.8267 -0.2972  0.4755
   85SAPS   HN3 8016   1.832   6.356  10.964 -0.4015 -1.8657 -0.1629
   85SAPS   C12 8017   1.692   6.320  10.823 -0.2068  0.4560  0.0637
   85SAPS  H12A 8018   1.727   6.347  10.724 -1.8264 -0.3242 -0.7556
   85SAPS   C13 8019   1.704   6.166  10.834 -0.4055 -0.2967  0.1644
   85SAPS  O13A 8020   1.738   6.115  10.947 -0.0230 -0.8975  0.1161
   85SAPS  O13B 8021   1.661   6.097  10.739 -0.1521 -0.1406  0.1532
   85SAPS   C11 8022   1.544   6.361  10.793 -0.1819  0.6389 -0.6351
   85SAPS  H11A 8023   1.480   6.345  10.882  0.1051 -0.6142 -0.6341
   85SAPS  H11B 8024   1.499   6.287  10.723  0.8612 -1.5819  0.8999
   85SAPS     P 8025   1.397   6.560  10.727 -0.1585  0.2239  0.0806
   85SAPS   O13 8026   1.296   6.460  10.752  0.2162  0.2839  0.1051
   85SAPS   O14 8027   1.380   6.681  10.804 -0.3906 -0.3441  0.1891
   85SAPS   O12 8028   1.537   6.493  10.748 -0.1199  0.1633 -0.2802
   85SAPS   O11 8029   1.394   6.593  10.574  0.0616  0.3077 -0.4970
   85SAPS    C1 8030   1.436   6.504  10.475 -0.6107  0.4677 -0.2648
   85SAPS    HA 8031   1.540   6.528  10.444 -1.0487 -0.4491 -2.5944
   85SAPS    HB 8032   1.429   6.397  10.504 -0.4026  0.1440 -1.3842
   85SAPS    C2 8033   1.333   6.511  10.355 -0.1602  0.2253  0.1080
   85SAPS    HS 8034   1.234   6.497  10.404  0.3119 -2.7968  0.3852
   85SAPS   O21 8035   1.365   6.393  10.279  0.1762 -0.2199  0.5593
   85SAPS   C21 8036   1.267   6.349  10.199 -0.5183  0.4902 -0.2272
   85SAPS   O22 8037   1.154   6.395  10.203 -0.0659 -0.2998  0.6368
   85SAPS   C22 8038   1.316   6.242  10.106  0.0572  0.4291  0.5664
   85SAPS   H2R 8039   1.377   6.171  10.166  0.4128  0.0589 -0.2168
   85SAPS   H2S 8040   1.228   6.183  10.070 -0.8195  1.8896  0.2378
   85SAPS    C3 8041   1.351   6.639  10.276 -1.1171  0.5242  0.8597
   85SAPS    HX 8042   1.460   6.650  10.256 -1.1853 -0.8915 -0.4455
   85SAPS    HY 8043   1.319   6.721  10.343 -0.0153  1.6533  0.0586
   85SAPS   O31 8044   1.283   6.638  10.146  0.5368  0.0827  0.0217
   85SAPS   C31 8045   1.159   6.683  10.153  0.2301  0.2291 -0.2678
   85SAPS   O32 8046   1.097   6.729  10.249 -0.5116  0.3854  0.0716
   85SAPS   C32 8047   1.102   6.678  10.012 -0.3446  0.5111  0.6413
   85SAPS   H2X 8048   0.998   6.642  10.027  0.0702 -2.0122 -1.6750
   85SAPS   H2Y 8049   1.155   6.595   9.961 -1.4474  0.8557 -1.1589
   85SAPS   C23 8050   1.385   6.274   9.979  0.3411 -0.8617  0.0958
   85SAPS   H3R 8051   1.447   6.366   9.978 -1.2338  0.2404 -0.0170
   85SAPS   H3S 8052   1.314   6.298   9.896  2.3895 -0.4163 -1.6217
   85SAPS   C24 8053   1.465   6.150   9.935 -0.4410 -0.6979  0.2441
   85SAPS   H4R 8054   1.506   6.097  10.023 -2.2814  0.1652  1.6948
   85SAPS   H4S 8055   1.554   6.193   9.883 -0.2464  0.2017  1.2744
   85SAPS   C25 8056   1.388   6.053   9.840 -0.6004 -0.3118  0.2884
   85SAPS   H5R 8057   1.340   5.963   9.881 -1.8915 -2.0255 -4.3582
   85SAPS   C26 8058   1.375   6.055   9.703  0.4153 -0.4047 -0.4390
   85SAPS   H6R 8059   1.306   5.990   9.647  0.1220 -0.5201  0.0469
   85SAPS   C27 8060   1.430   6.168   9.612  0.1675 -0.8161  0.6010
   85SAPS   H7R 8061   1.474   6.252   9.669  2.3017 -0.0141 -2.0161
   85SAPS   H7S 8062   1.353   6.197   9.538  2.1774  1.6030 -0.6755
   85SAPS   C28 8063   1.547   6.099   9.537  0.3135  0.2428  0.2305
   85SAPS   H8R 8064   1.617   6.044   9.601  1.0330  1.1345  0.2392
   85SAPS   C29 8065   1.570   6.106   9.405 -0.1356 -0.5352 -0.3845
   85SAPS   H9R 8066   1.651   6.046   9.361 -1.0134  0.2279 -3.3248
   85SAPS  C210 8067   1.492   6.190   9.308 -0.4855  0.0110  0.6270
   85SAPS  H10R 8068   1.488   6.292   9.351 -0.7227  0.4633 -0.4294
   85SAPS  H10S 8069   1.393   6.139   9.303 -1.2666  1.4000  1.5730
   85SAPS  C211 8070   1.557   6.193   9.169  0.2946  0.0676 -0.0448
   85SAPS  H11R 8071   1.537   6.111   9.098  2.2066  0.9128 -1.6687
   85SAPS  C212 8072   1.644   6.294   9.123  0.0280  0.1509  0.3908
   85SAPS  H12R 8073   1.678   6.280   9.019  2.2329  2.1886  0.7617
   85SAPS  C213 8074   1.698   6.418   9.192  0.4467  0.6200 -0.7003
   85SAPS  H13R 8075   1.788   6.453   9.137  1.2224 -0.9353 -0.4723
   85SAPS  H13S 8076   1.716   6.399   9.300  0.3026 -0.1764 -0.8063
   85SAPS  C214 8077   1.603   6.537   9.173 -0.0369  1.0819  0.6519
   85SAPS  H14R 8078   1.549   6.534   9.078  0.4755 -1.9345  0.3759
   85SAPS  C215 8079   1.579   6.627   9.270 -0.6578 -0.1820  0.2457
   85SAPS  H15R 8080   1.496   6.698   9.258 -1.4926 -1.2007 -0.0877
   85SAPS  C216 8081   1.637   6.625   9.410  0.5770  0.0089 -0.3878
   85SAPS  H16R 8082   1.629   6.730   9.444 -1.1531 -1.1493  3.2678
   85SAPS  H16S 8083   1.741   6.585   9.411  0.3525 -0.5953  1.0623
   85SAPS  C217 8084   1.552   6.545   9.511  0.1659 -0.1297 -0.4899
   85SAPS  H17R 8085   1.616   6.518   9.597  0.1715 -0.4265 -0.5856
   85SAPS  H17S 8086   1.501   6.452   9.476 -2.1992  0.9799 -0.1952
   85SAPS  C218 8087   1.443   6.634   9.570  1.3636 -0.1634 -0.8605
   85SAPS  H18R 8088   1.354   6.654   9.507 -0.7394  0.8717  2.2000
   85SAPS  H18S 8089   1.479   6.737   9.595  1.1724 -0.4921  0.9388
   85SAPS  C219 8090   1.379   6.575   9.701 -0.1867  0.2339  0.3328
   85SAPS  H19R 8091   1.344   6.470   9.688 -2.7219  1.1329 -0.9892
   85SAPS  H19S 8092   1.286   6.635   9.717 -0.6199 -0.3855  0.1857
   85SAPS  C220 8093   1.464   6.606   9.826  0.6722  0.7818  0.2125
   85SAPS  H20R 8094   1.491   6.713   9.840  2.7459  0.2351  0.8047
   85SAPS  H20S 8095   1.554   6.540   9.829 -0.5039 -0.8170  2.0813
   85SAPS  H20T 8096   1.417   6.583   9.924  1.2911 -2.4549 -0.1335
   85SAPS   C33 8097   1.099   6.824   9.946  0.4469  0.5996  0.1771
   85SAPS   H3X 8098   1.014   6.870  10.001  0.7209  0.6212  0.5922
   85SAPS   H3Y 8099   1.076   6.804   9.839  0.9378 -1.8056  0.4684
   85SAPS   C34 8100   1.213   6.917   9.937 -0.8833 -0.8708  0.3248
   85SAPS   H4X 8101   1.281   6.891   9.853 -0.4235 -0.5328  0.5890
   85SAPS   H4Y 8102   1.278   6.913  10.026 -0.8409  2.4213  0.5829
   85SAPS   C35 8103   1.172   7.062   9.897 -0.3236 -0.1618  0.1369
   85SAPS   H5X 8104   1.094   7.086   9.972 -0.2367  0.4752  0.0260
   85SAPS   H5Y 8105   1.126   7.057   9.797  0.6925 -0.7674 -0.3226
   85SAPS   C36 8106   1.282   7.168   9.913 -0.1953  0.1037 -0.2487
   85SAPS   H6X 8107   1.309   7.183  10.020  1.1333  2.8182 -0.8880
   85SAPS   H6Y 8108   1.236   7.262   9.874 -0.0921  0.2888  0.0666
   85SAPS   C37 8109   1.413   7.155   9.826 -0.3206  0.3272 -0.3787
   85SAPS   H7X 8110   1.484   7.079   9.865  2.3999  2.2459 -1.3507
   85SAPS   H7Y 8111   1.487   7.235   9.848 -1.3957  0.6251  2.7224
   85SAPS   C38 8112   1.393   7.138   9.677  0.3679  0.1926  0.1189
   85SAPS   H8X 8113   1.357   7.233   9.634  0.5687  0.9199  1.5003
   85SAPS   H8Y 8114   1.315   7.063   9.652  0.1831  0.9257 -1.6427
   85SAPS   C39 8115   1.524   7.094   9.606  0.6714 -0.0782 -0.4476
   85SAPS   H9X 8116   1.563   6.998   9.647  0.6759 -0.4372 -1.2742
   85SAPS   H9Y 8117   1.599   7.172   9.632  1.8393 -1.2306 -0.2194
   85SAPS  C310 8118   1.503   7.073   9.458 -0.4823  0.1321  0.6226
   85SAPS  H10X 8119   1.469   7.169   9.413  0.2244 -0.9871 -2.5588
   85SAPS  H10Y 8120   1.426   6.998   9.429 -1.6895  0.8381  1.8862
   85SAPS  C311 8121   1.636   7.039   9.381 -0.2830 -0.0794  0.0308
   85SAPS  H11X 8122   1.681   6.949   9.427 -2.7539 -0.5937  1.6372
   85SAPS  H11Y 8123   1.698   7.132   9.386  2.1877 -1.5820 -0.9924
   85SAPS  C312 8124   1.618   7.027   9.231 -0.1656 -0.2373  0.2261
   85SAPS  H12X 8125   1.547   7.103   9.191 -1.1339 -2.0555 -1.7411
   85SAPS  H12Y 8126   1.564   6.933   9.205  1.1828 -0.6371 -1.3076
   85SAPS  C313 8127   1.753   7.024   9.153 -0.5118 -0.1550 -0.6011
   85SAPS  H13X 8128   1.815   6.956   9.216 -2.9219 -1.0907  0.9354
   85SAPS  H13Y 8129   1.794   7.126   9.162  0.3521 -0.5840  0.5298
   85SAPS  C314 8130   1.749   6.971   9.014 -0.1016  1.0351  0.2303
   85SAPS  H14X 8131   1.675   7.025   8.951 -0.0986  1.9402  0.9760
   85SAPS  H14Y 8132   1.706   6.869   9.013  1.1588  0.4785 -0.7449
   85SAPS  C315 8133   1.889   6.969   8.952  0.6094  0.1099 -0.3456
   85SAPS  H15X 8134   1.966   6.965   9.032 -1.1210  2.5326  1.5917
   85SAPS  H15Y 8135   1.892   7.068   8.902 -2.9530 -0.8841 -2.8845
   85SAPS  C316 8136   1.916   6.859   8.847  0.4558  0.3364  0.2264
   85SAPS  H16X 8137   1.882   6.761   8.888  2.2608 -0.5135 -0.1989
   85SAPS  H16Y 8138   2.023   6.845   8.820  0.3496 -0.6064  0.2411
   85SAPS  C317 8139   1.838   6.881   8.713 -0.1251  0.3571  0.2827
   85SAPS  H17X 8140   1.870   6.981   8.676  2.5951 -0.7335 -0.5773
   85SAPS  H17Y 8141   1.729   6.893   8.729 -0.7961 -0.8723 -2.7435
   85SAPS  C318 8142   1.877   6.784   8.603  0.5493  0.2212 -0.6172
   85SAPS  H18X 8143   1.858   6.817   8.499  3.6066  3.3195 -0.4091
   85SAPS  H18Y 8144   1.828   6.687   8.621 -3.1196  2.1492  0.7083
   85SAPS  H18Z 8145   1.986   6.772   8.620  0.0203 -0.9651  2.6103
   86SAPS     N 8146   4.029   5.041  11.169  0.0107  0.0597  0.6147
   86SAPS   HN1 8147   4.050   4.974  11.246 -0.1959 -0.4049  0.2742
   86SAPS   HN2 8148   4.032   5.139  11.205  0.5750  0.7032 -1.0777
   86SAPS   HN3 8149   3.935   5.033  11.125 -0.0618 -0.8321  0.9209
   86SAPS   C12 8150   4.131   5.025  11.065  0.0933  1.3089 -0.2769
   86SAPS  H12A 8151   4.227   5.047  11.108  0.5094 -0.1151 -0.4357
   86SAPS   C13 8152   4.137   4.880  10.996  0.7681 -0.5604 -0.0554
   86SAPS  O13A 8153   4.053   4.787  11.033 -0.1581  0.8434  0.1579
   86SAPS  O13B 8154   4.227   4.859  10.916 -0.2901  0.4270 -0.5482
   86SAPS   C11 8155   4.102   5.115  10.944  0.3873 -0.5195 -0.6511
   86SAPS  H11A 8156   4.000   5.082  10.915 -0.4512 -0.5352  2.0117
   86SAPS  H11B 8157   4.170   5.102  10.857  1.4766  2.1601 -0.3030
   86SAPS     P 8158   4.167   5.363  10.921 -0.5405 -0.2439 -0.3052
   86SAPS   O13 8159   4.128   5.500  10.962  0.1713  0.3267  0.2605
   86SAPS   O14 8160   4.309   5.319  10.940  0.4018 -0.2344  0.5774
   86SAPS   O12 8161   4.082   5.251  10.988 -0.2868 -0.0232 -0.3387
   86SAPS   O11 8162   4.134   5.346  10.767 -0.5400  0.8278  0.0828
   86SAPS    C1 8163   3.998   5.380  10.719  0.4351  0.3093  0.1719
   86SAPS    HA 8164   3.913   5.346  10.781 -1.0475  2.0177 -0.8267
   86SAPS    HB 8165   3.977   5.489  10.715 -1.7104 -0.1040 -1.4935
   86SAPS    C2 8166   3.983   5.353  10.559 -0.4232 -0.5966  0.3752
   86SAPS    HS 8167   3.981   5.242  10.547 -1.0282 -0.7034  1.3763
   86SAPS   O21 8168   4.095   5.423  10.497  0.1157  0.1522  0.1065
   86SAPS   C21 8169   4.135   5.380  10.375 -0.7051 -0.2550  0.4189
   86SAPS   O22 8170   4.085   5.291  10.311 -0.0160 -0.4202 -0.1125
   86SAPS   C22 8171   4.243   5.477  10.318 -0.6463  0.0278  0.5104
   86SAPS   H2R 8172   4.259   5.569  10.378  1.7326  0.1103 -0.1707
   86SAPS   H2S 8173   4.335   5.417  10.303 -1.4098 -0.7953 -1.2303
   86SAPS    C3 8174   3.851   5.405  10.502 -0.7527 -0.4349  0.1628
   86SAPS    HX 8175   3.835   5.499  10.558 -1.4825  0.7494 -1.9142
   86SAPS    HY 8176   3.779   5.324  10.526 -1.5451 -0.0744 -0.8909
   86SAPS   O31 8177   3.847   5.436  10.365  0.7693  0.2374 -0.1636
   86SAPS   C31 8178   3.784   5.362  10.287 -0.0861 -0.6947 -0.3767
   86SAPS   O32 8179   3.718   5.265  10.312  0.0140  0.3568 -0.2456
   86SAPS   C32 8180   3.789   5.422  10.143  0.0693 -0.2706 -0.5754
   86SAPS   H2X 8181   3.873   5.495  10.144  0.6030 -0.8605  1.1535
   86SAPS   H2Y 8182   3.683   5.457  10.139 -0.7184 -2.4518 -0.4668
   86SAPS   C23 8183   4.199   5.529  10.175 -0.9169 -0.4684  0.3903
   86SAPS   H3R 8184   4.102   5.582  10.185 -0.5498  0.9402 -2.3148
   86SAPS   H3S 8185   4.178   5.451  10.099 -0.1704  0.7414 -1.1473
   86SAPS   C24 8186   4.302   5.629  10.118  0.7622 -0.0663 -0.3844
   86SAPS   H4R 8187   4.318   5.698  10.204  0.0440 -0.3561 -0.0095
   86SAPS   H4S 8188   4.256   5.681  10.032  0.3868 -0.4235 -0.4015
   86SAPS   C25 8189   4.437   5.559  10.088  0.7393  0.5796 -0.4572
   86SAPS   H5R 8190   4.490   5.502  10.165 -0.4833 -2.9993 -2.0865
   86SAPS   C26 8191   4.488   5.572   9.965 -0.2692  0.1096  0.1562
   86SAPS   H6R 8192   4.577   5.514   9.938  0.4108  1.1087  0.1974
   86SAPS   C27 8193   4.438   5.653   9.850  0.1575 -0.0891  0.0265
   86SAPS   H7R 8194   4.389   5.746   9.887 -1.1968 -0.4643 -0.7448
   86SAPS   H7S 8195   4.365   5.605   9.782 -0.4203  1.6179 -0.6128
   86SAPS   C28 8196   4.550   5.703   9.770 -0.1032 -0.0971 -0.0230
   86SAPS   H8R 8197   4.606   5.790   9.808  0.3984 -0.2241 -0.4537
   86SAPS   C29 8198   4.589   5.664   9.648 -0.3889 -0.6501 -0.2278
   86SAPS   H9R 8199   4.681   5.713   9.614  0.0258 -0.2543  1.3850
   86SAPS  C210 8200   4.538   5.564   9.548  0.8777  0.5652  0.2820
   86SAPS  H10R 8201   4.484   5.624   9.471 -0.9528  0.0763  1.1206
   86SAPS  H10S 8202   4.471   5.497   9.606  0.8848 -0.6502 -1.0617
   86SAPS  C211 8203   4.647   5.483   9.490 -0.5445 -0.4624  0.8481
   86SAPS  H11R 8204   4.730   5.442   9.549  2.4677  1.3322 -1.7743
   86SAPS  C212 8205   4.664   5.461   9.358 -0.1123 -0.0811 -0.0777
   86SAPS  H12R 8206   4.750   5.400   9.327 -0.0528  0.7158 -1.5595
   86SAPS  C213 8207   4.573   5.517   9.251 -0.0031 -0.1711  0.4454
   86SAPS  H13R 8208   4.468   5.506   9.286  0.1493  1.0294  1.3758
   86SAPS  H13S 8209   4.590   5.456   9.160 -0.7659  1.0430 -0.5415
   86SAPS  C214 8210   4.594   5.662   9.217  0.0759  0.2511  0.5410
   86SAPS  H14R 8211   4.634   5.726   9.297  2.9363  0.5319 -0.9572
   86SAPS  C215 8212   4.566   5.718   9.097 -0.1560 -0.0164  0.2431
   86SAPS  H15R 8213   4.575   5.827   9.088 -1.9560  0.0075 -1.9604
   86SAPS  C216 8214   4.511   5.650   8.970 -0.9968 -0.5242 -0.3419
   86SAPS  H16R 8215   4.402   5.672   8.971 -0.5246  2.4112 -2.0104
   86SAPS  H16S 8216   4.516   5.539   8.979  2.5763 -0.4198  0.7228
   86SAPS  C217 8217   4.578   5.704   8.842 -0.0195  0.3207  0.6397
   86SAPS  H17R 8218   4.687   5.683   8.837 -0.5224 -2.4894 -1.3486
   86SAPS  H17S 8219   4.553   5.811   8.824 -0.2729  0.2931  0.8176
   86SAPS  C218 8220   4.528   5.637   8.717  0.2805 -0.2775  0.1733
   86SAPS  H18R 8221   4.421   5.664   8.705 -0.0205 -0.7836  1.5378
   86SAPS  H18S 8222   4.535   5.527   8.727  0.3569 -0.1629  1.5827
   86SAPS  C219 8223   4.594   5.702   8.594  0.6725  0.6154  0.7511
   86SAPS  H19R 8224   4.700   5.721   8.620  0.6940 -1.0270  1.9978
   86SAPS  H19S 8225   4.546   5.801   8.583 -0.5273 -0.1907 -2.3839
   86SAPS  C220 8226   4.583   5.627   8.459 -0.5089  0.7765  0.0261
   86SAPS  H20R 8227   4.606   5.696   8.376 -1.6313  2.3382  0.9583
   86SAPS  H20S 8228   4.485   5.576   8.448 -0.8430  0.9471  1.9520
   86SAPS  H20T 8229   4.654   5.541   8.459  0.1682  1.3196  0.7058
   86SAPS   C33 8230   3.815   5.318  10.034 -0.2047 -0.0009  0.9048
   86SAPS   H3X 8231   3.761   5.228  10.071 -2.3677  0.7198 -0.3467
   86SAPS   H3Y 8232   3.924   5.301  10.029 -0.1823  0.2772  0.3786
   86SAPS   C34 8233   3.762   5.357   9.896 -0.2534 -0.2471 -0.0756
   86SAPS   H4X 8234   3.785   5.463   9.873 -0.3009  0.5705  3.1984
   86SAPS   H4Y 8235   3.652   5.340   9.901 -0.0366 -1.8213  0.0617
   86SAPS   C35 8236   3.817   5.273   9.780  0.1054  0.3515  0.4286
   86SAPS   H5X 8237   3.776   5.172   9.798  3.0717 -0.7177  1.7682
   86SAPS   H5Y 8238   3.927   5.265   9.772 -0.1218 -2.0424 -1.1962
   86SAPS   C36 8239   3.761   5.317   9.641  0.1664 -0.5092 -0.0337
   86SAPS   H6X 8240   3.815   5.411   9.617  0.3569 -0.7760 -0.6596
   86SAPS   H6Y 8241   3.652   5.338   9.653  0.3704  0.2341  0.5860
   86SAPS   C37 8242   3.780   5.230   9.508 -0.1883 -0.8113  0.2180
   86SAPS   H7X 8243   3.725   5.134   9.519 -2.2476  0.1877 -0.8249
   86SAPS   H7Y 8244   3.885   5.199   9.492 -0.7239 -1.5923 -2.2647
   86SAPS   C38 8245   3.735   5.312   9.382  0.2688 -0.3223 -0.4256
   86SAPS   H8X 8246   3.792   5.406   9.366 -1.2692  0.6017 -0.6525
   86SAPS   H8Y 8247   3.628   5.340   9.391  0.3998  0.0796 -0.1311
   86SAPS   C39 8248   3.758   5.236   9.245  0.8558 -0.0365  0.4431
   86SAPS   H9X 8249   3.867   5.217   9.258  0.9558  1.2851  1.8900
   86SAPS   H9Y 8250   3.743   5.312   9.165  1.5322  0.9649  1.2493
   86SAPS  C310 8251   3.681   5.100   9.231 -0.1799 -0.5401 -0.1944
   86SAPS  H10X 8252   3.572   5.104   9.251 -0.3163 -2.2593 -0.4566
   86SAPS  H10Y 8253   3.730   5.025   9.297  1.6968  0.7233 -0.0666
   86SAPS  C311 8254   3.693   5.059   9.086  0.6551  0.0329  0.7087
   86SAPS  H11X 8255   3.795   5.083   9.049  1.3936 -2.4577  0.9929
   86SAPS  H11Y 8256   3.616   5.121   9.035  0.5753  0.6939  1.5933
   86SAPS  C312 8257   3.651   4.916   9.058  0.6761  0.3329  0.2285
   86SAPS  H12X 8258   3.578   4.901   9.140 -1.2887  5.8035 -0.1412
   86SAPS  H12Y 8259   3.737   4.845   9.060  0.4315 -0.0579 -1.2584
   86SAPS  C313 8260   3.587   4.899   8.918 -0.0665  0.0903  0.0440
   86SAPS  H13X 8261   3.673   4.929   8.854  1.7701  0.5545  2.5797
   86SAPS  H13Y 8262   3.499   4.966   8.921  0.1508  0.5087 -1.7292
   86SAPS  C314 8263   3.553   4.757   8.871 -1.1629  0.0495  0.0792
   86SAPS  H14X 8264   3.464   4.712   8.919 -2.4892 -3.4344 -4.9304
   86SAPS  H14Y 8265   3.639   4.698   8.910 -0.7888  0.9331  0.6351
   86SAPS  C315 8266   3.532   4.756   8.717  0.0408  0.6777 -0.0110
   86SAPS  H15X 8267   3.629   4.766   8.664 -0.2041 -1.1999 -0.9306
   86SAPS  H15Y 8268   3.466   4.839   8.686  0.6196  0.8982 -0.6740
   86SAPS  C316 8269   3.454   4.631   8.677 -0.3785 -0.3854  0.4962
   86SAPS  H16X 8270   3.366   4.627   8.744  0.7915 -1.5299  2.0318
   86SAPS  H16Y 8271   3.516   4.538   8.677 -1.0489 -0.8952 -1.7062
   86SAPS  C317 8272   3.422   4.642   8.530  0.2165  0.4709  0.3681
   86SAPS  H17X 8273   3.515   4.650   8.468 -0.5251 -1.5340 -1.1336
   86SAPS  H17Y 8274   3.359   4.733   8.527  0.1328  0.4496  1.4086
   86SAPS  C318 8275   3.333   4.527   8.482  0.8844 -0.9706 -0.4871
   86SAPS  H18X 8276   3.309   4.547   8.376  2.0914 -1.1689 -0.8191
   86SAPS  H18Y 8277   3.233   4.541   8.528  0.0519  1.1138 -2.7162
   86SAPS  H18Z 8278   3.378   4.427   8.504  1.2821 -0.6833  0.0318
   87SAPS     N 8279   4.681   0.530  10.971  0.4378 -0.4726 -0.5036
   87SAPS   HN1 8280   4.770   0.522  10.917  1.5625 -0.1304  1.2294
   87SAPS   HN2 8281   4.706   0.518  11.071 -4.1869 -2.2041  0.7151
   87SAPS   HN3 8282   4.626   0.447  10.940 -0.8713  0.7631 -1.6833
   87SAPS   C12 8283   4.614   0.658  10.926 -0.8353 -0.0233 -0.0926
   87SAPS  H12A 8284   4.587   0.645  10.822 -0.3587 -1.6027 -0.0380
   87SAPS   C13 8285   4.476   0.692  10.994  0.2205  1.0973 -0.2032
   87SAPS  O13A 8286   4.437   0.619  11.092 -0.0359  0.5267  0.2085
   87SAPS  O13B 8287   4.389   0.754  10.927 -0.7464 -0.4230  0.0896
   87SAPS   C11 8288   4.717   0.773  10.951  0.5625 -0.0635 -0.3309
   87SAPS  H11A 8289   4.731   0.787  11.061  0.3156 -0.5831 -0.2332
   87SAPS  H11B 8290   4.672   0.871  10.926  0.4070  0.1712  0.7918
   87SAPS     P 8291   4.900   0.848  10.778  0.0867  0.7597  0.6378
   87SAPS   O13 8292   4.949   0.971  10.843  0.1143 -0.4917  0.6477
   87SAPS   O14 8293   5.000   0.767  10.703  0.9531  0.2687 -0.7918
   87SAPS   O12 8294   4.845   0.754  10.888 -0.0462  0.0518  0.0507
   87SAPS   O11 8295   4.774   0.870  10.685  0.0579  0.1520 -0.0167
   87SAPS    C1 8296   4.721   0.757  10.604 -0.0404  0.2001  0.0931
   87SAPS    HA 8297   4.745   0.657  10.647 -2.7931 -0.5968 -0.0171
   87SAPS    HB 8298   4.611   0.769  10.614  0.0905  0.3728  1.5878
   87SAPS    C2 8299   4.755   0.772  10.454 -0.4689 -0.0058  0.6398
   87SAPS    HS 8300   4.850   0.714  10.450 -0.5910 -0.3187  1.8473
   87SAPS   O21 8301   4.769   0.912  10.426 -0.0694  0.2675  0.4019
   87SAPS   C21 8302   4.864   0.939  10.330 -0.6151  0.9298 -0.9393
   87SAPS   O22 8303   4.931   0.852  10.279 -0.1059 -0.2930 -0.0424
   87SAPS   C22 8304   4.845   1.079  10.279  0.6949 -1.1352  0.9819
   87SAPS   H2R 8305   4.771   1.082  10.196  0.3267  0.5599  1.3317
   87SAPS   H2S 8306   4.795   1.142  10.356  2.0299  0.3388  0.6806
   87SAPS    C3 8307   4.659   0.705  10.353  0.1486 -0.0161 -0.1462
   87SAPS    HX 8308   4.556   0.746  10.346  0.0065 -0.5695 -1.7882
   87SAPS    HY 8309   4.639   0.602  10.392  0.2689 -0.3675 -0.9883
   87SAPS   O31 8310   4.711   0.708  10.219 -0.2838  0.1661 -0.1626
   87SAPS   C31 8311   4.780   0.602  10.183 -0.2830  0.8242  0.5652
   87SAPS   O32 8312   4.791   0.498  10.244  0.7713  0.5322 -0.6580
   87SAPS   C32 8313   4.819   0.617  10.033 -0.1947  0.2354  0.5875
   87SAPS   H2X 8314   4.928   0.627  10.015 -0.5483  0.8433 -1.4486
   87SAPS   H2Y 8315   4.762   0.699   9.984 -0.8420 -1.3931 -1.5429
   87SAPS   C23 8316   4.974   1.152  10.242 -0.6136 -0.0797  0.6854
   87SAPS   H3R 8317   5.061   1.091  10.277  1.0179  1.9787  0.4106
   87SAPS   H3S 8318   4.981   1.246  10.300 -1.8864  0.4696 -0.0077
   87SAPS   C24 8319   4.999   1.189  10.095  0.1769  0.7053  0.4935
   87SAPS   H4R 8320   4.987   1.093  10.041 -1.9976  1.2013  0.0137
   87SAPS   H4S 8321   5.105   1.217  10.076  1.2772 -1.6257  2.6326
   87SAPS   C25 8322   4.905   1.298  10.055  0.2144  0.1544 -0.4510
   87SAPS   H5R 8323   4.842   1.334  10.138  0.7898 -0.2315  0.1653
   87SAPS   C26 8324   4.884   1.342   9.925  0.2289 -0.3956 -0.2250
   87SAPS   H6R 8325   4.825   1.434   9.917  1.7811  0.9119  2.1637
   87SAPS   C27 8326   4.955   1.293   9.798 -0.4303 -0.1859  0.6360
   87SAPS   H7R 8327   4.875   1.288   9.721 -0.1546  1.7783  0.1740
   87SAPS   H7S 8328   4.996   1.190   9.811  0.1758 -0.3354 -1.9936
   87SAPS   C28 8329   5.061   1.382   9.736 -0.0228 -0.1572  0.6158
   87SAPS   H8R 8330   5.127   1.430   9.810  1.8526 -1.8367  0.0954
   87SAPS   C29 8331   5.091   1.402   9.606  0.0430 -0.3584  0.6577
   87SAPS   H9R 8332   5.176   1.468   9.584 -0.3494  0.1145  0.5371
   87SAPS  C210 8333   5.024   1.345   9.488  0.1878  0.2992  0.4641
   87SAPS  H10R 8334   4.914   1.331   9.495 -0.3905  1.5866 -3.7468
   87SAPS  H10S 8335   5.063   1.244   9.462  1.2199  1.1287 -1.3670
   87SAPS  C211 8336   5.032   1.442   9.378 -0.6797  0.2416  0.1386
   87SAPS  H11R 8337   5.032   1.549   9.405  0.3118 -0.2162  2.1181
   87SAPS  C212 8338   5.043   1.410   9.245 -0.3100  0.2131 -0.2070
   87SAPS  H12R 8339   5.052   1.488   9.168  3.4451 -0.7786 -0.9938
   87SAPS  C213 8340   5.041   1.264   9.208  0.8719  0.6936 -0.0488
   87SAPS  H13R 8341   4.961   1.210   9.262 -0.0921  2.0101 -0.1040
   87SAPS  H13S 8342   5.130   1.209   9.247  0.0774 -0.1142  0.6543
   87SAPS  C214 8343   5.034   1.251   9.056  0.3292  0.5873  0.3068
   87SAPS  H14R 8344   4.938   1.214   9.018  0.3603 -1.1557  1.7629
   87SAPS  C215 8345   5.131   1.273   8.968 -0.1225  0.0953  0.0593
   87SAPS  H15R 8346   5.099   1.260   8.863 -1.6067  0.9978  0.3736
   87SAPS  C216 8347   5.275   1.311   9.003  0.7998 -0.7806 -0.3956
   87SAPS  H16R 8348   5.305   1.292   9.108  2.6538 -0.9270 -0.9212
   87SAPS  H16S 8349   5.289   1.420   8.989  5.0147 -1.3209 -1.4976
   87SAPS  C217 8350   5.389   1.253   8.918 -0.1945  0.2423 -0.0868
   87SAPS  H17R 8351   5.378   1.142   8.914  0.3866  0.2093 -1.1623
   87SAPS  H17S 8352   5.477   1.275   8.982  0.1121 -0.5145 -0.2378
   87SAPS  C218 8353   5.398   1.312   8.771 -0.4960 -0.4454 -0.1300
   87SAPS  H18R 8354   5.301   1.327   8.719 -1.2947  2.2838  1.9150
   87SAPS  H18S 8355   5.476   1.252   8.719 -0.4845 -1.4234  0.9759
   87SAPS  C219 8356   5.465   1.449   8.762 -0.3458  0.0660 -0.6516
   87SAPS  H19R 8357   5.557   1.458   8.824 -0.3404  1.9243 -0.8750
   87SAPS  H19S 8358   5.397   1.510   8.825  1.9253  0.6759  1.3524
   87SAPS  C220 8359   5.501   1.492   8.626  0.6903 -0.4488 -0.1606
   87SAPS  H20R 8360   5.534   1.598   8.620  0.1631 -0.2660  0.0717
   87SAPS  H20S 8361   5.426   1.471   8.547  1.2933 -2.7210 -0.1811
   87SAPS  H20T 8362   5.594   1.438   8.597  1.1797 -0.0975  0.7171
   87SAPS   C33 8363   4.759   0.501   9.952  0.3586  0.1401  0.0305
   87SAPS   H3X 8364   4.661   0.469   9.995  1.8239 -2.7009  1.5897
   87SAPS   H3Y 8365   4.825   0.413   9.968  1.5756  1.3419  1.9224
   87SAPS   C34 8366   4.753   0.520   9.794  0.1104  0.3961 -0.3700
   87SAPS   H4X 8367   4.852   0.545   9.752  0.4686  0.1065  0.2828
   87SAPS   H4Y 8368   4.688   0.607   9.769  2.1407  1.9774 -0.3774
   87SAPS   C35 8369   4.696   0.391   9.733  0.8554 -0.1771  0.4700
   87SAPS   H5X 8370   4.597   0.377   9.781  0.4800 -0.1953 -0.2910
   87SAPS   H5Y 8371   4.752   0.300   9.761  0.1437 -0.6156  0.4991
   87SAPS   C36 8372   4.693   0.391   9.579  0.4910 -0.2917 -0.1536
   87SAPS   H6X 8373   4.788   0.425   9.533 -0.6824  3.2083 -0.3015
   87SAPS   H6Y 8374   4.623   0.474   9.553 -0.2049 -0.9151 -0.3020
   87SAPS   C37 8375   4.624   0.263   9.531  0.4000 -0.0166  0.1564
   87SAPS   H7X 8376   4.537   0.232   9.593 -0.4249 -1.5863 -1.6657
   87SAPS   H7Y 8377   4.700   0.183   9.546  0.4272  0.1532  0.9827
   87SAPS   C38 8378   4.583   0.270   9.383 -0.0819 -0.1694 -0.2551
   87SAPS   H8X 8379   4.511   0.354   9.379 -0.8268 -0.7464  0.4549
   87SAPS   H8Y 8380   4.527   0.179   9.351  0.5394 -0.8390  0.5375
   87SAPS   C39 8381   4.700   0.278   9.280  0.5227  0.3928  0.0459
   87SAPS   H9X 8382   4.776   0.200   9.301 -1.7247 -1.8443  0.3796
   87SAPS   H9Y 8383   4.755   0.374   9.292 -0.9257  1.1809  0.6204
   87SAPS  C310 8384   4.639   0.268   9.136 -0.5524  0.2621  0.4784
   87SAPS  H10X 8385   4.580   0.361   9.124 -0.5885 -0.0357 -2.2352
   87SAPS  H10Y 8386   4.573   0.179   9.138 -0.6571  0.2365  4.5430
   87SAPS  C311 8387   4.735   0.256   9.021  0.2723  0.2529  0.1896
   87SAPS  H11X 8388   4.797   0.165   9.029  0.9288  0.2717 -3.1544
   87SAPS  H11Y 8389   4.810   0.336   9.040 -0.3235  0.4508  1.8621
   87SAPS  C312 8390   4.671   0.268   8.878  0.0861  0.2552  0.5303
   87SAPS  H12X 8391   4.624   0.368   8.867 -1.9287 -0.7502 -0.3745
   87SAPS  H12Y 8392   4.599   0.184   8.876  0.8371 -0.3910 -0.0342
   87SAPS  C313 8393   4.779   0.263   8.775  0.0555  0.2589  0.6879
   87SAPS  H13X 8394   4.836   0.167   8.778 -0.3466 -0.1143 -1.8022
   87SAPS  H13Y 8395   4.856   0.342   8.787 -1.2552  1.7932 -0.6451
   87SAPS  C314 8396   4.727   0.282   8.632 -0.2584 -0.0956  0.7216
   87SAPS  H14X 8397   4.661   0.370   8.618 -0.1809 -0.4684 -2.7593
   87SAPS  H14Y 8398   4.656   0.201   8.605 -1.4857  1.7791 -2.1104
   87SAPS  C315 8399   4.844   0.292   8.529  0.0963  0.3856  0.1847
   87SAPS  H15X 8400   4.921   0.213   8.541  1.3775  1.2085 -2.0032
   87SAPS  H15Y 8401   4.891   0.387   8.563 -0.5795  1.8343 -2.6563
   87SAPS  C316 8402   4.791   0.296   8.388 -0.0181 -0.5867 -0.1886
   87SAPS  H16X 8403   4.726   0.385   8.373  1.2829  0.2113 -1.3090
   87SAPS  H16Y 8404   4.737   0.200   8.370  0.7177 -1.1642  0.5996
   87SAPS  C317 8405   4.891   0.323   8.279 -0.1350 -0.1222 -0.6165
   87SAPS  H17X 8406   4.961   0.239   8.300  0.1459  0.4213  0.7913
   87SAPS  H17Y 8407   4.950   0.414   8.303 -0.5926  0.4826 -1.7400
   87SAPS  C318 8408   4.836   0.337   8.142  0.5531  0.7037  0.8984
   87SAPS  H18X 8409   4.917   0.364   8.071  1.7961  1.4052  2.5225
   87SAPS  H18Y 8410   4.765   0.421   8.129  0.0323  0.1477 -0.0163
   87SAPS  H18Z 8411   4.774   0.248   8.116  2.3275 -0.5064  0.6461
   88SAPS     N 8412   4.502   4.855  11.012  0.4931 -0.2162  0.2168
   88SAPS   HN1 8413   4.526   4.955  11.027 -1.5191  0.0560  2.0754
   88SAPS   HN2 8414   4.550   4.823  10.925  0.6934  0.5561  0.0357
   88SAPS   HN3 8415   4.400   4.854  10.992  0.9201 -0.5492 -2.3876
   88SAPS   C12 8416   4.543   4.776  11.129  0.6077 -0.8224 -0.1270
   88SAPS  H12A 8417   4.650   4.769  11.142  0.6086 -0.7135 -0.0764
   88SAPS   C13 8418   4.476   4.827  11.258 -0.6379 -0.1682 -0.6454
   88SAPS  O13A 8419   4.385   4.912  11.260 -0.6043  0.7499 -0.0070
   88SAPS  O13B 8420   4.492   4.761  11.365  0.6810  0.0687  0.3773
   88SAPS   C11 8421   4.503   4.630  11.108 -0.3197 -0.2204  0.5023
   88SAPS  H11A 8422   4.394   4.629  11.082 -0.5315  1.1235  1.2928
   88SAPS  H11B 8423   4.520   4.569  11.200 -1.3085  0.6883  1.3094
   88SAPS     P 8424   4.531   4.427  10.941 -0.5132  0.1062 -0.1704
   88SAPS   O13 8425   4.652   4.365  10.888 -0.3247 -0.3418  0.1543
   88SAPS   O14 8426   4.462   4.346  11.038 -0.2895 -0.0371  0.2460
   88SAPS   O12 8427   4.571   4.575  10.998 -0.3385  0.5967 -0.2928
   88SAPS   O11 8428   4.427   4.461  10.825 -0.1567  0.2586 -0.4736
   88SAPS    C1 8429   4.466   4.551  10.727  0.0109 -0.3565  0.1997
   88SAPS    HA 8430   4.389   4.630  10.720  0.7956  0.3253 -1.2637
   88SAPS    HB 8431   4.560   4.610  10.737  1.5404 -2.7061  0.5349
   88SAPS    C2 8432   4.470   4.493  10.579  0.1057 -0.0695 -0.6769
   88SAPS    HS 8433   4.503   4.578  10.516  0.6588  0.4074  0.2471
   88SAPS   O21 8434   4.339   4.449  10.540 -0.1098  0.1887 -0.2491
   88SAPS   C21 8435   4.245   4.534  10.514  0.2817 -0.1842  0.3797
   88SAPS   O22 8436   4.253   4.657  10.523 -0.1479 -0.0428  0.3757
   88SAPS   C22 8437   4.114   4.477  10.462 -0.4738  0.2863 -0.0616
   88SAPS   H2R 8438   4.131   4.375  10.421  0.3512  0.5608 -0.4231
   88SAPS   H2S 8439   4.037   4.471  10.542 -1.8780  0.6068 -1.3298
   88SAPS    C3 8440   4.571   4.380  10.563  0.1747 -0.0776  0.1499
   88SAPS    HX 8441   4.536   4.299  10.630 -0.4967 -0.6524 -0.8684
   88SAPS    HY 8442   4.675   4.410  10.590  0.1176 -0.9722  1.4719
   88SAPS   O31 8443   4.570   4.321  10.430 -0.2009  0.4988 -0.1759
   88SAPS   C31 8444   4.627   4.389  10.334 -0.0725 -0.0414  0.3894
   88SAPS   O32 8445   4.686   4.494  10.343 -0.3301 -0.5790 -0.1095
   88SAPS   C32 8446   4.610   4.311  10.203 -0.8138 -0.2406  0.0865
   88SAPS   H2X 8447   4.515   4.346  10.158  0.0321  0.2251 -1.4124
   88SAPS   H2Y 8448   4.613   4.201  10.221 -0.0556  0.1105  2.4938
   88SAPS   C23 8449   4.043   4.554  10.349 -0.3719 -0.5698 -0.0560
   88SAPS   H3R 8450   4.035   4.660  10.382 -2.5596 -1.4015  2.3481
   88SAPS   H3S 8451   3.942   4.509  10.346 -0.8110  0.4079 -0.5351
   88SAPS   C24 8452   4.102   4.538  10.207  0.1361 -0.0219  0.5806
   88SAPS   H4R 8453   4.031   4.572  10.128  0.6092  0.2299  0.2573
   88SAPS   H4S 8454   4.123   4.430  10.192 -2.3006 -0.9917  3.0843
   88SAPS   C25 8455   4.230   4.616  10.195  0.3450 -0.0190 -0.6231
   88SAPS   H5R 8456   4.246   4.698  10.267 -2.2553 -0.1211  0.1441
   88SAPS   C26 8457   4.321   4.607  10.100 -0.1393 -0.3123  1.3822
   88SAPS   H6R 8458   4.417   4.661  10.102  0.3380 -0.9355 -1.1550
   88SAPS   C27 8459   4.304   4.535   9.967 -0.1321  0.3142  0.1016
   88SAPS   H7R 8460   4.234   4.456  10.002 -0.5448  0.2308 -0.8787
   88SAPS   H7S 8461   4.398   4.480   9.945  0.6963  2.0510 -0.9370
   88SAPS   C28 8462   4.251   4.597   9.839  0.1651  0.6108  0.3963
   88SAPS   H8R 8463   4.149   4.578   9.802  0.5198 -0.1524 -0.2043
   88SAPS   C29 8464   4.312   4.694   9.769  0.2011  0.3597  0.0114
   88SAPS   H9R 8465   4.271   4.732   9.674  0.5041  1.0732  0.1579
   88SAPS  C210 8466   4.452   4.747   9.801  0.6134 -0.3503  0.0296
   88SAPS  H10R 8467   4.447   4.796   9.901 -0.6450  0.2495 -0.2965
   88SAPS  H10S 8468   4.460   4.840   9.741 -1.8240  0.9231  1.4936
   88SAPS  C211 8469   4.576   4.656   9.786  0.2835 -0.4116 -0.2816
   88SAPS  H11R 8470   4.626   4.632   9.881  1.4895 -0.2410 -0.8536
   88SAPS  C212 8471   4.638   4.612   9.680  0.4703 -0.1215 -0.0273
   88SAPS  H12R 8472   4.727   4.551   9.702  0.8090  0.6040  0.6427
   88SAPS  C213 8473   4.606   4.644   9.536  0.3799  0.0933  0.4119
   88SAPS  H13R 8474   4.695   4.679   9.480 -0.3913 -0.9584 -1.6050
   88SAPS  H13S 8475   4.542   4.735   9.537  0.6133  0.2623  0.0448
   88SAPS  C214 8476   4.534   4.531   9.467  0.2385  0.7362  0.0542
   88SAPS  H14R 8477   4.467   4.470   9.529  1.4871 -1.6419 -0.8027
   88SAPS  C215 8478   4.554   4.484   9.340  0.1292  0.4007 -0.3575
   88SAPS  H15R 8479   4.510   4.387   9.312  0.4030  0.3358 -0.5555
   88SAPS  C216 8480   4.648   4.542   9.242 -0.3265 -0.0811 -0.0991
   88SAPS  H16R 8481   4.716   4.461   9.208 -1.0268 -0.6226 -0.2212
   88SAPS  H16S 8482   4.701   4.627   9.291  0.5703 -1.8250  2.1113
   88SAPS  C217 8483   4.583   4.579   9.114  0.2932 -0.1510 -0.2697
   88SAPS  H17R 8484   4.514   4.664   9.133  2.0980  1.4298 -0.5088
   88SAPS  H17S 8485   4.521   4.495   9.077  1.3438 -1.9487  1.8481
   88SAPS  C218 8486   4.680   4.620   9.002 -0.0109 -0.6117  0.5158
   88SAPS  H18R 8487   4.759   4.545   8.983  1.3177  0.8047  0.2466
   88SAPS  H18S 8488   4.717   4.722   9.026 -1.1053 -0.1029  0.0766
   88SAPS  C219 8489   4.607   4.640   8.864 -0.0813  0.6261 -0.3925
   88SAPS  H19R 8490   4.506   4.680   8.887  0.0209 -0.2922  1.8654
   88SAPS  H19S 8491   4.605   4.539   8.817  4.2840  0.3277 -0.3909
   88SAPS  C220 8492   4.677   4.737   8.767  0.2223 -0.2217  0.1421
   88SAPS  H20R 8493   4.694   4.835   8.815  0.1661 -0.3115  0.3497
   88SAPS  H20S 8494   4.617   4.745   8.674  1.1268  0.7134 -0.3837
   88SAPS  H20T 8495   4.775   4.699   8.730 -0.0459 -1.2674  0.4453
   88SAPS   C33 8496   4.718   4.348  10.096 -0.4671 -0.2109  0.2196
   88SAPS   H3X 8497   4.810   4.290  10.121 -0.3227 -0.3896 -0.7034
   88SAPS   H3Y 8498   4.748   4.454  10.102 -3.1509  0.5974  0.5159
   88SAPS   C34 8499   4.679   4.308   9.955  0.3434  0.1415  0.3481
   88SAPS   H4X 8500   4.623   4.390   9.906  0.9095  0.3511  0.0438
   88SAPS   H4Y 8501   4.598   4.231   9.956 -0.0976  0.6006  0.3654
   88SAPS   C35 8502   4.804   4.283   9.860 -0.0912  0.4713 -0.1755
   88SAPS   H5X 8503   4.871   4.209   9.908 -3.7166 -1.8858  1.7346
   88SAPS   H5Y 8504   4.862   4.376   9.842 -2.2469  1.9618  0.1897
   88SAPS   C36 8505   4.774   4.225   9.724  0.5219  0.0559 -0.2614
   88SAPS   H6X 8506   4.687   4.279   9.681  0.6621  0.1496 -0.4317
   88SAPS   H6Y 8507   4.742   4.119   9.735  0.1829 -0.0696 -2.0785
   88SAPS   C37 8508   4.885   4.240   9.618  0.2625  0.0755 -0.3660
   88SAPS   H7X 8509   4.961   4.170   9.659 -0.4144  0.7531  2.1838
   88SAPS   H7Y 8510   4.922   4.345   9.627  0.8516 -0.2536  1.3994
   88SAPS   C38 8511   4.836   4.197   9.485 -0.5255 -0.6994  0.2830
   88SAPS   H8X 8512   4.731   4.234   9.487  0.3161  1.8913  1.1916
   88SAPS   H8Y 8513   4.834   4.088   9.464  1.5536 -0.1582 -3.4034
   88SAPS   C39 8514   4.898   4.274   9.371  0.0918  0.2572 -0.1244
   88SAPS   H9X 8515   5.009   4.266   9.373  0.0066 -1.9530 -0.6011
   88SAPS   H9Y 8516   4.883   4.383   9.383 -0.3739  0.4762 -2.3187
   88SAPS  C310 8517   4.855   4.230   9.237 -0.3983  0.2840  0.8145
   88SAPS  H10X 8518   4.745   4.236   9.221 -0.8114 -0.1772  3.0918
   88SAPS  H10Y 8519   4.882   4.123   9.225 -0.5176  0.2255  1.0553
   88SAPS  C311 8520   4.935   4.294   9.122 -0.1553 -0.6507  0.4236
   88SAPS  H11X 8521   5.044   4.298   9.142 -0.0652  0.8185 -0.2683
   88SAPS  H11Y 8522   4.889   4.391   9.093 -3.8793 -2.2566  0.3023
   88SAPS  C312 8523   4.922   4.209   8.993 -0.4953 -0.9148  0.8603
   88SAPS  H12X 8524   4.822   4.169   8.967 -0.1476 -0.1274 -2.0687
   88SAPS  H12Y 8525   4.995   4.126   9.002  2.5090  1.3813 -0.6886
   88SAPS  C313 8526   4.988   4.290   8.872  0.1809  0.6438 -0.0825
   88SAPS  H13X 8527   5.090   4.320   8.902  0.0414  0.1969  0.8603
   88SAPS  H13Y 8528   4.928   4.381   8.851  0.1189  0.6936  0.3066
   88SAPS  C314 8529   4.998   4.209   8.728  0.4504  0.5584 -0.6060
   88SAPS  H14X 8530   5.060   4.120   8.752 -0.4753 -0.1806 -0.9173
   88SAPS  H14Y 8531   5.059   4.274   8.662  0.5390  0.8352 -0.2592
   88SAPS  C315 8532   4.874   4.154   8.672  0.0500  0.0863  0.5134
   88SAPS  H15X 8533   4.857   4.060   8.730  0.2100  1.5144  2.9979
   88SAPS  H15Y 8534   4.895   4.114   8.571  0.7931 -1.2033  1.1446
   88SAPS  C316 8535   4.758   4.258   8.666  0.3729  0.2956  0.6938
   88SAPS  H16X 8536   4.796   4.355   8.629  1.5631 -0.3816  0.0759
   88SAPS  H16Y 8537   4.729   4.278   8.771  2.5910  1.9913  1.0342
   88SAPS  C317 8538   4.640   4.215   8.586  0.3729  0.5041 -0.0038
   88SAPS  H17X 8539   4.593   4.129   8.638  0.3186  1.7194  2.0891
   88SAPS  H17Y 8540   4.687   4.183   8.491 -0.4007 -1.3074  0.1833
   88SAPS  C318 8541   4.519   4.313   8.569 -0.3660 -0.9016  0.6489
   88SAPS  H18X 8542   4.428   4.254   8.545 -1.0668  0.7598 -1.1145
   88SAPS  H18Y 8543   4.524   4.387   8.486 -0.9026  1.0047  2.2468
   88SAPS  H18Z 8544   4.505   4.360   8.668  0.4690  0.2209  0.2578
   89SAPS     N 8545   6.563   0.399  10.893  0.4093 -0.0589 -0.2819
   89SAPS   HN1 8546   6.611   0.481  10.851 -1.6201  0.7771 -1.0955
   89SAPS   HN2 8547   6.645   0.353  10.939  0.2368  1.2022  1.3449
   89SAPS   HN3 8548   6.533   0.331  10.820 -0.8570  0.5620 -0.3481
   89SAPS   C12 8549   6.442   0.431  10.972  0.1818 -0.8048 -0.0050
   89SAPS  H12A 8550   6.409   0.336  11.011  1.0034 -0.7006  1.0122
   89SAPS   C13 8551   6.441   0.535  11.087  0.6690  0.0228 -0.2380
   89SAPS  O13A 8552   6.530   0.614  11.107  0.3874 -0.0511 -0.2295
   89SAPS  O13B 8553   6.342   0.515  11.168 -0.2650 -0.3711  0.1677
   89SAPS   C11 8554   6.333   0.474  10.872 -1.6147 -0.3563 -0.7126
   89SAPS  H11A 8555   6.369   0.563  10.816  1.2147 -0.7415  0.3056
   89SAPS  H11B 8556   6.242   0.491  10.933 -0.5570  0.1446  0.7695
   89SAPS     P 8557   6.217   0.399  10.652 -0.1311  0.4464  0.0932
   89SAPS   O13 8558   6.195   0.280  10.574  0.1512  0.3837  0.2417
   89SAPS   O14 8559   6.108   0.489  10.691  0.5166 -0.1023  0.0185
   89SAPS   O12 8560   6.305   0.365  10.786  0.1255 -0.3469  0.0870
   89SAPS   O11 8561   6.327   0.476  10.566  0.2633  0.2653  0.1156
   89SAPS    C1 8562   6.411   0.397  10.484  0.5786  0.5088 -0.6218
   89SAPS    HA 8563   6.445   0.303  10.533  2.2937  1.0157 -0.7501
   89SAPS    HB 8564   6.364   0.369  10.388 -1.9535  0.0668  0.6689
   89SAPS    C2 8565   6.549   0.469  10.445  0.6591  0.4372 -0.5462
   89SAPS    HS 8566   6.597   0.483  10.544  1.3263  0.2225 -0.8339
   89SAPS   O21 8567   6.525   0.595  10.387  0.0366 -0.2679 -0.8044
   89SAPS   C21 8568   6.620   0.681  10.388 -0.7553 -0.1905 -0.4184
   89SAPS   O22 8569   6.729   0.667  10.441  0.4878 -0.4198  0.0908
   89SAPS   C22 8570   6.587   0.807  10.306 -0.4313 -0.5669 -0.6414
   89SAPS   H2R 8571   6.497   0.789  10.244 -0.7697  0.7302 -0.5622
   89SAPS   H2S 8572   6.573   0.898  10.369  2.1197  0.4694 -1.4324
   89SAPS    C3 8573   6.634   0.373  10.353  0.8958  0.1123 -0.7068
   89SAPS    HX 8574   6.665   0.276  10.397  1.2123  0.6914  0.3797
   89SAPS    HY 8575   6.730   0.422  10.325  0.7927  0.5290 -0.3508
   89SAPS   O31 8576   6.555   0.336  10.239  0.5449  0.0758 -0.1956
   89SAPS   C31 8577   6.570   0.407  10.128  0.3008 -0.8923  1.3690
   89SAPS   O32 8578   6.661   0.485  10.108 -0.8447 -0.9629 -0.2135
   89SAPS   C32 8579   6.457   0.377  10.030  0.4058 -0.5838 -0.1455
   89SAPS   H2X 8580   6.391   0.302  10.079 -1.1634  0.4142 -0.6553
   89SAPS   H2Y 8581   6.497   0.334   9.936  1.6353  2.2912 -1.0339
   89SAPS   C23 8582   6.704   0.836  10.212 -0.2159 -0.3904  0.7982
   89SAPS   H3R 8583   6.728   0.738  10.165  0.6736 -0.8665  2.1722
   89SAPS   H3S 8584   6.788   0.873  10.275 -0.3417  1.3830 -0.0386
   89SAPS   C24 8585   6.672   0.924  10.092 -0.0740 -0.5337  0.4225
   89SAPS   H4R 8586   6.633   1.022  10.127 -0.0078 -0.0760 -0.7184
   89SAPS   H4S 8587   6.588   0.869  10.046 -0.4712 -0.9975  1.6901
   89SAPS   C25 8588   6.782   0.955   9.984 -0.4079 -0.3314  0.2190
   89SAPS   H5R 8589   6.860   1.028  10.011  0.2682 -1.6060  1.9550
   89SAPS   C26 8590   6.794   0.886   9.869 -0.1209 -0.3123  0.2198
   89SAPS   H6R 8591   6.879   0.908   9.803 -0.0984 -1.4791 -0.1632
   89SAPS   C27 8592   6.697   0.783   9.824  0.2505 -0.1814 -0.1016
   89SAPS   H7R 8593   6.621   0.840   9.766  1.6573  0.9929 -0.8682
   89SAPS   H7S 8594   6.631   0.742   9.904 -2.8310  2.4402 -1.0501
   89SAPS   C28 8595   6.769   0.663   9.771  0.5137 -0.0370  0.4036
   89SAPS   H8R 8596   6.806   0.598   9.852  0.9975 -0.5591 -0.2268
   89SAPS   C29 8597   6.799   0.641   9.641 -0.2751 -0.7817  0.8891
   89SAPS   H9R 8598   6.851   0.551   9.605 -1.8630 -1.2150 -0.4491
   89SAPS  C210 8599   6.752   0.728   9.522 -0.1561 -0.4790 -0.0134
   89SAPS  H10R 8600   6.649   0.769   9.532  0.3232  0.7432  0.1650
   89SAPS  H10S 8601   6.738   0.666   9.431  1.1690 -1.2849  0.3072
   89SAPS  C211 8602   6.855   0.832   9.508 -0.1756 -0.3155  0.1981
   89SAPS  H11R 8603   6.863   0.904   9.591  1.7031 -2.4996  2.0589
   89SAPS  C212 8604   6.941   0.843   9.403 -0.1685 -0.2717 -0.5945
   89SAPS  H12R 8605   7.002   0.934   9.398 -2.3044  1.4535  1.9441
   89SAPS  C213 8606   6.960   0.761   9.277  0.3247 -0.3795  0.0861
   89SAPS  H13R 8607   6.888   0.676   9.283 -0.3305  0.0406 -1.3964
   89SAPS  H13S 8608   7.062   0.719   9.281 -0.2726 -2.0437 -1.1530
   89SAPS  C214 8609   6.927   0.837   9.149  0.0195  0.5605  0.0345
   89SAPS  H14R 8610   6.824   0.876   9.155  0.0881  0.8156 -0.3787
   89SAPS  C215 8611   7.005   0.869   9.037 -0.7828 -0.5756 -0.0587
   89SAPS  H15R 8612   6.962   0.921   8.950  0.1782  2.3375  1.0645
   89SAPS  C216 8613   7.151   0.834   9.021 -0.1699 -1.1250  0.6724
   89SAPS  H16R 8614   7.179   0.748   9.085 -0.8528 -1.8308  0.0418
   89SAPS  H16S 8615   7.209   0.928   9.035 -1.4666 -0.5954  3.2175
   89SAPS  C217 8616   7.170   0.789   8.870  0.3451 -0.2473  0.1943
   89SAPS  H17R 8617   7.121   0.850   8.791 -1.5562 -1.3560  0.4503
   89SAPS  H17S 8618   7.129   0.688   8.848  0.9644 -0.5198  0.2661
   89SAPS  C218 8619   7.321   0.773   8.832  0.0106  0.5390 -0.4128
   89SAPS  H18R 8620   7.370   0.719   8.916 -1.9608  0.3738  0.6872
   89SAPS  H18S 8621   7.365   0.875   8.822  0.4308  0.1360 -3.4548
   89SAPS  C219 8622   7.347   0.697   8.702 -0.1289  0.4386  0.3153
   89SAPS  H19R 8623   7.318   0.752   8.610 -2.0614 -0.5804  0.2774
   89SAPS  H19S 8624   7.289   0.602   8.703  0.5883 -0.0182 -0.5580
   89SAPS  C220 8625   7.496   0.663   8.701  0.0859 -0.1109  0.3096
   89SAPS  H20R 8626   7.554   0.753   8.729  0.2400  0.4297 -1.6112
   89SAPS  H20S 8627   7.517   0.624   8.599 -0.3458 -1.2602  0.6407
   89SAPS  H20T 8628   7.519   0.586   8.778 -1.1001  0.2232  1.0283
   89SAPS   C33 8629   6.389   0.512  10.005  1.1624 -0.2934  0.7873
   89SAPS   H3X 8630   6.453   0.600   9.982  0.1703 -0.4800 -3.4839
   89SAPS   H3Y 8631   6.320   0.529  10.090  2.5493 -0.2043  1.9473
   89SAPS   C34 8632   6.297   0.508   9.883 -0.2168 -0.0849  0.2454
   89SAPS   H4X 8633   6.237   0.599   9.865 -0.2979 -0.6540 -3.1196
   89SAPS   H4Y 8634   6.228   0.422   9.894 -0.6496  0.3654  1.0573
   89SAPS   C35 8635   6.366   0.484   9.745  0.3419 -0.3620 -0.0684
   89SAPS   H5X 8636   6.421   0.388   9.728  1.0601 -0.2384  1.4301
   89SAPS   H5Y 8637   6.445   0.561   9.731 -0.3732  0.3190 -0.4623
   89SAPS   C36 8638   6.263   0.498   9.633 -0.4150  0.0291 -0.3552
   89SAPS   H6X 8639   6.238   0.606   9.627  3.7047  1.1309 -1.2064
   89SAPS   H6Y 8640   6.167   0.453   9.665  0.3383  0.8482  3.5827
   89SAPS   C37 8641   6.310   0.452   9.491 -0.3960  0.5258 -0.0226
   89SAPS   H7X 8642   6.328   0.342   9.494 -0.1534  0.5494 -0.4972
   89SAPS   H7Y 8643   6.406   0.502   9.468  0.1677  0.4914  2.0557
   89SAPS   C38 8644   6.207   0.488   9.382  0.5155 -0.5174 -0.2396
   89SAPS   H8X 8645   6.206   0.599   9.374 -0.7559 -0.6131 -1.9718
   89SAPS   H8Y 8646   6.105   0.455   9.412  0.6389  0.1219  0.9563
   89SAPS   C39 8647   6.217   0.428   9.245  0.5333  0.4153 -0.0703
   89SAPS   H9X 8648   6.164   0.330   9.247  0.4367  0.4706  0.7233
   89SAPS   H9Y 8649   6.324   0.418   9.216  0.2501 -0.6108 -0.8090
   89SAPS  C310 8650   6.144   0.518   9.146  0.3858  0.8946 -0.1016
   89SAPS  H10X 8651   6.210   0.606   9.130  2.2744 -0.5661 -0.6269
   89SAPS  H10Y 8652   6.052   0.564   9.187 -1.2921 -1.0749 -1.4082
   89SAPS  C311 8653   6.107   0.448   9.016  0.0930  0.9647  0.0980
   89SAPS  H11X 8654   6.030   0.371   9.037 -0.0032  0.7081 -1.1217
   89SAPS  H11Y 8655   6.193   0.390   8.977 -1.0632 -0.4866 -0.3814
   89SAPS  C312 8656   6.061   0.531   8.894 -0.2961  0.3404  0.3807
   89SAPS  H12X 8657   6.021   0.460   8.819 -0.8476 -0.2085  1.1784
   89SAPS  H12Y 8658   6.160   0.563   8.854 -0.8146  0.4139 -0.8924
   89SAPS  C313 8659   5.960   0.645   8.919  0.0988  0.4766 -0.2512
   89SAPS  H13X 8660   5.979   0.714   9.004  1.3086  0.2549 -0.3174
   89SAPS  H13Y 8661   5.870   0.595   8.960 -1.0288  1.8593 -0.9644
   89SAPS  C314 8662   5.941   0.701   8.783 -0.2361 -0.0298  0.0426
   89SAPS  H14X 8663   5.934   0.628   8.700  1.9622 -0.5117  0.2314
   89SAPS  H14Y 8664   6.017   0.778   8.755  1.1866 -0.4094  2.5440
   89SAPS  C315 8665   5.805   0.771   8.777 -0.3272 -0.3360 -0.2831
   89SAPS  H15X 8666   5.803   0.848   8.857  1.4576 -1.1213  0.5675
   89SAPS  H15Y 8667   5.718   0.703   8.792 -0.3124 -0.3464 -0.2424
   89SAPS  C316 8668   5.794   0.855   8.651 -0.6187 -0.1080 -0.1201
   89SAPS  H16X 8669   5.783   0.788   8.563 -1.1956 -0.9218  0.5510
   89SAPS  H16Y 8670   5.889   0.910   8.636  0.6160 -1.4661  2.1234
   89SAPS  C317 8671   5.685   0.963   8.654 -0.3242 -0.3237  0.6659
   89SAPS  H17X 8672   5.678   1.025   8.746  0.3328  1.2324 -0.2970
   89SAPS  H17Y 8673   5.596   0.896   8.653 -0.3812 -0.2434  0.4793
   89SAPS  C318 8674   5.684   1.049   8.525  0.2183  0.4031 -0.2425
   89SAPS  H18X 8675   5.581   1.090   8.514 -0.3220 -0.5890  0.9117
   89SAPS  H18Y 8676   5.717   0.991   8.436  0.2543 -1.0213  0.6737
   89SAPS  H18Z 8677   5.748   1.140   8.530 -1.1742  1.3574  3.5966
   90SAPS     N 8678   0.440   1.513  10.965  0.1836  0.1518 -0.8523
   90SAPS   HN1 8679   0.400   1.452  11.039 -1.2363  0.9725 -0.8918
   90SAPS   HN2 8680   0.413   1.612  10.980 -0.8805 -0.0019 -1.5635
   90SAPS   HN3 8681   0.405   1.482  10.871  1.6262  2.1849 -2.1513
   90SAPS   C12 8682   0.588   1.498  10.959  0.0442 -0.6076  0.4187
   90SAPS  H12A 8683   0.625   1.594  10.993  1.7612 -1.0889  0.0411
   90SAPS   C13 8684   0.649   1.398  11.059  0.0959  0.1412 -0.0644
   90SAPS  O13A 8685   0.576   1.312  11.120  0.0375  0.0574  0.1439
   90SAPS  O13B 8686   0.775   1.389  11.067  0.0906  0.3309  0.4710
   90SAPS   C11 8687   0.633   1.473  10.809 -0.0594  0.4138 -0.0922
   90SAPS  H11A 8688   0.639   1.364  10.789 -1.8238 -0.0416  1.5296
   90SAPS  H11B 8689   0.734   1.519  10.817 -0.0973  0.5229 -0.2222
   90SAPS     P 8690   0.590   1.665  10.641 -0.0139  0.0467  0.0125
   90SAPS   O13 8691   0.481   1.744  10.581  0.3706  0.4726 -0.5132
   90SAPS   O14 8692   0.686   1.747  10.718  0.2087  0.2791 -0.1407
   90SAPS   O12 8693   0.539   1.539  10.723 -0.0909  0.6933  0.0247
   90SAPS   O11 8694   0.674   1.602  10.523  0.0279  0.5280 -0.3406
   90SAPS    C1 8695   0.627   1.473  10.479  0.3678 -0.4371 -0.5942
   90SAPS    HA 8696   0.662   1.385  10.538 -0.0107 -1.2183 -1.5147
   90SAPS    HB 8697   0.518   1.474  10.460  0.4145 -2.0954 -1.1377
   90SAPS    C2 8698   0.685   1.440  10.337 -0.7461 -0.5228 -0.0984
   90SAPS    HS 8699   0.791   1.470  10.352 -0.7797 -0.7570  0.6323
   90SAPS   O21 8700   0.627   1.536  10.239 -0.4192 -0.4065 -0.1749
   90SAPS   C21 8701   0.495   1.526  10.217  0.6460  0.3098  1.1981
   90SAPS   O22 8702   0.414   1.444  10.257  0.2046 -0.5303 -0.4406
   90SAPS   C22 8703   0.445   1.644  10.124  0.0482  0.2513 -0.1815
   90SAPS   H2R 8704   0.349   1.677  10.168  0.8420  2.1522  0.2251
   90SAPS   H2S 8705   0.524   1.723  10.124  1.2328 -0.8693 -1.1644
   90SAPS    C3 8706   0.670   1.295  10.296  0.2053 -1.2004  0.2608
   90SAPS    HX 8707   0.561   1.278  10.298 -0.0961  0.1851 -1.7096
   90SAPS    HY 8708   0.715   1.226  10.372  0.3238  0.9116  2.2182
   90SAPS   O31 8709   0.709   1.279  10.157 -0.2580  0.0523  0.0806
   90SAPS   C31 8710   0.834   1.269  10.132 -0.4395 -0.2644 -0.1360
   90SAPS   O32 8711   0.921   1.270  10.216 -0.3019 -0.0325 -0.1024
   90SAPS   C32 8712   0.856   1.267   9.980  0.0493 -0.1195 -0.0902
   90SAPS   H2X 8713   0.966   1.269   9.964 -0.3775 -0.2604 -3.6899
   90SAPS   H2Y 8714   0.818   1.361   9.935  1.1307 -1.0829 -3.2779
   90SAPS   C23 8715   0.407   1.600   9.982  0.1535 -0.3351  0.2133
   90SAPS   H3R 8716   0.362   1.689   9.932  0.6098 -0.0379  0.3284
   90SAPS   H3S 8717   0.334   1.517   9.974  1.9933 -2.0749  0.6269
   90SAPS   C24 8718   0.520   1.553   9.889 -0.8192  0.4897 -0.1566
   90SAPS   H4R 8719   0.573   1.469   9.939  1.6622  2.1901  0.2345
   90SAPS   H4S 8720   0.601   1.629   9.881  0.1449 -0.4525  0.3850
   90SAPS   C25 8721   0.469   1.519   9.756 -0.2097  0.1943 -0.1330
   90SAPS   H5R 8722   0.362   1.538   9.739 -0.0242  0.3987 -1.1219
   90SAPS   C26 8723   0.549   1.471   9.653 -0.6623  0.3827  0.3271
   90SAPS   H6R 8724   0.497   1.429   9.566 -0.1348 -1.9039  1.0433
   90SAPS   C27 8725   0.694   1.447   9.659 -0.1350  0.3941  0.4583
   90SAPS   H7R 8726   0.716   1.342   9.688 -0.6535  0.7230  2.0977
   90SAPS   H7S 8727   0.743   1.507   9.739  0.2409 -0.7356  1.1004
   90SAPS   C28 8728   0.765   1.483   9.529 -0.3302 -0.3119  0.0926
   90SAPS   H8R 8729   0.756   1.592   9.512 -0.6852 -0.1444  1.3214
   90SAPS   C29 8730   0.819   1.411   9.427 -0.4448  0.0412 -0.4502
   90SAPS   H9R 8731   0.859   1.466   9.341  1.3982 -3.6325 -2.1794
   90SAPS  C210 8732   0.819   1.259   9.416 -0.2765  0.2789 -0.5009
   90SAPS  H10R 8733   0.725   1.220   9.463 -0.9953  1.8315 -0.6076
   90SAPS  H10S 8734   0.908   1.225   9.473  1.4472  2.1211 -1.9815
   90SAPS  C211 8735   0.827   1.207   9.273 -0.1324  0.0872 -0.1648
   90SAPS  H11R 8736   0.752   1.247   9.203  0.8203 -1.6004 -2.2417
   90SAPS  C212 8737   0.918   1.125   9.213  1.0885 -0.3513 -0.0367
   90SAPS  H12R 8738   0.899   1.097   9.109  0.7017  1.8221 -0.5865
   90SAPS  C213 8739   1.041   1.065   9.265 -0.4194 -0.3514 -0.0588
   90SAPS  H13R 8740   1.076   0.981   9.201  0.0581  0.7700 -1.3047
   90SAPS  H13S 8741   1.034   1.018   9.366  2.9794 -2.1220 -0.4820
   90SAPS  C214 8742   1.160   1.168   9.276  0.4160  0.5875  0.5671
   90SAPS  H14R 8743   1.133   1.271   9.303  2.1595  0.9668  1.0215
   90SAPS  C215 8744   1.287   1.150   9.246 -0.2823  0.5645  0.2866
   90SAPS  H15R 8745   1.359   1.232   9.254  1.0394 -0.3322 -1.8084
   90SAPS  C216 8746   1.342   1.017   9.209  0.7112 -0.0040 -0.7463
   90SAPS  H16R 8747   1.279   0.940   9.258 -1.2649  1.8444 -0.2261
   90SAPS  H16S 8748   1.447   1.013   9.245  0.2461 -3.2633  0.5841
   90SAPS  C217 8749   1.354   0.987   9.060 -0.5692  0.0331 -0.3956
   90SAPS  H17R 8750   1.266   0.981   8.993 -2.1484  3.3073  1.1345
   90SAPS  H17S 8751   1.390   0.882   9.056 -1.5526 -0.2668 -3.0906
   90SAPS  C218 8752   1.472   1.058   8.994 -0.3643 -0.7422 -0.1222
   90SAPS  H18R 8753   1.554   1.055   9.069  0.5956  1.9059 -0.9772
   90SAPS  H18S 8754   1.442   1.163   8.980  1.7072 -0.1773 -0.7478
   90SAPS  C219 8755   1.521   0.998   8.859 -0.0078 -0.0300 -0.7619
   90SAPS  H19R 8756   1.524   0.889   8.878  3.7079  0.2805  1.4305
   90SAPS  H19S 8757   1.621   1.035   8.832 -0.3322 -0.3178 -2.4300
   90SAPS  C220 8758   1.439   1.046   8.737  0.7903 -0.0305  0.9928
   90SAPS  H20R 8759   1.429   1.156   8.740  0.1116 -0.0643  0.2584
   90SAPS  H20S 8760   1.339   0.998   8.730  0.4312  0.7945  0.2510
   90SAPS  H20T 8761   1.488   1.011   8.644 -1.3846  0.6272 -0.4684
   90SAPS   C33 8762   0.799   1.142   9.901  0.1963  0.5134  0.8656
   90SAPS   H3X 8763   0.795   1.152   9.790  0.3776 -1.3348  0.6620
   90SAPS   H3Y 8764   0.695   1.126   9.936 -0.3935 -0.6419 -1.1924
   90SAPS   C34 8765   0.871   1.001   9.927  0.7476 -0.2967  0.0130
   90SAPS   H4X 8766   0.844   0.961  10.027 -2.6233  0.0166 -0.6757
   90SAPS   H4Y 8767   0.980   1.024   9.926  0.7620 -0.1200  1.8880
   90SAPS   C35 8768   0.857   0.899   9.817  0.4958  0.5501  0.1289
   90SAPS   H5X 8769   0.750   0.882   9.793  0.8866  0.9364 -2.1976
   90SAPS   H5Y 8770   0.909   0.810   9.860  1.2677  1.2665  0.7045
   90SAPS   C36 8771   0.935   0.939   9.690  0.2401 -0.0699 -0.2751
   90SAPS   H6X 8772   1.042   0.948   9.716  0.0257  1.4344  0.2438
   90SAPS   H6Y 8773   0.890   1.027   9.639 -3.3758 -0.7136  1.4801
   90SAPS   C37 8774   0.950   0.825   9.580 -0.3280  1.3484  0.1937
   90SAPS   H7X 8775   0.982   0.868   9.483  0.4079 -0.0506 -0.1960
   90SAPS   H7Y 8776   0.855   0.773   9.555 -0.4044  1.5322  0.0967
   90SAPS   C38 8777   1.046   0.713   9.619 -0.8905 -0.1243  0.2303
   90SAPS   H8X 8778   1.009   0.664   9.712  1.1501 -2.1366  0.0648
   90SAPS   H8Y 8779   1.149   0.752   9.635 -0.3986 -1.1442 -0.3105
   90SAPS   C39 8780   1.052   0.618   9.493 -0.6873  0.8354  0.4941
   90SAPS   H9X 8781   0.947   0.600   9.461 -0.7169  1.1062  0.4431
   90SAPS   H9Y 8782   1.088   0.515   9.517 -1.5820  0.1208 -1.0926
   90SAPS  C310 8783   1.148   0.666   9.385 -0.5267  1.1607 -0.5041
   90SAPS  H10X 8784   1.248   0.713   9.402  0.4921 -1.3127  1.0052
   90SAPS  H10Y 8785   1.089   0.732   9.319  1.7020 -0.1219 -4.0425
   90SAPS  C311 8786   1.179   0.550   9.281  0.1254  0.0094 -0.0468
   90SAPS  H11X 8787   1.077   0.521   9.248 -0.1399  2.6562 -1.8861
   90SAPS  H11Y 8788   1.233   0.467   9.331  0.4418  0.3365  0.1613
   90SAPS  C312 8789   1.263   0.599   9.156 -0.3877  0.9293  0.2892
   90SAPS  H12X 8790   1.350   0.639   9.213 -1.5091 -0.0005  2.7917
   90SAPS  H12Y 8791   1.213   0.679   9.097 -0.3017 -0.4877 -1.8274
   90SAPS  C313 8792   1.307   0.479   9.060 -1.2345 -0.5138  0.2531
   90SAPS  H13X 8793   1.225   0.447   8.992 -0.9247  1.3183 -1.0397
   90SAPS  H13Y 8794   1.316   0.388   9.124 -0.1709 -0.9490 -0.4828
   90SAPS  C314 8795   1.438   0.521   8.990 -0.1111 -0.2432 -0.1093
   90SAPS  H14X 8796   1.516   0.527   9.069  0.8687 -1.4804 -0.9289
   90SAPS  H14Y 8797   1.429   0.615   8.933 -0.4677  1.2000  2.2058
   90SAPS  C315 8798   1.488   0.405   8.895 -0.1030  0.6333 -0.2203
   90SAPS  H15X 8799   1.489   0.308   8.948  0.5537  0.7100 -0.0823
   90SAPS  H15Y 8800   1.597   0.419   8.881  0.1171 -1.1498 -0.4510
   90SAPS  C316 8801   1.409   0.375   8.771  0.0913  0.2260  0.0275
   90SAPS  H16X 8802   1.396   0.464   8.706  0.9051  0.4117  0.1087
   90SAPS  H16Y 8803   1.309   0.345   8.808 -0.2205 -0.3809 -1.2304
   90SAPS  C317 8804   1.466   0.255   8.697  0.0368  0.4230 -1.1061
   90SAPS  H17X 8805   1.465   0.161   8.757  1.3810  0.0125 -1.6880
   90SAPS  H17Y 8806   1.576   0.271   8.693  0.6400 -1.6533  2.3892
   90SAPS  C318 8807   1.414   0.229   8.552 -0.0160  0.2825 -0.2428
   90SAPS  H18X 8808   1.463   0.138   8.510 -2.3711 -1.7778  1.1985
   90SAPS  H18Y 8809   1.455   0.308   8.487  1.6599  0.4314  0.9262
   90SAPS  H18Z 8810   1.304   0.225   8.534 -0.1850 -0.6451  0.8697
   91SAPS     N 8811   5.330   4.314   6.078 -0.5045  0.0402  0.0310
   91SAPS   HN1 8812   5.287   4.220   6.070 -0.4987 -0.1089  1.5165
   91SAPS   HN2 8813   5.413   4.312   6.141  1.1136  1.7419 -1.8507
   91SAPS   HN3 8814   5.259   4.382   6.111 -1.9671 -0.0720 -2.6477
   91SAPS   C12 8815   5.383   4.350   5.948 -0.1095 -0.3686  0.2886
   91SAPS  H12A 8816   5.479   4.303   5.934  0.0381  0.1180 -0.3523
   91SAPS   C13 8817   5.307   4.305   5.818 -0.4176  0.2299  0.2832
   91SAPS  O13A 8818   5.185   4.272   5.822 -0.0345  0.2401  0.6828
   91SAPS  O13B 8819   5.369   4.326   5.708  0.1403  0.6804  0.2989
   91SAPS   C11 8820   5.401   4.509   5.951 -0.5403 -0.3562 -0.1441
   91SAPS  H11A 8821   5.305   4.562   5.931  0.0397  0.4268 -0.9201
   91SAPS  H11B 8822   5.471   4.520   5.865 -0.2589 -3.7134 -0.4906
   91SAPS     P 8823   5.546   4.671   6.086 -0.3234  0.3491  0.3412
   91SAPS   O13 8824   5.668   4.647   6.005 -0.2603  0.3438 -0.1865
   91SAPS   O14 8825   5.468   4.795   6.063 -0.4612 -0.2081 -0.1887
   91SAPS   O12 8826   5.451   4.555   6.079 -0.0743 -0.2727 -0.2025
   91SAPS   O11 8827   5.590   4.674   6.231 -0.4990 -0.0932  0.2677
   91SAPS    C1 8828   5.590   4.565   6.320  0.4588  0.3492 -0.0879
   91SAPS    HA 8829   5.527   4.479   6.287  1.1306 -0.7559  1.3863
   91SAPS    HB 8830   5.694   4.528   6.325  0.5402  0.2701 -1.8104
   91SAPS    C2 8831   5.545   4.598   6.465 -1.3707  1.0954  0.2872
   91SAPS    HS 8832   5.450   4.656   6.456 -2.3128 -0.5830 -1.3703
   91SAPS   O21 8833   5.652   4.672   6.535  0.4290 -0.7826 -0.1313
   91SAPS   C21 8834   5.613   4.768   6.614  0.9495 -0.7909  0.3398
   91SAPS   O22 8835   5.496   4.795   6.644 -0.2681  0.2235  0.1346
   91SAPS   C22 8836   5.729   4.824   6.684 -0.1467 -0.5307  0.0690
   91SAPS   H2R 8837   5.797   4.748   6.727 -0.0375 -0.7790 -0.5299
   91SAPS   H2S 8838   5.797   4.860   6.604 -0.3244 -1.9630 -0.7696
   91SAPS    C3 8839   5.516   4.467   6.546  0.7078  0.0749  0.0260
   91SAPS    HX 8840   5.597   4.392   6.536  1.1779  0.2669  2.0398
   91SAPS    HY 8841   5.430   4.425   6.490  0.8484  0.4619 -0.4865
   91SAPS   O31 8842   5.501   4.486   6.686 -0.2487  0.4773 -0.0745
   91SAPS   C31 8843   5.382   4.547   6.714  0.9071 -0.2070 -0.8058
   91SAPS   O32 8844   5.291   4.571   6.635  0.3511  0.2995 -0.6254
   91SAPS   C32 8845   5.370   4.576   6.860 -0.8128  0.0998 -0.1510
   91SAPS   H2X 8846   5.452   4.650   6.869  1.7863 -2.2495 -2.3850
   91SAPS   H2Y 8847   5.382   4.480   6.916 -3.2501  0.9031  1.9400
   91SAPS   C23 8848   5.694   4.940   6.783  0.2015  0.2610 -0.3940
   91SAPS   H3R 8849   5.613   5.000   6.736 -2.6088 -3.3555 -0.5903
   91SAPS   H3S 8850   5.772   5.018   6.795 -0.5732  0.9226  0.4668
   91SAPS   C24 8851   5.658   4.894   6.923  0.6747 -0.7262  1.2043
   91SAPS   H4R 8852   5.750   4.847   6.963  0.3443 -3.0521 -0.5689
   91SAPS   H4S 8853   5.582   4.814   6.909  0.6966 -0.4163 -1.0652
   91SAPS   C25 8854   5.611   5.003   7.002 -0.1179 -1.0957 -0.7305
   91SAPS   H5R 8855   5.547   5.076   6.950  1.7642  1.0153 -0.2622
   91SAPS   C26 8856   5.642   5.033   7.132 -0.2012  0.1622  0.1092
   91SAPS   H6R 8857   5.600   5.125   7.175  1.2843  0.1401  1.7101
   91SAPS   C27 8858   5.723   4.954   7.227 -0.3724  0.1571  0.3190
   91SAPS   H7R 8859   5.825   4.948   7.182  0.9346  0.4318  3.0594
   91SAPS   H7S 8860   5.686   4.850   7.218 -0.6678  0.3435 -0.7802
   91SAPS   C28 8861   5.736   4.998   7.369  0.6582  0.6524  0.6164
   91SAPS   H8R 8862   5.753   5.105   7.383  1.0096  0.5758  0.7847
   91SAPS   C29 8863   5.753   4.919   7.481  0.1593 -0.7922  0.3944
   91SAPS   H9R 8864   5.775   4.980   7.570 -1.1776 -0.2162  0.3494
   91SAPS  C210 8865   5.758   4.768   7.489 -0.2770  0.7588 -0.1875
   91SAPS  H10R 8866   5.863   4.731   7.479 -1.1043 -1.2752 -2.2466
   91SAPS  H10S 8867   5.713   4.719   7.400  4.3997  0.3373 -2.6562
   91SAPS  C211 8868   5.700   4.706   7.618  0.4936 -0.7694  0.4476
   91SAPS  H11R 8869   5.645   4.780   7.678 -0.2619 -0.3129 -0.7752
   91SAPS  C212 8870   5.693   4.576   7.649  0.6316  0.8689 -0.1943
   91SAPS  H12R 8871   5.652   4.551   7.747  1.9284  2.2187  0.7441
   91SAPS  C213 8872   5.737   4.455   7.570  0.4154 -0.1957  0.2953
   91SAPS  H13R 8873   5.797   4.391   7.637  1.3586  1.3666  1.0107
   91SAPS  H13S 8874   5.797   4.485   7.482  0.0374  1.8696  0.6912
   91SAPS  C214 8875   5.622   4.372   7.521  0.4823  0.7322  0.4974
   91SAPS  H14R 8876   5.560   4.322   7.596  0.4376 -0.1797 -0.1330
   91SAPS  C215 8877   5.593   4.340   7.392  0.0460  0.8558 -0.3221
   91SAPS  H15R 8878   5.511   4.270   7.370  0.6129 -0.2141  0.8574
   91SAPS  C216 8879   5.669   4.380   7.265  0.6626  0.6247 -0.0924
   91SAPS  H16R 8880   5.759   4.441   7.287  0.6083  0.2306  1.3074
   91SAPS  H16S 8881   5.605   4.451   7.208 -2.4509 -1.7210  0.2083
   91SAPS  C217 8882   5.697   4.256   7.170 -0.1250  0.3627 -0.2750
   91SAPS  H17R 8883   5.619   4.178   7.174  0.6390 -0.4323 -0.5765
   91SAPS  H17S 8884   5.796   4.212   7.196 -0.2640 -0.2253 -0.7355
   91SAPS  C218 8885   5.701   4.301   7.021  0.3385  0.3353  0.6284
   91SAPS  H18R 8886   5.784   4.376   7.013  2.7638 -2.0938  1.4005
   91SAPS  H18S 8887   5.601   4.343   6.998 -0.1047 -0.9200  0.2280
   91SAPS  C219 8888   5.738   4.187   6.924  0.3108  0.4683  0.2875
   91SAPS  H19R 8889   5.822   4.140   6.979 -0.0409 -0.7297 -0.1670
   91SAPS  H19S 8890   5.781   4.222   6.828 -1.1049 -2.2007 -1.4312
   91SAPS  C220 8891   5.626   4.087   6.896 -0.1522 -0.4622  0.1150
   91SAPS  H20R 8892   5.622   4.020   6.984  1.6529  0.0708  0.6448
   91SAPS  H20S 8893   5.643   4.025   6.805 -1.5160 -0.8239  0.0938
   91SAPS  H20T 8894   5.530   4.137   6.874 -0.7801 -1.8271 -0.3235
   91SAPS   C33 8895   5.239   4.636   6.912 -0.0752 -0.9713 -0.5094
   91SAPS   H3X 8896   5.145   4.583   6.887 -1.5178  0.9115  0.6050
   91SAPS   H3Y 8897   5.225   4.737   6.868 -0.0785 -1.3277 -1.3364
   91SAPS   C34 8898   5.229   4.646   7.066 -0.0935 -0.2809 -0.0410
   91SAPS   H4X 8899   5.221   4.545   7.111 -1.5797  0.2209  0.9246
   91SAPS   H4Y 8900   5.142   4.711   7.090 -0.2604 -0.5103 -0.0256
   91SAPS   C35 8901   5.363   4.708   7.113 -0.0559  0.2953  1.1134
   91SAPS   H5X 8902   5.389   4.788   7.040  0.9253 -0.5702  0.4808
   91SAPS   H5Y 8903   5.446   4.634   7.110 -3.0435 -3.3299  0.5724
   91SAPS   C36 8904   5.352   4.763   7.253 -0.1550 -0.4979 -0.7088
   91SAPS   H6X 8905   5.257   4.819   7.259 -0.6642 -1.4003 -0.2166
   91SAPS   H6Y 8906   5.427   4.845   7.261 -1.1997  0.3289  1.1488
   91SAPS   C37 8907   5.359   4.657   7.364  0.1381  0.3075 -0.7746
   91SAPS   H7X 8908   5.458   4.607   7.361  0.7066  1.4404 -1.1717
   91SAPS   H7Y 8909   5.292   4.574   7.332  0.7963 -0.8252  0.6553
   91SAPS   C38 8910   5.323   4.709   7.503  0.3617  0.6810  0.5538
   91SAPS   H8X 8911   5.375   4.805   7.522  1.2587  0.5545 -1.1020
   91SAPS   H8Y 8912   5.371   4.643   7.579 -0.1793  1.9223  2.0176
   91SAPS   C39 8913   5.174   4.699   7.538  0.2902  0.2119 -0.0500
   91SAPS   H9X 8914   5.158   4.712   7.647  0.7875 -0.6101  0.1275
   91SAPS   H9Y 8915   5.158   4.592   7.515  2.1414  0.3044 -2.2082
   91SAPS  C310 8916   5.081   4.796   7.462  0.0374 -0.9525 -0.8519
   91SAPS  H10X 8917   5.092   4.795   7.352  2.2315  1.7734 -0.7745
   91SAPS  H10Y 8918   5.117   4.894   7.500  2.0578 -0.4915 -3.6544
   91SAPS  C311 8919   4.929   4.786   7.494  0.3614  0.2562 -0.2534
   91SAPS  H11X 8920   4.899   4.686   7.456 -1.2962  0.8755 -0.6766
   91SAPS  H11Y 8921   4.865   4.854   7.434 -0.5623 -0.7395 -0.4200
   91SAPS  C312 8922   4.890   4.816   7.647 -0.2435 -0.4364 -0.5382
   91SAPS  H12X 8923   4.936   4.915   7.667 -1.8239  0.0026  1.2607
   91SAPS  H12Y 8924   4.938   4.736   7.706  1.3628  0.2973 -0.7708
   91SAPS  C313 8925   4.745   4.835   7.688 -0.6891  0.4346 -0.0319
   91SAPS  H13X 8926   4.700   4.733   7.680 -1.1120  0.7368 -2.8775
   91SAPS  H13Y 8927   4.696   4.911   7.623 -2.5449  0.4134  1.2485
   91SAPS  C314 8928   4.717   4.891   7.828 -0.0097 -0.4591 -0.5052
   91SAPS  H14X 8929   4.612   4.924   7.842  0.8877  2.7053 -0.4435
   91SAPS  H14Y 8930   4.776   4.984   7.837 -1.4281  0.8541 -3.5693
   91SAPS  C315 8931   4.761   4.802   7.948  1.0461  0.0163 -0.4894
   91SAPS  H15X 8932   4.853   4.746   7.922 -1.1826 -2.5508 -3.6120
   91SAPS  H15Y 8933   4.684   4.723   7.936  1.0223 -0.3846  1.7819
   91SAPS  C316 8934   4.739   4.875   8.085 -0.0120 -0.4841 -0.0395
   91SAPS  H16X 8935   4.633   4.906   8.094 -0.1121 -1.3669  2.7137
   91SAPS  H16Y 8936   4.787   4.975   8.074  1.2212 -1.2560 -2.5670
   91SAPS  C317 8937   4.785   4.801   8.211  0.2785  0.3604  0.2849
   91SAPS  H17X 8938   4.748   4.845   8.305 -1.9553 -1.1321  0.1732
   91SAPS  H17Y 8939   4.894   4.822   8.214  0.5961 -1.1514  0.1215
   91SAPS  C318 8940   4.775   4.644   8.209  0.3290 -0.3334  0.4358
   91SAPS  H18X 8941   4.827   4.604   8.119 -0.0392  1.9728 -0.8891
   91SAPS  H18Y 8942   4.669   4.609   8.215 -0.4352  1.6897 -0.2786
   91SAPS  H18Z 8943   4.827   4.611   8.301  0.2827  0.8103  0.8932
   92SAPS     N 8944   3.390   3.073   6.552 -0.4431 -0.0026  0.0412
   92SAPS   HN1 8945   3.298   3.115   6.526  0.4108  2.4682  0.7438
   92SAPS   HN2 8946   3.417   3.101   6.649  1.2695  0.5169 -0.5446
   92SAPS   HN3 8947   3.464   3.119   6.496  0.0888 -2.0916 -1.0766
   92SAPS   C12 8948   3.373   2.924   6.531  0.1191 -0.1387 -0.2058
   92SAPS  H12A 8949   3.308   2.878   6.603 -2.1398 -1.1286 -2.7229
   92SAPS   C13 8950   3.324   2.893   6.386 -0.0251 -0.7114  0.7596
   92SAPS  O13A 8951   3.310   2.986   6.304  0.3859 -0.6856  0.2484
   92SAPS  O13B 8952   3.270   2.779   6.361 -0.0117 -0.1783  0.3649
   92SAPS   C11 8953   3.514   2.859   6.567 -0.1183 -0.2265  0.2254
   92SAPS  H11A 8954   3.485   2.752   6.563  0.4470 -0.3438 -1.2764
   92SAPS  H11B 8955   3.545   2.880   6.672  0.5998  0.2095 -0.0690
   92SAPS     P 8956   3.747   2.794   6.477  0.4605  0.5014 -0.1904
   92SAPS   O13 8957   3.704   2.664   6.414 -0.3442  0.3489  0.3656
   92SAPS   O14 8958   3.867   2.871   6.431  0.3434  0.0744  0.4755
   92SAPS   O12 8959   3.619   2.893   6.472  0.5184  0.0627  0.4687
   92SAPS   O11 8960   3.762   2.762   6.634  0.5110  0.1732  0.2988
   92SAPS    C1 8961   3.821   2.852   6.728  0.7322 -0.0288  0.5593
   92SAPS    HA 8962   3.927   2.851   6.694  0.4676 -0.3004 -0.2752
   92SAPS    HB 8963   3.774   2.952   6.721 -0.5400 -0.7324 -1.7351
   92SAPS    C2 8964   3.801   2.803   6.878  0.2310 -0.2158 -0.0244
   92SAPS    HS 8965   3.888   2.848   6.929 -0.2270  1.4000 -0.5943
   92SAPS   O21 8966   3.798   2.657   6.890 -0.4198 -0.5401 -0.4460
   92SAPS   C21 8967   3.909   2.595   6.851 -0.0405 -0.0888 -0.5344
   92SAPS   O22 8968   4.003   2.644   6.793 -0.3359  0.1526 -0.0862
   92SAPS   C22 8969   3.904   2.457   6.912  0.2949  0.1812  0.3299
   92SAPS   H2R 8970   3.800   2.423   6.932  0.2997 -2.1281 -2.7625
   92SAPS   H2S 8971   3.950   2.387   6.839 -1.7727 -0.0776 -0.8121
   92SAPS    C3 8972   3.664   2.856   6.942  0.1747  0.8173 -0.2197
   92SAPS    HX 8973   3.582   2.810   6.883 -1.6629 -2.3142  4.2349
   92SAPS    HY 8974   3.655   2.966   6.930 -1.4754  1.1952  3.2341
   92SAPS   O31 8975   3.632   2.825   7.082  0.0995 -0.4529  0.1439
   92SAPS   C31 8976   3.622   2.923   7.166  0.2615 -0.0582 -0.1420
   92SAPS   O32 8977   3.615   3.038   7.136  0.5159  0.5125  0.5967
   92SAPS   C32 8978   3.629   2.858   7.309 -0.3035  0.4898  0.0434
   92SAPS   H2X 8979   3.717   2.792   7.299 -0.9878 -0.2837 -1.2526
   92SAPS   H2Y 8980   3.537   2.796   7.316  1.1836 -1.9162 -0.7996
   92SAPS   C23 8981   3.979   2.460   7.046  0.0345  0.1322 -0.0186
   92SAPS   H3R 8982   4.079   2.504   7.025 -0.2025 -0.2959 -2.3029
   92SAPS   H3S 8983   3.987   2.354   7.077  2.5529  0.4382  0.6051
   92SAPS   C24 8984   3.908   2.540   7.160 -0.1055  0.3119 -0.7618
   92SAPS   H4R 8985   3.907   2.650   7.144  1.4803  1.2815  4.1455
   92SAPS   H4S 8986   3.978   2.540   7.246 -0.5032  3.2489 -0.3374
   92SAPS   C25 8987   3.770   2.484   7.197 -0.4669  0.0081 -0.4331
   92SAPS   H5R 8988   3.687   2.524   7.138 -0.3149 -0.1553 -0.7615
   92SAPS   C26 8989   3.750   2.395   7.294 -0.1463 -0.3075 -0.0252
   92SAPS   H6R 8990   3.645   2.362   7.299 -1.5412  3.7540  0.8112
   92SAPS   C27 8991   3.852   2.333   7.389 -0.0379  0.6229  0.0992
   92SAPS   H7R 8992   3.941   2.298   7.334  0.3249  1.1666  0.3271
   92SAPS   H7S 8993   3.799   2.253   7.445 -2.8036  1.6604 -0.8576
   92SAPS   C28 8994   3.920   2.425   7.492  0.4342  0.9267  0.9994
   92SAPS   H8R 8995   3.860   2.516   7.507 -3.3940 -1.5262  2.0342
   92SAPS   C29 8996   4.037   2.397   7.550 -0.3257 -0.3583 -0.0121
   92SAPS   H9R 8997   4.084   2.474   7.613  1.5386 -1.3068 -0.1758
   92SAPS  C210 8998   4.116   2.265   7.545  0.5806 -0.3956 -0.3958
   92SAPS  H10R 8999   4.216   2.291   7.506  1.0859 -2.2790 -0.4539
   92SAPS  H10S 9000   4.069   2.198   7.470  0.6657 -1.2056  0.2611
   92SAPS  C211 9001   4.107   2.190   7.672 -0.1303  0.6879  0.8036
   92SAPS  H11R 9002   4.015   2.130   7.681  1.2338 -3.1130 -4.8419
   92SAPS  C212 9003   4.209   2.166   7.759  0.7849  0.0111  0.2970
   92SAPS  H12R 9004   4.189   2.119   7.857  1.1895  1.5117  1.1253
   92SAPS  C213 9005   4.348   2.218   7.749 -1.2250 -0.1724  0.2990
   92SAPS  H13R 9006   4.354   2.314   7.693  0.4246 -0.7501 -0.5842
   92SAPS  H13S 9007   4.416   2.158   7.685 -0.6247  0.8359 -0.0272
   92SAPS  C214 9008   4.413   2.240   7.879 -0.3434 -1.2067  0.1431
   92SAPS  H14R 9009   4.490   2.165   7.901  0.4982 -0.2337  0.5768
   92SAPS  C215 9010   4.393   2.347   7.958 -0.1710  0.5819 -0.8299
   92SAPS  H15R 9011   4.451   2.339   8.051  1.5057  0.0238 -1.8700
   92SAPS  C216 9012   4.303   2.467   7.938 -0.2093  0.7946  0.3478
   92SAPS  H16R 9013   4.223   2.437   7.867  2.2300 -0.4265 -2.0750
   92SAPS  H16S 9014   4.355   2.552   7.888 -1.6641  0.6981 -1.4469
   92SAPS  C217 9015   4.246   2.514   8.068  0.2028 -0.0799  0.2689
   92SAPS  H17R 9016   4.177   2.598   8.048  0.6780 -0.1409 -1.8660
   92SAPS  H17S 9017   4.325   2.538   8.143  1.3496  1.8166 -1.4366
   92SAPS  C218 9018   4.157   2.411   8.148 -0.6087 -0.7215  0.0485
   92SAPS  H18R 9019   4.127   2.454   8.246  1.6731  0.1462  0.4384
   92SAPS  H18S 9020   4.222   2.329   8.184  1.0315  0.4751 -0.0425
   92SAPS  C219 9021   4.026   2.358   8.073  0.1140 -0.2086 -0.2250
   92SAPS  H19R 9022   4.069   2.315   7.979  2.6129 -0.6946  1.0569
   92SAPS  H19S 9023   3.956   2.439   8.044  1.7854  1.6893  0.8702
   92SAPS  C220 9024   3.956   2.248   8.154 -0.4042 -0.5146  0.9456
   92SAPS  H20R 9025   3.859   2.227   8.103  1.0644 -2.1582 -1.3620
   92SAPS  H20S 9026   3.946   2.304   8.249  3.2473  1.0644  0.5614
   92SAPS  H20T 9027   4.019   2.159   8.175  1.3528  0.7578  1.2548
   92SAPS   C33 9028   3.634   2.959   7.424 -0.2957  1.1276 -0.0584
   92SAPS   H3X 9029   3.532   3.002   7.415 -0.4578  0.2843 -3.3048
   92SAPS   H3Y 9030   3.709   3.039   7.407  2.0908 -0.6475  1.5575
   92SAPS   C34 9031   3.653   2.903   7.561 -0.8857 -0.5873 -0.1567
   92SAPS   H4X 9032   3.664   2.991   7.628  1.2416  0.4238 -1.6824
   92SAPS   H4Y 9033   3.746   2.842   7.572 -1.8336 -2.3986 -1.5609
   92SAPS   C35 9034   3.546   2.813   7.617  0.6008  0.5858 -0.5195
   92SAPS   H5X 9035   3.547   2.722   7.552 -1.6621 -0.5505  0.8962
   92SAPS   H5Y 9036   3.450   2.869   7.617 -0.0182 -0.4224  0.8102
   92SAPS   C36 9037   3.571   2.768   7.764  0.0583 -0.1166 -0.6359
   92SAPS   H6X 9038   3.497   2.689   7.792  0.2807 -0.1610 -0.1729
   92SAPS   H6Y 9039   3.578   2.856   7.831  4.4754  0.1118 -1.1291
   92SAPS   C37 9040   3.711   2.702   7.792 -0.5649 -0.2613 -0.4352
   92SAPS   H7X 9041   3.787   2.783   7.779 -0.9779  0.2319  0.1831
   92SAPS   H7Y 9042   3.712   2.632   7.706 -0.9411 -0.5702 -0.1910
   92SAPS   C38 9043   3.728   2.627   7.926 -0.0975  0.4990 -0.0694
   92SAPS   H8X 9044   3.816   2.559   7.924 -0.8238 -0.4763 -2.3514
   92SAPS   H8Y 9045   3.644   2.554   7.935  0.4102  0.0824  1.8115
   92SAPS   C39 9046   3.713   2.728   8.043 -0.0496  0.8105 -0.6713
   92SAPS   H9X 9047   3.617   2.782   8.053  0.4899  1.3578  3.9549
   92SAPS   H9Y 9048   3.797   2.800   8.028  2.1645 -1.7098 -1.2566
   92SAPS  C310 9049   3.747   2.654   8.174 -0.2184  0.1109 -0.2474
   92SAPS  H10X 9050   3.858   2.665   8.185 -0.4598  2.3292  0.5035
   92SAPS  H10Y 9051   3.721   2.546   8.178  0.9995 -0.1673  1.4493
   92SAPS  C311 9052   3.675   2.708   8.296  0.0086 -0.5987  0.2845
   92SAPS  H11X 9053   3.572   2.677   8.272  0.1948  0.1528 -1.6318
   92SAPS  H11Y 9054   3.673   2.818   8.289 -0.2123 -0.4892  1.7295
   92SAPS  C312 9055   3.714   2.652   8.438  0.8380 -0.1213 -0.0060
   92SAPS  H12X 9056   3.818   2.683   8.459  0.1589  2.5018 -0.1639
   92SAPS  H12Y 9057   3.703   2.542   8.429  1.1640 -0.5291  3.2728
   92SAPS  C313 9058   3.631   2.713   8.552 -0.1110  0.2913 -0.5488
   92SAPS  H13X 9059   3.524   2.686   8.541  0.0381 -0.6944  0.2549
   92SAPS  H13Y 9060   3.628   2.824   8.545  1.7588  0.6272  2.2135
   92SAPS  C314 9061   3.683   2.676   8.687 -0.2066 -0.7466  0.1687
   92SAPS  H14X 9062   3.631   2.746   8.756  0.0534  0.7416 -1.0830
   92SAPS  H14Y 9063   3.791   2.697   8.698 -0.1428 -1.8390  2.0148
   92SAPS  C315 9064   3.651   2.532   8.732  0.2564  0.2553  0.5475
   92SAPS  H15X 9065   3.742   2.470   8.719  0.7662  0.7901  1.4715
   92SAPS  H15Y 9066   3.574   2.490   8.663  0.8554 -0.6880  0.4420
   92SAPS  C316 9067   3.598   2.509   8.874  0.1561 -0.0215  0.3561
   92SAPS  H16X 9068   3.540   2.595   8.913 -0.6394 -1.1292  1.7032
   92SAPS  H16Y 9069   3.682   2.511   8.947  0.8163 -0.9774 -0.3352
   92SAPS  C317 9070   3.525   2.378   8.898  0.4546 -0.1991 -0.3596
   92SAPS  H17X 9071   3.593   2.293   8.877  2.6118 -0.0705  4.7232
   92SAPS  H17Y 9072   3.441   2.374   8.825 -0.2732  2.9865  0.1506
   92SAPS  C318 9073   3.477   2.363   9.043  0.3172  0.1429 -0.0753
   92SAPS  H18X 9074   3.400   2.283   9.044 -0.5466  0.9159 -1.7144
   92SAPS  H18Y 9075   3.427   2.453   9.086  0.0946  0.9295 -1.8910
   92SAPS  H18Z 9076   3.565   2.325   9.100  1.0519  1.3056 -0.4056
   93SAPS     N 9077   4.083   2.963   6.310 -0.2300 -0.3031 -0.4928
   93SAPS   HN1 9078   4.086   3.065   6.328 -0.7912 -0.1808 -1.0649
   93SAPS   HN2 9079   3.999   2.918   6.352 -0.1788  0.0622  0.0137
   93SAPS   HN3 9080   4.164   2.925   6.365 -0.3634  2.2367  1.6577
   93SAPS   C12 9081   4.110   2.911   6.174  0.4782 -0.4413 -0.0269
   93SAPS  H12A 9082   4.026   2.932   6.109  0.9194  1.1187 -0.1170
   93SAPS   C13 9083   4.232   2.971   6.097  0.2387  0.0888  0.2162
   93SAPS  O13A 9084   4.261   3.090   6.128 -0.1274  0.5131 -0.1861
   93SAPS  O13B 9085   4.262   2.924   5.984 -0.0671 -0.1698 -0.1847
   93SAPS   C11 9086   4.132   2.755   6.189 -0.4103  0.7394 -1.1263
   93SAPS  H11A 9087   4.141   2.713   6.087 -0.7703 -2.3438  0.0261
   93SAPS  H11B 9088   4.041   2.720   6.242 -0.4331  2.7427  0.2897
   93SAPS     P 9089   4.288   2.561   6.283 -0.0446 -0.4826 -0.3076
   93SAPS   O13 9090   4.224   2.487   6.176  0.3461  0.0199  0.7198
   93SAPS   O14 9091   4.436   2.545   6.294 -0.9520 -0.3218 -0.3667
   93SAPS   O12 9092   4.243   2.716   6.266  0.0714  0.2032 -0.2961
   93SAPS   O11 9093   4.216   2.511   6.416  0.1282  0.0168  0.1415
   93SAPS    C1 9094   4.203   2.594   6.529  0.4613  0.3022 -0.1563
   93SAPS    HA 9095   4.187   2.701   6.504  0.6975  0.7008  1.2882
   93SAPS    HB 9096   4.117   2.554   6.586  1.9590 -1.0197  1.2817
   93SAPS    C2 9097   4.332   2.589   6.616  0.5717 -0.7340  0.5866
   93SAPS    HS 9098   4.411   2.606   6.540 -1.0463  0.9865 -0.8031
   93SAPS   O21 9099   4.327   2.467   6.689  1.0047  0.2392 -0.3312
   93SAPS   C21 9100   4.446   2.411   6.701 -0.0532 -0.5307 -1.0303
   93SAPS   O22 9101   4.544   2.449   6.635  0.5492  0.0501  0.1606
   93SAPS   C22 9102   4.454   2.291   6.800  0.1239  0.1798  0.0023
   93SAPS   H2R 9103   4.349   2.264   6.822 -0.2936  0.2469 -1.7640
   93SAPS   H2S 9104   4.496   2.197   6.758 -1.7382  0.0547 -1.7310
   93SAPS    C3 9105   4.343   2.705   6.721 -0.7112  0.4156 -0.6896
   93SAPS    HX 9106   4.275   2.686   6.807  1.2570  2.1459  1.3642
   93SAPS    HY 9107   4.314   2.805   6.683 -2.2507 -0.3205 -1.5171
   93SAPS   O31 9108   4.478   2.709   6.782 -0.3419  0.1150  1.0180
   93SAPS   C31 9109   4.561   2.796   6.723  0.3538  0.0393 -0.5797
   93SAPS   O32 9110   4.539   2.866   6.630 -0.7805  0.3727 -0.0140
   93SAPS   C32 9111   4.694   2.783   6.808  0.5461  0.0711  0.6828
   93SAPS   H2X 9112   4.770   2.809   6.731 -0.0259  0.5835  0.2829
   93SAPS   H2Y 9113   4.695   2.677   6.843 -1.3066 -0.0907  0.3499
   93SAPS   C23 9114   4.526   2.341   6.931  0.0060 -0.0360  0.1470
   93SAPS   H3R 9115   4.626   2.385   6.906 -0.0955  0.0245 -0.1588
   93SAPS   H3S 9116   4.548   2.263   7.007 -1.4597  1.3005  2.0441
   93SAPS   C24 9117   4.454   2.453   7.009  0.2818  0.3251 -0.4009
   93SAPS   H4R 9118   4.404   2.522   6.938 -0.9883  0.9891  1.0691
   93SAPS   H4S 9119   4.520   2.517   7.072  0.0369 -1.4706  1.7819
   93SAPS   C25 9120   4.340   2.399   7.091  0.8581  0.3989  0.0395
   93SAPS   H5R 9121   4.247   2.369   7.040  1.7674  0.7183 -1.9127
   93SAPS   C26 9122   4.338   2.365   7.220 -0.4438  0.0077 -0.3871
   93SAPS   H6R 9123   4.253   2.311   7.264  1.0175 -1.2282  1.0404
   93SAPS   C27 9124   4.453   2.375   7.318 -0.1374  0.3245 -0.4312
   93SAPS   H7R 9125   4.554   2.402   7.280 -0.5219 -0.3816 -2.0511
   93SAPS   H7S 9126   4.473   2.273   7.358  0.7191  0.6820  0.1022
   93SAPS   C28 9127   4.416   2.467   7.431  0.1838 -0.9164 -0.1964
   93SAPS   H8R 9128   4.313   2.506   7.435  0.9958  1.6895 -1.8881
   93SAPS   C29 9129   4.491   2.507   7.532  0.3433 -0.1862  0.2857
   93SAPS   H9R 9130   4.444   2.566   7.613  0.7933  1.9281 -0.9074
   93SAPS  C210 9131   4.630   2.477   7.556 -0.0244 -0.2812 -0.9114
   93SAPS  H10R 9132   4.676   2.549   7.628  0.1159 -0.1824 -1.0966
   93SAPS  H10S 9133   4.671   2.484   7.452 -3.1041 -2.2542 -2.3887
   93SAPS  C211 9134   4.679   2.342   7.604 -0.2894 -0.5847  0.3659
   93SAPS  H11R 9135   4.628   2.260   7.552  0.3462 -0.7048 -0.0843
   93SAPS  C212 9136   4.766   2.313   7.702 -0.7988 -0.6659  0.3046
   93SAPS  H12R 9137   4.775   2.205   7.724  0.3155 -0.1917  2.4828
   93SAPS  C213 9138   4.832   2.414   7.791  0.7316 -0.0805  0.6904
   93SAPS  H13R 9139   4.796   2.397   7.895 -0.3420 -0.5016  0.2603
   93SAPS  H13S 9140   4.804   2.515   7.754  1.0627 -0.4513 -0.6221
   93SAPS  C214 9141   4.978   2.406   7.788 -0.0124  0.1314 -0.2422
   93SAPS  H14R 9142   5.021   2.366   7.695  0.2285  2.1832 -1.0682
   93SAPS  C215 9143   5.063   2.438   7.886 -0.0163 -0.6570  0.0276
   93SAPS  H15R 9144   5.168   2.418   7.860  0.0808  2.0979 -2.1608
   93SAPS  C216 9145   5.025   2.484   8.025  0.5925  0.3344 -0.1537
   93SAPS  H16R 9146   4.918   2.515   8.027  0.6777  0.7852 -1.5737
   93SAPS  H16S 9147   5.080   2.575   8.054  0.8434  0.0156  0.3822
   93SAPS  C217 9148   5.047   2.376   8.130 -0.7989 -0.0511  0.9427
   93SAPS  H17R 9149   5.153   2.352   8.150 -0.7489  0.8018  1.7565
   93SAPS  H17S 9150   5.009   2.283   8.082  1.5345 -0.1278 -0.9142
   93SAPS  C218 9151   4.978   2.392   8.268  0.6224 -0.9471 -0.2134
   93SAPS  H18R 9152   4.874   2.426   8.248  1.5510  1.4803 -1.3221
   93SAPS  H18S 9153   5.032   2.470   8.326 -0.7761 -0.5991  0.6480
   93SAPS  C219 9154   4.967   2.256   8.344  0.0734  0.6136  0.6416
   93SAPS  H19R 9155   5.061   2.197   8.335 -0.3924  0.2044 -4.0470
   93SAPS  H19S 9156   4.887   2.188   8.308  2.0717 -2.3784  1.3940
   93SAPS  C220 9157   4.927   2.288   8.487 -0.1524  0.1148 -0.4982
   93SAPS  H20R 9158   4.932   2.200   8.555 -1.0248  1.1212  0.9164
   93SAPS  H20S 9159   4.827   2.336   8.491  0.6948  2.0631 -1.3899
   93SAPS  H20T 9160   4.997   2.362   8.529  1.3175 -1.9932  0.9936
   93SAPS   C33 9161   4.695   2.881   6.927  0.2754  0.1454 -0.2467
   93SAPS   H3X 9162   4.623   2.960   6.897 -1.0850 -2.0333 -3.2161
   93SAPS   H3Y 9163   4.798   2.915   6.948 -0.3789  2.1859 -0.0964
   93SAPS   C34 9164   4.632   2.814   7.048 -0.2470  0.4544  0.5571
   93SAPS   H4X 9165   4.678   2.716   7.073 -0.1756 -0.0089 -1.2929
   93SAPS   H4Y 9166   4.524   2.789   7.037  0.0134  0.2321 -1.9095
   93SAPS   C35 9167   4.649   2.905   7.173 -0.5361 -0.3154  0.6162
   93SAPS   H5X 9168   4.606   3.007   7.161  1.5633  0.4626 -0.7463
   93SAPS   H5Y 9169   4.759   2.916   7.183 -0.5717  1.9766 -0.8126
   93SAPS   C36 9170   4.595   2.840   7.294  0.3304  0.3778  0.0366
   93SAPS   H6X 9171   4.670   2.760   7.305 -0.0162 -0.0658 -0.7292
   93SAPS   H6Y 9172   4.499   2.791   7.267  2.3329 -2.6771 -2.2760
   93SAPS   C37 9173   4.580   2.922   7.418  0.0915 -0.4923 -0.6781
   93SAPS   H7X 9174   4.512   3.008   7.401  0.8197  0.1697 -0.3213
   93SAPS   H7Y 9175   4.678   2.969   7.441  0.3173 -0.1075 -2.3195
   93SAPS   C38 9176   4.544   2.839   7.547 -0.0482 -0.0467  0.1755
   93SAPS   H8X 9177   4.608   2.748   7.553  0.8752  0.6351  0.9483
   93SAPS   H8Y 9178   4.436   2.814   7.550 -0.3553  1.1921 -0.0845
   93SAPS   C39 9179   4.578   2.914   7.681 -0.4629 -0.4647  0.1468
   93SAPS   H9X 9180   4.513   3.001   7.703  1.0920  0.1906  2.5479
   93SAPS   H9Y 9181   4.682   2.954   7.673 -1.3555  2.7772  2.6664
   93SAPS  C310 9182   4.583   2.817   7.797 -0.6025 -0.1134 -0.1105
   93SAPS  H10X 9183   4.660   2.739   7.786 -0.6876 -0.1612 -0.3673
   93SAPS  H10Y 9184   4.488   2.761   7.810 -1.1840  0.6729 -0.8641
   93SAPS  C311 9185   4.608   2.892   7.935  0.0130  0.4531 -0.2619
   93SAPS  H11X 9186   4.521   2.956   7.961  0.9409  2.3072 -1.5303
   93SAPS  H11Y 9187   4.697   2.958   7.928 -1.0371  2.1327  1.2665
   93SAPS  C312 9188   4.633   2.796   8.050 -0.6383  0.1697 -0.7862
   93SAPS  H12X 9189   4.738   2.758   8.046  0.7062  3.5459 -0.9727
   93SAPS  H12Y 9190   4.564   2.712   8.030 -0.3988 -0.0258 -0.8048
   93SAPS  C313 9191   4.606   2.841   8.193 -0.4515  0.1458 -0.3958
   93SAPS  H13X 9192   4.503   2.882   8.182  0.3881  1.9896 -2.1400
   93SAPS  H13Y 9193   4.672   2.929   8.210 -1.4690  0.7224  0.7276
   93SAPS  C314 9194   4.625   2.735   8.296  0.0236  0.2883  0.1823
   93SAPS  H14X 9195   4.730   2.699   8.303  0.3902  1.4532  0.8118
   93SAPS  H14Y 9196   4.572   2.644   8.261 -1.4251  0.1769  2.4503
   93SAPS  C315 9197   4.580   2.781   8.442 -0.2464  0.2436 -0.0072
   93SAPS  H15X 9198   4.470   2.789   8.436 -0.3644 -0.5226  0.8837
   93SAPS  H15Y 9199   4.619   2.880   8.475  2.3739 -1.3038  1.9187
   93SAPS  C316 9200   4.620   2.682   8.547  0.8461 -0.1923  0.4897
   93SAPS  H16X 9201   4.725   2.649   8.534  0.5353  0.0149 -4.0533
   93SAPS  H16Y 9202   4.573   2.585   8.520  1.9306 -0.3857 -0.8175
   93SAPS  C317 9203   4.576   2.730   8.680  0.5815  1.3502  0.0746
   93SAPS  H17X 9204   4.472   2.770   8.676 -1.1660 -2.4230  1.9843
   93SAPS  H17Y 9205   4.635   2.819   8.709  0.8956  0.7268  1.4036
   93SAPS  C318 9206   4.578   2.628   8.796 -0.4102 -0.6391 -0.5314
   93SAPS  H18X 9207   4.529   2.672   8.885  1.1567 -1.7305  0.9393
   93SAPS  H18Y 9208   4.684   2.599   8.815  0.1077  0.7479 -1.1645
   93SAPS  H18Z 9209   4.510   2.544   8.770 -1.1535 -0.1605 -0.1622
   94SAPS     N 9210   4.983   4.706   5.970  0.1315 -0.4585  0.2924
   94SAPS   HN1 9211   4.947   4.629   6.029  1.0924 -2.3473 -1.4894
   94SAPS   HN2 9212   5.020   4.669   5.881  1.4035 -0.1589  0.6696
   94SAPS   HN3 9213   5.065   4.750   6.016 -0.5176  0.6460  0.4418
   94SAPS   C12 9214   4.876   4.811   5.949 -0.1223 -0.0597  0.2182
   94SAPS  H12A 9215   4.817   4.816   6.039  0.0962 -2.4041  0.5593
   94SAPS   C13 9216   4.940   4.951   5.929 -0.0866  0.5700  0.2318
   94SAPS  O13A 9217   5.063   4.963   5.921 -0.5702 -0.0954 -0.1510
   94SAPS  O13B 9218   4.855   5.042   5.895  0.1175 -0.0609  0.2351
   94SAPS   C11 9219   4.782   4.770   5.826 -0.2822 -0.1359 -0.1504
   94SAPS  H11A 9220   4.855   4.757   5.744  0.0582 -0.6708  0.2272
   94SAPS  H11B 9221   4.724   4.858   5.792  0.8685  0.7468  0.1428
   94SAPS     P 9222   4.593   4.626   5.922  0.0344  0.2552 -0.3868
   94SAPS   O13 9223   4.488   4.718   5.881 -0.7133 -0.3137  0.3134
   94SAPS   O14 9224   4.558   4.482   5.912 -0.1744 -0.4062 -0.0525
   94SAPS   O12 9225   4.719   4.647   5.837 -0.3704 -0.2132 -0.5708
   94SAPS   O11 9226   4.641   4.649   6.070  0.1236 -0.0290  0.1020
   94SAPS    C1 9227   4.545   4.694   6.174  0.2553  0.3582 -0.0446
   94SAPS    HA 9228   4.450   4.637   6.167  1.2437 -1.3508 -0.1223
   94SAPS    HB 9229   4.582   4.644   6.266  2.0888  1.9994  0.1685
   94SAPS    C2 9230   4.525   4.844   6.188  0.2254  0.7858  0.0717
   94SAPS    HS 9231   4.480   4.892   6.098  1.8781 -1.0940 -1.8398
   94SAPS   O21 9232   4.649   4.900   6.207 -0.6269  0.3119  0.8615
   94SAPS   C21 9233   4.674   5.026   6.183  0.2935 -0.6020 -0.6128
   94SAPS   O22 9234   4.599   5.100   6.124  0.1071  0.0181  0.4979
   94SAPS   C22 9235   4.814   5.067   6.233  0.2933  0.1298 -0.4317
   94SAPS   H2R 9236   4.886   4.984   6.213 -1.4627 -1.2293 -1.3969
   94SAPS   H2S 9237   4.849   5.151   6.170 -2.8872  1.2425 -0.8925
   94SAPS    C3 9238   4.431   4.880   6.310 -0.4219 -0.6529 -0.1026
   94SAPS    HX 9239   4.330   4.856   6.270 -1.2160  0.5361  1.0885
   94SAPS    HY 9240   4.436   4.990   6.323 -0.7394 -0.2525 -2.8721
   94SAPS   O31 9241   4.469   4.807   6.428  0.4570 -0.0642 -0.8309
   94SAPS   C31 9242   4.372   4.732   6.485 -0.6628 -0.0565  0.1596
   94SAPS   O32 9243   4.258   4.719   6.438 -0.8386  0.0619 -0.5041
   94SAPS   C32 9244   4.422   4.677   6.619  0.1654  0.2272  0.4042
   94SAPS   H2X 9245   4.499   4.744   6.661  0.8834 -0.7294  0.6479
   94SAPS   H2Y 9246   4.471   4.579   6.598 -1.1667  0.2022 -3.6353
   94SAPS   C23 9247   4.809   5.095   6.385  0.0505 -0.7515 -0.0001
   94SAPS   H3R 9248   4.795   4.997   6.436 -2.2115 -1.2281 -1.3989
   94SAPS   H3S 9249   4.728   5.168   6.408  0.4553 -0.0813 -0.6684
   94SAPS   C24 9250   4.936   5.159   6.433  0.2087 -0.3018  0.9476
   94SAPS   H4R 9251   5.023   5.097   6.402 -0.9667 -1.3999 -0.2783
   94SAPS   H4S 9252   4.939   5.152   6.544  2.5526 -0.7955  0.9187
   94SAPS   C25 9253   4.955   5.305   6.392  1.3848 -0.8671 -0.6995
   94SAPS   H5R 9254   5.000   5.320   6.293 -0.8464 -0.8120 -1.7650
   94SAPS   C26 9255   4.922   5.414   6.467 -0.1429 -0.1685 -0.6448
   94SAPS   H6R 9256   4.939   5.510   6.416  0.8669 -0.9908 -1.8915
   94SAPS   C27 9257   4.851   5.413   6.600 -0.7608  0.2106 -0.7973
   94SAPS   H7R 9258   4.931   5.389   6.673  0.5605 -0.4645 -2.3702
   94SAPS   H7S 9259   4.778   5.328   6.601 -1.3812  0.7029 -2.0145
   94SAPS   C28 9260   4.784   5.539   6.636 -1.4214 -0.2067 -0.3233
   94SAPS   H8R 9261   4.816   5.631   6.585 -0.4203 -0.6747 -0.5766
   94SAPS   C29 9262   4.719   5.560   6.755 -0.0393 -0.4538  1.1489
   94SAPS   H9R 9263   4.705   5.663   6.789 -0.8232 -0.4972  0.9791
   94SAPS  C210 9264   4.692   5.453   6.861  0.6567 -0.5491 -0.1193
   94SAPS  H10R 9265   4.756   5.364   6.845  0.1061 -1.1377  0.9034
   94SAPS  H10S 9266   4.585   5.424   6.862  0.4532  0.0942 -1.2890
   94SAPS  C211 9267   4.728   5.510   6.996 -0.2654  0.3197 -0.1614
   94SAPS  H11R 9268   4.774   5.610   7.008  0.5233 -0.0978  0.3888
   94SAPS  C212 9269   4.698   5.448   7.113 -1.1307 -0.0675 -0.6722
   94SAPS  H12R 9270   4.742   5.491   7.204  1.1971 -3.3273 -0.1240
   94SAPS  C213 9271   4.630   5.317   7.122 -1.1087  0.1980 -0.3312
   94SAPS  H13R 9272   4.652   5.251   7.035 -0.3769 -0.6517  0.4689
   94SAPS  H13S 9273   4.522   5.341   7.124 -0.5310  3.1161 -0.3649
   94SAPS  C214 9274   4.660   5.231   7.241 -0.0971  0.0846 -0.1417
   94SAPS  H14R 9275   4.737   5.154   7.228 -1.5777 -1.4240 -0.2585
   94SAPS  C215 9276   4.606   5.251   7.363  0.7741 -0.3447  0.2306
   94SAPS  H15R 9277   4.630   5.186   7.448  1.7905 -0.9506 -0.5145
   94SAPS  C216 9278   4.496   5.355   7.394  0.0750 -0.3202 -0.3351
   94SAPS  H16R 9279   4.484   5.433   7.315 -1.6563  2.0366  2.0675
   94SAPS  H16S 9280   4.527   5.410   7.485  0.9234 -2.5047  0.7522
   94SAPS  C217 9281   4.357   5.284   7.415  0.2663 -0.3957  0.6356
   94SAPS  H17R 9282   4.358   5.189   7.358 -1.1336  0.5642 -1.0931
   94SAPS  H17S 9283   4.278   5.353   7.377 -0.9357 -2.2408 -0.3315
   94SAPS  C218 9284   4.332   5.256   7.565 -0.3015 -0.6597 -0.3888
   94SAPS  H18R 9285   4.420   5.199   7.604 -0.0081  1.8342  3.0113
   94SAPS  H18S 9286   4.241   5.194   7.581  1.5352 -4.2412 -2.3746
   94SAPS  C219 9287   4.308   5.388   7.647  0.1330  0.0884  1.0919
   94SAPS  H19R 9288   4.229   5.441   7.592  0.5193 -1.9478 -1.6383
   94SAPS  H19S 9289   4.404   5.444   7.658  0.8027 -0.6002 -0.8093
   94SAPS  C220 9290   4.254   5.370   7.786 -0.9089 -0.2341  1.0685
   94SAPS  H20R 9291   4.154   5.323   7.779 -1.3784  1.0267 -2.0118
   94SAPS  H20S 9292   4.247   5.466   7.841 -0.6904  0.3462  0.0997
   94SAPS  H20T 9293   4.325   5.304   7.841  0.4431 -0.4361 -0.8152
   94SAPS   C33 9294   4.306   4.668   6.727 -0.8912 -0.2788  0.2593
   94SAPS   H3X 9295   4.233   4.588   6.701 -1.1692  0.2794 -0.7445
   94SAPS   H3Y 9296   4.255   4.766   6.734  1.8438  1.1193  2.5473
   94SAPS   C34 9297   4.368   4.616   6.859  0.1953 -0.1505 -0.0194
   94SAPS   H4X 9298   4.422   4.697   6.913 -2.7848  1.2857  1.0781
   94SAPS   H4Y 9299   4.438   4.531   6.845 -0.2190 -1.1343  3.0864
   94SAPS   C35 9300   4.253   4.562   6.954  0.1010  0.4671 -0.3627
   94SAPS   H5X 9301   4.309   4.535   7.047  2.4046  0.6219 -1.6260
   94SAPS   H5Y 9302   4.198   4.472   6.919 -0.7814  1.4865 -1.6711
   94SAPS   C36 9303   4.140   4.650   6.995  0.0773  0.2152  0.3250
   94SAPS   H6X 9304   4.087   4.688   6.905  0.6867  0.3365  0.0104
   94SAPS   H6Y 9305   4.186   4.739   7.044 -0.3552  0.7399 -0.2084
   94SAPS   C37 9306   4.036   4.585   7.094 -0.0465  0.1508  0.5517
   94SAPS   H7X 9307   4.094   4.555   7.184 -0.5526  0.2391  0.9095
   94SAPS   H7Y 9308   3.987   4.496   7.049 -0.3779  0.6286 -0.0444
   94SAPS   C38 9309   3.929   4.683   7.142 -0.8049  0.0189 -0.6269
   94SAPS   H8X 9310   3.854   4.703   7.062 -0.5486 -0.2035 -0.9270
   94SAPS   H8Y 9311   3.966   4.787   7.159  0.9272 -0.6804  0.1207
   94SAPS   C39 9312   3.854   4.647   7.269  0.0662  0.2587 -0.5003
   94SAPS   H9X 9313   3.828   4.539   7.266  2.1954 -0.3443  0.6053
   94SAPS   H9Y 9314   3.754   4.695   7.259 -0.0590 -0.2704 -2.0228
   94SAPS  C310 9315   3.920   4.686   7.401  0.0909 -0.5266 -0.0954
   94SAPS  H10X 9316   3.946   4.793   7.396 -2.9972  0.5431  2.5917
   94SAPS  H10Y 9317   4.006   4.625   7.436 -0.3904 -0.5007  1.2011
   94SAPS  C311 9318   3.813   4.687   7.508 -0.2033  0.4000 -0.2397
   94SAPS  H11X 9319   3.773   4.585   7.527  1.1529 -0.1550 -0.2778
   94SAPS  H11Y 9320   3.728   4.754   7.480 -0.3986  0.0879 -0.3915
   94SAPS  C312 9321   3.878   4.752   7.642 -0.0842 -0.2009  0.1074
   94SAPS  H12X 9322   3.912   4.852   7.606  0.9801 -0.9799 -1.1233
   94SAPS  H12Y 9323   3.963   4.692   7.680  0.2131  0.7739  1.0367
   94SAPS  C313 9324   3.774   4.756   7.761  0.7421 -0.1445  0.1873
   94SAPS  H13X 9325   3.697   4.827   7.725  1.3531  0.6818  0.4686
   94SAPS  H13Y 9326   3.821   4.808   7.848  2.4692 -0.2219 -0.6508
   94SAPS  C314 9327   3.721   4.617   7.803 -0.7306 -0.9581 -0.0974
   94SAPS  H14X 9328   3.808   4.549   7.817  3.4378  3.9720  0.6738
   94SAPS  H14Y 9329   3.663   4.565   7.723  0.3709 -1.2560 -0.7247
   94SAPS  C315 9330   3.638   4.617   7.936  0.3609 -0.9586 -0.3019
   94SAPS  H15X 9331   3.564   4.699   7.932  0.2539 -0.7433  3.2016
   94SAPS  H15Y 9332   3.708   4.656   8.013  2.2092 -0.6482 -2.0544
   94SAPS  C316 9333   3.583   4.478   7.968 -0.2710 -0.1417  0.1043
   94SAPS  H16X 9334   3.666   4.405   7.979 -1.4758 -1.5549  0.1902
   94SAPS  H16Y 9335   3.511   4.456   7.886  0.8282  1.0600 -1.2444
   94SAPS  C317 9336   3.509   4.473   8.094  0.3703  0.3531  0.3242
   94SAPS  H17X 9337   3.461   4.374   8.105  0.0864  0.3175 -1.1291
   94SAPS  H17Y 9338   3.434   4.554   8.086  0.6597  0.7775  1.6659
   94SAPS  C318 9339   3.594   4.504   8.220 -0.5504 -0.5264 -0.5296
   94SAPS  H18X 9340   3.665   4.422   8.243 -0.0412  0.2017  0.5662
   94SAPS  H18Y 9341   3.524   4.518   8.306 -1.4632 -0.1080 -1.3187
   94SAPS  H18Z 9342   3.645   4.602   8.212 -1.9224  0.0311 -3.5817
   95SAPS     N 9343   2.211   0.703   6.221 -0.4729 -0.0538  0.3551
   95SAPS   HN1 9344   2.252   0.779   6.162 -0.9810 -0.6015 -0.7422
   95SAPS   HN2 9345   2.179   0.722   6.318 -0.2550 -1.0627  0.6325
   95SAPS   HN3 9346   2.293   0.642   6.239 -1.3216 -0.9973  1.1280
   95SAPS   C12 9347   2.101   0.636   6.145  0.7275 -0.4545 -0.7015
   95SAPS  H12A 9348   2.127   0.620   6.041 -0.0565  1.8184 -1.2916
   95SAPS   C13 9349   2.057   0.504   6.210  0.0884 -0.5457  0.6201
   95SAPS  O13A 9350   2.114   0.456   6.310  0.3379 -0.1937 -0.0608
   95SAPS  O13B 9351   1.961   0.446   6.160  0.1440  1.0410 -0.1668
   95SAPS   C11 9352   1.978   0.726   6.126  0.5053  0.4627 -0.3820
   95SAPS  H11A 9353   1.937   0.761   6.223 -0.2383  0.7241 -0.7768
   95SAPS  H11B 9354   1.900   0.674   6.065 -2.8600  3.2088  1.2183
   95SAPS     P 9355   2.032   0.986   6.069  0.3999  0.0322 -0.6680
   95SAPS   O13 9356   2.107   1.054   5.958 -0.0129  0.1862 -0.0114
   95SAPS   O14 9357   1.894   1.049   6.090  0.2922  0.5304  0.3365
   95SAPS   O12 9358   2.016   0.833   6.042 -0.1522 -0.1779  0.3472
   95SAPS   O11 9359   2.111   0.998   6.200  0.0353  0.4710 -0.0385
   95SAPS    C1 9360   2.166   1.130   6.239 -0.0949  0.0254 -0.3003
   95SAPS    HA 9361   2.260   1.156   6.185  1.1161  0.2889  1.8136
   95SAPS    HB 9362   2.092   1.212   6.229  2.6122  2.8922  1.4060
   95SAPS    C2 9363   2.220   1.121   6.385  0.3119  0.0284  0.3148
   95SAPS    HS 9364   2.300   1.045   6.374 -1.2227 -1.8198  1.2574
   95SAPS   O21 9365   2.119   1.076   6.479 -0.3667 -0.2072 -0.3418
   95SAPS   C21 9366   2.115   0.944   6.500 -0.2101 -0.3665 -0.3541
   95SAPS   O22 9367   2.183   0.858   6.451  0.0431  0.1527  0.0143
   95SAPS   C22 9368   2.012   0.910   6.600 -0.7255 -1.0372  1.0351
   95SAPS   H2R 9369   1.931   0.984   6.581 -0.2332 -0.8247 -0.3479
   95SAPS   H2S 9370   1.978   0.807   6.578 -2.2829 -0.0381 -1.8294
   95SAPS    C3 9371   2.273   1.259   6.432  1.6613  0.2507  0.3321
   95SAPS    HX 9372   2.189   1.332   6.437  0.8718 -0.7160  1.5367
   95SAPS    HY 9373   2.348   1.296   6.359  0.6094 -0.1881 -1.0194
   95SAPS   O31 9374   2.327   1.232   6.556 -0.1144  0.2161  0.0770
   95SAPS   C31 9375   2.268   1.279   6.663 -0.3153  0.1319  0.1273
   95SAPS   O32 9376   2.173   1.356   6.669  0.5044 -0.2281  0.6122
   95SAPS   C32 9377   2.322   1.210   6.785  0.2664 -0.9752  0.4038
   95SAPS   H2X 9378   2.428   1.237   6.804  0.3620 -0.7853 -0.3643
   95SAPS   H2Y 9379   2.313   1.101   6.763 -1.6847 -0.9182  0.7553
   95SAPS   C23 9380   2.066   0.913   6.747  0.9988  0.5571 -0.5143
   95SAPS   H3R 9381   1.977   0.915   6.814  1.9495 -1.2740  0.9166
   95SAPS   H3S 9382   2.110   1.012   6.771 -0.4917  1.6090 -1.9145
   95SAPS   C24 9383   2.166   0.803   6.784  0.4041 -0.0245 -0.4883
   95SAPS   H4R 9384   2.254   0.808   6.717  0.0292 -1.6569 -1.1394
   95SAPS   H4S 9385   2.128   0.700   6.765 -0.7074  0.4902 -1.1464
   95SAPS   C25 9386   2.202   0.808   6.932 -0.1117  0.0145  0.4094
   95SAPS   H5R 9387   2.297   0.860   6.949 -0.1637 -0.3010  1.7168
   95SAPS   C26 9388   2.141   0.750   7.039 -0.4092 -0.5412 -0.1583
   95SAPS   H6R 9389   2.186   0.754   7.139  2.6929 -0.3737 -1.4653
   95SAPS   C27 9390   2.009   0.672   7.032 -0.0673 -0.1022 -0.6244
   95SAPS   H7R 9391   1.963   0.669   6.931  0.1165 -2.6599 -0.6952
   95SAPS   H7S 9392   1.932   0.720   7.097  0.0287 -1.0995  0.2747
   95SAPS   C28 9393   2.036   0.533   7.068 -0.2443  0.3653 -0.5890
   95SAPS   H8R 9394   2.048   0.465   6.982  1.3683 -1.2278  0.8087
   95SAPS   C29 9395   2.062   0.478   7.189 -0.1772  0.4223  0.0930
   95SAPS   H9R 9396   2.094   0.373   7.192  1.7421  0.9853  0.6112
   95SAPS  C210 9397   2.067   0.556   7.319 -0.2390  0.2337 -0.3649
   95SAPS  H10R 9398   2.001   0.509   7.395  0.2794  1.9174  1.2231
   95SAPS  H10S 9399   2.025   0.659   7.310 -0.2827  0.0788 -2.4354
   95SAPS  C211 9400   2.212   0.569   7.355  0.5365 -0.3471  0.0888
   95SAPS  H11R 9401   2.271   0.618   7.276  2.8390 -0.1169  1.8471
   95SAPS  C212 9402   2.283   0.527   7.462  0.3386  0.4058 -0.6416
   95SAPS  H12R 9403   2.391   0.548   7.456  1.3041 -3.2901  0.8228
   95SAPS  C213 9404   2.237   0.453   7.581  0.1676 -0.3322 -0.0568
   95SAPS  H13R 9405   2.259   0.347   7.560  1.9759 -0.0032 -0.0399
   95SAPS  H13S 9406   2.127   0.469   7.582 -0.2603 -2.8636  1.1124
   95SAPS  C214 9407   2.290   0.505   7.717 -0.1970  0.2790  0.2064
   95SAPS  H14R 9408   2.329   0.607   7.726  0.2736  0.3056 -1.7751
   95SAPS  C215 9409   2.283   0.437   7.826 -0.1968  0.1435 -0.2634
   95SAPS  H15R 9410   2.316   0.484   7.920 -0.5156  1.6581 -0.8779
   95SAPS  C216 9411   2.233   0.294   7.829 -0.3567 -0.3800  0.0696
   95SAPS  H16R 9412   2.175   0.266   7.739 -2.1806 -0.4774  1.2303
   95SAPS  H16S 9413   2.166   0.282   7.917 -0.2547 -0.8885  0.0799
   95SAPS  C217 9414   2.354   0.200   7.838  0.2938  0.1535  0.1384
   95SAPS  H17R 9415   2.428   0.235   7.763 -1.0416  1.7118 -0.5293
   95SAPS  H17S 9416   2.332   0.098   7.802 -1.1073  0.2945  0.5217
   95SAPS  C218 9417   2.405   0.188   7.983  0.1864 -0.1906  0.3395
   95SAPS  H18R 9418   2.335   0.167   8.066  0.6825  1.3245  1.1864
   95SAPS  H18S 9419   2.452   0.286   8.008  0.6760 -0.1645 -0.6340
   95SAPS  C219 9420   2.512   0.077   7.984  0.0025 -0.1739  0.2011
   95SAPS  H19R 9421   2.601   0.124   7.937 -0.4366  0.3978 -0.0696
   95SAPS  H19S 9422   2.465  -0.004   7.925  0.4536  0.5603 -1.2215
   95SAPS  C220 9423   2.552   0.025   8.123  0.2261  0.2530 -0.2349
   95SAPS  H20R 9424   2.474  -0.030   8.180  1.1456  0.8409  1.6926
   95SAPS  H20S 9425   2.594   0.115   8.174 -1.6496  1.6324 -1.0108
   95SAPS  H20T 9426   2.625  -0.056   8.102 -0.5361 -1.2776  2.5219
   95SAPS   C33 9427   2.234   1.239   6.911  0.1557 -0.2684  0.3985
   95SAPS   H3X 9428   2.129   1.203   6.898 -0.0215  0.3073  0.1971
   95SAPS   H3Y 9429   2.225   1.346   6.938  0.5645 -0.1004 -0.1211
   95SAPS   C34 9430   2.291   1.174   7.039 -0.7347  0.4497  0.1435
   95SAPS   H4X 9431   2.397   1.206   7.054 -0.3876  0.5925 -2.2260
   95SAPS   H4Y 9432   2.292   1.066   7.013 -0.0724  0.4221  0.2530
   95SAPS   C35 9433   2.203   1.195   7.162 -0.3070  0.3797 -0.4091
   95SAPS   H5X 9434   2.097   1.191   7.128 -0.4567  3.7901 -0.6644
   95SAPS   H5Y 9435   2.214   1.295   7.209  3.7543 -0.4146  0.7504
   95SAPS   C36 9436   2.240   1.095   7.276  0.1180 -0.0891 -1.1374
   95SAPS   H6X 9437   2.350   1.092   7.291  0.0440 -1.5615 -0.6496
   95SAPS   H6Y 9438   2.205   0.993   7.251 -1.2585  0.0861 -0.0132
   95SAPS   C37 9439   2.174   1.128   7.409 -0.8122 -0.7829  0.9386
   95SAPS   H7X 9440   2.065   1.111   7.399 -0.5385 -2.3407  0.3149
   95SAPS   H7Y 9441   2.194   1.236   7.429  0.6104 -0.9673  0.6559
   95SAPS   C38 9442   2.227   1.054   7.526 -0.1942  0.7112  0.1459
   95SAPS   H8X 9443   2.333   1.085   7.544 -0.0931  1.9259 -2.1207
   95SAPS   H8Y 9444   2.224   0.949   7.491 -2.4298  1.6157 -2.8113
   95SAPS   C39 9445   2.134   1.073   7.651 -0.7034 -0.4152 -0.5429
   95SAPS   H9X 9446   2.039   1.019   7.632 -0.2516 -1.6707  0.5887
   95SAPS   H9Y 9447   2.117   1.183   7.655 -0.4362 -0.3443 -1.1947
   95SAPS  C310 9448   2.187   1.020   7.783  0.8622 -0.1675 -0.3353
   95SAPS  H10X 9449   2.295   1.034   7.806  1.2495 -1.4364 -1.2411
   95SAPS  H10Y 9450   2.174   0.910   7.790  0.2122 -0.0816 -0.1790
   95SAPS  C311 9451   2.117   1.088   7.904  0.6866  0.3767 -0.5428
   95SAPS  H11X 9452   2.008   1.081   7.888  0.7262  2.2684 -1.9513
   95SAPS  H11Y 9453   2.151   1.194   7.910  1.2716  0.1219  1.8476
   95SAPS  C312 9454   2.151   1.026   8.037 -0.2512 -0.2854 -0.0852
   95SAPS  H12X 9455   2.239   1.079   8.079 -0.0656 -0.6337 -0.0288
   95SAPS  H12Y 9456   2.165   0.916   8.033 -0.8226 -0.5381  2.6239
   95SAPS  C313 9457   2.057   1.057   8.158 -0.0074 -0.1036  0.4423
   95SAPS  H13X 9458   1.960   1.007   8.137 -1.3589  2.8032 -0.7163
   95SAPS  H13Y 9459   2.039   1.165   8.140 -2.3437 -0.4789  0.2427
   95SAPS  C314 9460   2.105   1.025   8.303 -0.7016  0.1826  0.3642
   95SAPS  H14X 9461   2.049   1.082   8.380 -0.3591 -0.8365  1.3953
   95SAPS  H14Y 9462   2.211   1.057   8.307  1.1808 -5.0661 -0.3731
   95SAPS  C315 9463   2.104   0.878   8.328 -0.3451  0.4941  0.2767
   95SAPS  H15X 9464   2.163   0.817   8.256 -0.3068 -0.5006  1.1361
   95SAPS  H15Y 9465   2.003   0.832   8.321  0.7083 -2.1562  1.1895
   95SAPS  C316 9466   2.157   0.844   8.464 -0.1833  0.1703 -0.2489
   95SAPS  H16X 9467   2.093   0.900   8.535 -0.3682  1.5898 -1.5050
   95SAPS  H16Y 9468   2.262   0.879   8.478 -0.3517  0.9573 -0.9409
   95SAPS  C317 9469   2.154   0.700   8.507 -0.6740  0.1810 -0.5248
   95SAPS  H17X 9470   2.228   0.639   8.452  1.3758  2.3429 -0.3183
   95SAPS  H17Y 9471   2.048   0.666   8.502 -1.1188  1.4359 -0.2348
   95SAPS  C318 9472   2.210   0.690   8.653 -0.0877  0.1061 -0.1998
   95SAPS  H18X 9473   2.165   0.773   8.713 -0.6042  0.8833 -1.6250
   95SAPS  H18Y 9474   2.320   0.698   8.651  0.1267 -2.0007  0.2444
   95SAPS  H18Z 9475   2.190   0.591   8.701 -2.5436 -0.3432 -1.9256
   96SAPS     N 9476   2.044   2.438   6.250 -0.0538 -0.3226 -0.3104
   96SAPS   HN1 9477   2.144   2.438   6.275 -0.3736 -0.2639  1.0324
   96SAPS   HN2 9478   2.000   2.344   6.261 -1.7572  0.5004  0.3533
   96SAPS   HN3 9479   2.041   2.466   6.150 -1.1739  0.4530 -0.0801
   96SAPS   C12 9480   1.964   2.540   6.328  0.2094  0.3497  0.1781
   96SAPS  H12A 9481   1.973   2.507   6.431 -2.1347  0.8746  0.6096
   96SAPS   C13 9482   2.020   2.683   6.318 -0.5877  0.2250  0.1817
   96SAPS  O13A 9483   1.965   2.777   6.383 -0.9696  0.5462 -0.1009
   96SAPS  O13B 9484   2.126   2.698   6.249  0.3088  0.1876  0.1899
   96SAPS   C11 9485   1.816   2.543   6.291 -0.4303 -0.1096 -0.0014
   96SAPS  H11A 9486   1.812   2.588   6.190 -0.5809  0.3691  0.2142
   96SAPS  H11B 9487   1.762   2.604   6.366 -0.8592 -3.7863  3.0325
   96SAPS     P 9488   1.608   2.407   6.231  0.1755  0.1875  0.4124
   96SAPS   O13 9489   1.621   2.419   6.079  0.5567 -0.1388 -0.4836
   96SAPS   O14 9490   1.531   2.288   6.284  0.0478  0.1672 -0.0445
   96SAPS   O12 9491   1.749   2.412   6.292  0.5981 -0.1947 -0.0549
   96SAPS   O11 9492   1.544   2.532   6.304 -0.2102  0.2726  0.1383
   96SAPS    C1 9493   1.452   2.519   6.409 -0.1665 -0.2496 -0.0524
   96SAPS    HA 9494   1.358   2.477   6.367  0.2123 -0.3017 -0.8598
   96SAPS    HB 9495   1.494   2.450   6.486 -1.9718 -0.0291  1.1778
   96SAPS    C2 9496   1.409   2.658   6.463  0.2425  0.2798 -0.1973
   96SAPS    HS 9497   1.378   2.717   6.374  1.7053 -1.0712 -1.6708
   96SAPS   O21 9498   1.527   2.724   6.520  0.0390  0.3476  0.9722
   96SAPS   C21 9499   1.508   2.850   6.540 -0.0815 -0.1143  0.2617
   96SAPS   O22 9500   1.424   2.917   6.482  0.0682 -0.3351  0.0520
   96SAPS   C22 9501   1.602   2.903   6.643 -0.4991  0.3846  0.6810
   96SAPS   H2R 9502   1.696   2.845   6.634 -0.8736 -0.2541  0.8102
   96SAPS   H2S 9503   1.616   3.007   6.608 -0.1504 -0.0321 -0.4701
   96SAPS    C3 9504   1.301   2.645   6.573  0.2967 -0.4887 -0.1225
   96SAPS    HX 9505   1.205   2.603   6.536  0.8622 -0.3118 -1.8519
   96SAPS    HY 9506   1.275   2.749   6.601  0.6375  0.1805 -2.1352
   96SAPS   O31 9507   1.351   2.573   6.691 -0.0232  0.3506  0.8136
   96SAPS   C31 9508   1.282   2.582   6.799 -0.0806  0.2500  0.5710
   96SAPS   O32 9509   1.178   2.643   6.812 -0.1418 -0.3412 -0.3701
   96SAPS   C32 9510   1.332   2.500   6.913  0.3791  0.4481  0.5243
   96SAPS   H2X 9511   1.431   2.536   6.949  0.1082  1.5590  0.2152
   96SAPS   H2Y 9512   1.338   2.393   6.887  2.0183 -0.2761  3.4048
   96SAPS   C23 9513   1.546   2.890   6.786 -0.1704 -0.0124  0.2841
   96SAPS   H3R 9514   1.550   2.782   6.811  0.3709 -0.4717 -1.6172
   96SAPS   H3S 9515   1.440   2.921   6.780 -0.2983 -0.0779  1.7615
   96SAPS   C24 9516   1.617   2.980   6.884 -0.3071  0.2614 -0.1497
   96SAPS   H4R 9517   1.558   2.975   6.978  0.8416 -0.1497  0.5766
   96SAPS   H4S 9518   1.622   3.081   6.839  2.2516  0.6412  0.8036
   96SAPS   C25 9519   1.762   2.934   6.902  0.3786 -0.6708  0.7438
   96SAPS   H5R 9520   1.806   2.911   6.803 -0.2229  1.6891 -0.1523
   96SAPS   C26 9521   1.838   2.914   7.010  0.3069  0.6326 -0.4033
   96SAPS   H6R 9522   1.932   2.860   6.993  0.4786  0.4629  0.9691
   96SAPS   C27 9523   1.792   2.924   7.156 -0.1894  0.0525  0.0268
   96SAPS   H7R 9524   1.815   2.830   7.211  1.9217  0.9645  0.7905
   96SAPS   H7S 9525   1.681   2.929   7.149 -0.0473  0.8012 -2.6426
   96SAPS   C28 9526   1.848   3.049   7.217  0.3997  0.8601 -0.0891
   96SAPS   H8R 9527   1.882   3.130   7.150  1.2588  3.2055  2.9592
   96SAPS   C29 9528   1.856   3.069   7.348 -0.1696 -1.0068 -0.2305
   96SAPS   H9R 9529   1.906   3.161   7.382 -1.7639 -0.2135  0.0765
   96SAPS  C210 9530   1.814   2.978   7.457 -0.5484 -0.1910 -1.0540
   96SAPS  H10R 9531   1.889   2.897   7.466 -0.1902  0.2359 -0.1011
   96SAPS  H10S 9532   1.718   2.927   7.432 -0.3202 -3.2418  3.2392
   96SAPS  C211 9533   1.774   3.035   7.591 -0.2505 -0.7733 -1.5758
   96SAPS  H11R 9534   1.686   3.101   7.590  0.6521  0.6006  0.8804
   96SAPS  C212 9535   1.840   3.026   7.709 -0.4795 -0.1222  0.4899
   96SAPS  H12R 9536   1.796   3.076   7.797 -0.3424  2.0934 -0.6359
   96SAPS  C213 9537   1.966   2.947   7.731  0.5995 -0.4834  0.0167
   96SAPS  H13R 9538   1.999   2.884   7.646  0.4275  0.9250 -1.1249
   96SAPS  H13S 9539   1.948   2.873   7.813 -1.1159 -1.1542 -0.9184
   96SAPS  C214 9540   2.075   3.042   7.759 -0.1754  0.0721 -0.0995
   96SAPS  H14R 9541   2.088   3.120   7.682  2.3524 -0.6812 -0.5290
   96SAPS  C215 9542   2.140   3.059   7.883  0.3873  0.1923  0.7153
   96SAPS  H15R 9543   2.222   3.132   7.884  1.7666 -1.2790 -0.3331
   96SAPS  C216 9544   2.129   2.970   8.004 -0.6098  0.1472 -0.2605
   96SAPS  H16R 9545   2.222   2.961   8.064  0.9590  0.3297 -2.5337
   96SAPS  H16S 9546   2.100   2.870   7.967  0.6321 -0.6404  0.8015
   96SAPS  C217 9547   2.017   3.022   8.102  0.0400 -0.8512  0.1644
   96SAPS  H17R 9548   1.940   3.079   8.046  1.3827  1.8217  0.8763
   96SAPS  H17S 9549   2.068   3.099   8.165  0.6262 -0.6463 -0.5579
   96SAPS  C218 9550   1.959   2.910   8.188 -0.3818  0.3352 -0.0701
   96SAPS  H18R 9551   1.900   2.944   8.275  0.6882  0.4254  0.6476
   96SAPS  H18S 9552   2.045   2.860   8.238  0.1973 -0.3741 -1.6823
   96SAPS  C219 9553   1.873   2.803   8.109 -0.4104 -1.0378 -0.1183
   96SAPS  H19R 9554   1.909   2.798   8.004  0.3678  1.1742 -0.0026
   96SAPS  H19S 9555   1.767   2.835   8.107 -0.0725  0.1027 -0.9449
   96SAPS  C220 9556   1.891   2.663   8.162  0.0149  0.7228 -0.2711
   96SAPS  H20R 9557   1.869   2.664   8.271  1.2661  1.4637 -0.0064
   96SAPS  H20S 9558   1.995   2.630   8.143  0.4291  1.4656  0.6375
   96SAPS  H20T 9559   1.819   2.592   8.115  0.0473  1.3732 -1.3369
   96SAPS   C33 9560   1.238   2.500   7.040 -0.2732 -0.0770 -0.0939
   96SAPS   H3X 9561   1.142   2.455   7.006 -1.3479  0.9465  1.4649
   96SAPS   H3Y 9562   1.214   2.603   7.074 -1.9657 -0.2564 -0.6411
   96SAPS   C34 9563   1.291   2.423   7.158  0.5857 -0.8558 -0.7179
   96SAPS   H4X 9564   1.382   2.471   7.201 -0.9278  1.4196  0.1383
   96SAPS   H4Y 9565   1.326   2.321   7.132  1.0265 -0.8328 -0.2355
   96SAPS   C35 9566   1.192   2.415   7.287 -0.0205  0.6068  0.1707
   96SAPS   H5X 9567   1.095   2.459   7.255 -0.2326 -0.3810 -0.6156
   96SAPS   H5Y 9568   1.230   2.485   7.364  0.4329  0.8267 -0.2483
   96SAPS   C36 9569   1.168   2.280   7.349 -0.1232 -0.0432 -0.0577
   96SAPS   H6X 9570   1.264   2.227   7.371 -1.6552 -2.0453  2.5104
   96SAPS   H6Y 9571   1.114   2.214   7.279 -1.3741  0.4085  0.4569
   96SAPS   C37 9572   1.082   2.293   7.475  0.0661 -0.3371 -0.1952
   96SAPS   H7X 9573   1.052   2.188   7.491 -1.7058  0.3596  1.4147
   96SAPS   H7Y 9574   0.997   2.361   7.455 -0.2927 -0.5470  0.5876
   96SAPS   C38 9575   1.152   2.350   7.603  0.2073 -0.8902  0.0140
   96SAPS   H8X 9576   1.177   2.458   7.587  1.0448 -1.1844 -0.7255
   96SAPS   H8Y 9577   1.245   2.293   7.623  1.3839  0.7501 -0.5667
   96SAPS   C39 9578   1.048   2.358   7.717  0.0279 -0.3760  0.7230
   96SAPS   H9X 9579   0.980   2.270   7.719 -0.9925  0.3930  2.3139
   96SAPS   H9Y 9580   0.988   2.450   7.700  1.3753  0.7439  1.8508
   96SAPS  C310 9581   1.105   2.368   7.858 -0.1521  0.3115  0.4992
   96SAPS  H10X 9582   1.151   2.268   7.874 -0.2877 -0.0338 -1.0930
   96SAPS  H10Y 9583   1.014   2.378   7.921 -1.9970  0.3266 -2.0139
   96SAPS  C311 9584   1.204   2.480   7.879  0.6031  0.5877  0.0999
   96SAPS  H11X 9585   1.152   2.577   7.861 -0.3730  0.1708  0.6276
   96SAPS  H11Y 9586   1.291   2.459   7.812 -0.4124 -1.1785 -0.7293
   96SAPS  C312 9587   1.265   2.481   8.017  0.1624 -0.1902 -0.5971
   96SAPS  H12X 9588   1.336   2.396   8.030  0.4389  0.3823  2.1592
   96SAPS  H12Y 9589   1.193   2.468   8.100  0.8610  1.0493  0.2488
   96SAPS  C313 9590   1.344   2.606   8.045  0.1084 -0.3704  0.1232
   96SAPS  H13X 9591   1.278   2.694   8.057  1.2665  0.4339  0.7854
   96SAPS  H13Y 9592   1.419   2.628   7.965  0.2008  0.3949  0.4089
   96SAPS  C314 9593   1.422   2.612   8.184  0.0347 -0.4688 -0.4737
   96SAPS  H14X 9594   1.503   2.537   8.169  0.0743  0.0719 -3.5175
   96SAPS  H14Y 9595   1.368   2.598   8.280 -0.8535  0.9910 -0.7362
   96SAPS  C315 9596   1.498   2.750   8.213  0.0898  1.0074  1.3229
   96SAPS  H15X 9597   1.434   2.840   8.225  0.9711  1.6756  1.1674
   96SAPS  H15Y 9598   1.561   2.758   8.122  0.2980 -1.9512  1.1292
   96SAPS  C316 9599   1.595   2.727   8.331  0.4484  0.9243 -0.0483
   96SAPS  H16X 9600   1.668   2.810   8.322  2.5181 -0.6386  1.3911
   96SAPS  H16Y 9601   1.641   2.626   8.320 -1.5489 -0.0231 -0.2665
   96SAPS  C317 9602   1.528   2.742   8.469 -0.1867  0.0189 -0.8964
   96SAPS  H17X 9603   1.588   2.698   8.552 -1.8755  0.6039  0.6979
   96SAPS  H17Y 9604   1.428   2.695   8.464 -0.7492  1.1590 -0.6700
   96SAPS  C318 9605   1.498   2.882   8.509 -0.1397  0.5510 -0.0479
   96SAPS  H18X 9606   1.592   2.941   8.512  0.6797 -0.7426  1.3088
   96SAPS  H18Y 9607   1.456   2.879   8.612  0.0559 -0.6749  0.0164
   96SAPS  H18Z 9608   1.421   2.927   8.443 -2.0230  0.4657  1.9889
   97SAPS     N 9609   3.401   2.551   6.281 -0.2166 -0.2320 -0.1581
   97SAPS   HN1 9610   3.448   2.504   6.361 -2.3334 -1.6510  0.3403
   97SAPS   HN2 9611   3.473   2.590   6.217 -0.4287  1.5926  0.6690
   97SAPS   HN3 9612   3.333   2.624   6.310 -1.5954 -2.2033  1.9656
   97SAPS   C12 9613   3.325   2.440   6.206  0.2051  0.2816  0.1380
   97SAPS  H12A 9614   3.260   2.487   6.134 -0.7612  1.0739  1.4712
   97SAPS   C13 9615   3.408   2.330   6.141 -0.1857  0.2264 -0.4004
   97SAPS  O13A 9616   3.537   2.343   6.149 -0.4721  0.0418 -0.2427
   97SAPS  O13B 9617   3.352   2.242   6.076 -0.2892 -0.4299  0.1986
   97SAPS   C11 9618   3.236   2.375   6.312 -0.0897 -1.1307 -0.8975
   97SAPS  H11A 9619   3.306   2.327   6.384  0.6652  0.4364 -0.5407
   97SAPS  H11B 9620   3.167   2.308   6.256  0.2662 -0.1784 -2.5266
   97SAPS     P 9621   3.015   2.451   6.436  0.3921 -0.3927 -0.0738
   97SAPS   O13 9622   2.969   2.556   6.532  0.3720 -0.3010  0.9526
   97SAPS   O14 9623   2.932   2.437   6.311  0.1095 -0.1746 -0.1337
   97SAPS   O12 9624   3.167   2.469   6.392  0.9249  0.2225 -0.1014
   97SAPS   O11 9625   3.018   2.311   6.508  0.6848  0.4215  0.3434
   97SAPS    C1 9626   3.088   2.292   6.626 -0.9637  0.0843  0.3169
   97SAPS    HA 9627   3.136   2.192   6.617  2.5174  1.2224  3.6452
   97SAPS    HB 9628   3.185   2.346   6.627 -0.7908 -0.0174 -2.5367
   97SAPS    C2 9629   3.007   2.308   6.755 -0.0329 -0.0899  0.2327
   97SAPS    HS 9630   2.976   2.414   6.767 -1.6989 -0.6541  1.5190
   97SAPS   O21 9631   3.094   2.266   6.861  0.1065  0.6918 -0.3627
   97SAPS   C21 9632   3.188   2.351   6.902  0.2200 -0.4112  0.7160
   97SAPS   O22 9633   3.210   2.457   6.847  0.4686 -0.0121  0.0151
   97SAPS   C22 9634   3.251   2.293   7.026 -0.4733 -0.6070  0.8608
   97SAPS   H2R 9635   3.176   2.251   7.098 -1.2055  0.4255  0.7151
   97SAPS   H2S 9636   3.328   2.220   6.993 -1.3384 -2.0340  1.8492
   97SAPS    C3 9637   2.885   2.217   6.748  0.0979  0.7654 -0.7372
   97SAPS    HX 9638   2.918   2.111   6.744  0.7183  0.8504  1.0846
   97SAPS    HY 9639   2.819   2.245   6.663 -0.8398  1.5239  0.2078
   97SAPS   O31 9640   2.805   2.235   6.865 -0.0895 -0.2494 -0.0509
   97SAPS   C31 9641   2.714   2.143   6.891  0.0114 -0.5889 -0.1604
   97SAPS   O32 9642   2.689   2.044   6.825  0.3847 -0.1562 -0.2494
   97SAPS   C32 9643   2.648   2.179   7.037 -0.0619 -0.7102  0.5906
   97SAPS   H2X 9644   2.561   2.241   7.005  0.4060  0.3475  1.3336
   97SAPS   H2Y 9645   2.724   2.231   7.098  0.7618 -0.7196 -0.3882
   97SAPS   C23 9646   3.339   2.398   7.104 -0.1325  0.2127 -0.1393
   97SAPS   H3R 9647   3.428   2.432   7.046 -0.3271  0.0475 -0.5412
   97SAPS   H3S 9648   3.387   2.339   7.185 -1.0650  2.5395  2.2311
   97SAPS   C24 9649   3.269   2.524   7.148  0.1404  0.0074  0.2329
   97SAPS   H4R 9650   3.231   2.574   7.056 -2.3101  0.0867  1.2028
   97SAPS   H4S 9651   3.340   2.598   7.192  0.8207 -0.2232 -0.4611
   97SAPS   C25 9652   3.160   2.497   7.239  0.0977 -0.8128  0.3747
   97SAPS   H5R 9653   3.087   2.431   7.190  2.7078 -2.4512 -1.5606
   97SAPS   C26 9654   3.148   2.530   7.372  0.3829  0.2651  0.2641
   97SAPS   H6R 9655   3.056   2.506   7.428  0.1493 -0.4855 -0.4027
   97SAPS   C27 9656   3.254   2.604   7.448  0.2110 -0.5226 -0.2469
   97SAPS   H7R 9657   3.203   2.694   7.488  1.4469 -0.7350  2.0266
   97SAPS   H7S 9658   3.348   2.633   7.396  1.6571 -3.3922  0.5519
   97SAPS   C28 9659   3.296   2.520   7.568  0.4143 -0.0295  0.1480
   97SAPS   H8R 9660   3.383   2.458   7.542 -0.1320 -0.4542 -0.7085
   97SAPS   C29 9661   3.228   2.492   7.681 -0.1352  0.4040  0.3389
   97SAPS   H9R 9662   3.277   2.429   7.756  0.3373 -0.4654 -0.6749
   97SAPS  C210 9663   3.095   2.560   7.717  0.1211 -0.0787 -0.1232
   97SAPS  H10R 9664   3.021   2.479   7.737  0.8398 -0.2528  2.1836
   97SAPS  H10S 9665   3.044   2.601   7.627 -0.6758  1.9415  1.1691
   97SAPS  C211 9666   3.102   2.651   7.839  0.3901 -0.3112 -0.6927
   97SAPS  H11R 9667   3.100   2.757   7.807 -2.1575 -0.4994 -1.3124
   97SAPS  C212 9668   3.105   2.619   7.968  0.2084  1.1738  0.4021
   97SAPS  H12R 9669   3.103   2.701   8.041  0.4139  0.0868  1.6540
   97SAPS  C213 9670   3.108   2.479   8.026  0.1919 -0.5477  0.0855
   97SAPS  H13R 9671   3.067   2.418   7.943 -3.2907  1.2075  0.3270
   97SAPS  H13S 9672   3.029   2.474   8.105 -0.4485  1.8990 -0.3280
   97SAPS  C214 9673   3.240   2.434   8.088 -0.0585  0.6786  0.6986
   97SAPS  H14R 9674   3.307   2.377   8.022  0.5464  1.3609  0.7153
   97SAPS  C215 9675   3.269   2.468   8.215 -0.6495 -0.3187 -0.1419
   97SAPS  H15R 9676   3.359   2.415   8.252 -0.7387 -1.9058 -2.0084
   97SAPS  C216 9677   3.190   2.548   8.314 -0.3980  0.0560 -0.3821
   97SAPS  H16R 9678   3.135   2.479   8.381  0.2827 -0.6036 -0.4826
   97SAPS  H16S 9679   3.114   2.604   8.256 -2.2116 -1.6600  0.2582
   97SAPS  C217 9680   3.271   2.631   8.408 -0.3234 -0.1417  0.3833
   97SAPS  H17R 9681   3.329   2.705   8.350 -1.7166  0.0917 -0.7584
   97SAPS  H17S 9682   3.342   2.573   8.471  0.2757 -0.1923 -0.3178
   97SAPS  C218 9683   3.189   2.724   8.502  0.1777 -0.0158  0.0049
   97SAPS  H18R 9684   3.131   2.802   8.448 -2.2422 -1.7545 -0.0507
   97SAPS  H18S 9685   3.273   2.779   8.550  1.5837 -0.6329 -1.6613
   97SAPS  C219 9686   3.087   2.659   8.598 -0.3758  0.1620  1.0076
   97SAPS  H19R 9687   3.132   2.564   8.632 -0.8655 -0.3376  0.2774
   97SAPS  H19S 9688   2.992   2.634   8.546  1.5885 -0.4681 -2.5871
   97SAPS  C220 9689   3.062   2.741   8.722  0.5207  0.3176  0.2606
   97SAPS  H20R 9690   3.101   2.844   8.706  0.2591  0.0276 -2.8340
   97SAPS  H20S 9691   3.117   2.702   8.810 -0.2718  0.9353  1.0567
   97SAPS  H20T 9692   2.954   2.741   8.748  0.3961  0.3978 -0.2523
   97SAPS   C33 9693   2.607   2.045   7.096 -0.0456  0.6334 -0.0270
   97SAPS   H3X 9694   2.697   1.984   7.116  0.1959  1.4911  1.6849
   97SAPS   H3Y 9695   2.534   1.989   7.034 -0.7586  0.4192  0.9690
   97SAPS   C34 9696   2.541   2.053   7.229 -0.0680 -0.2450  0.5498
   97SAPS   H4X 9697   2.445   2.104   7.205  0.9893  0.3675 -2.9077
   97SAPS   H4Y 9698   2.594   2.125   7.295 -2.4837  1.1637  1.1146
   97SAPS   C35 9699   2.527   1.919   7.298 -0.3376 -0.4041  0.2708
   97SAPS   H5X 9700   2.629   1.877   7.315 -0.2009  0.0842  0.6693
   97SAPS   H5Y 9701   2.470   1.845   7.238 -0.6347 -0.8877  1.1255
   97SAPS   C36 9702   2.460   1.928   7.440 -0.0702  0.1792  0.2800
   97SAPS   H6X 9703   2.360   1.881   7.428  0.6162 -0.7433 -2.3160
   97SAPS   H6Y 9704   2.439   2.034   7.467  0.5059  0.7751 -1.4939
   97SAPS   C37 9705   2.537   1.863   7.555 -0.8575 -0.0079 -0.3883
   97SAPS   H7X 9706   2.644   1.892   7.553  0.1029 -3.1984 -0.6293
   97SAPS   H7Y 9707   2.532   1.752   7.547  1.0577 -0.0812 -0.9801
   97SAPS   C38 9708   2.482   1.891   7.698 -0.2297 -0.2569 -0.0033
   97SAPS   H8X 9709   2.540   1.831   7.772  0.4016 -0.2510 -0.4806
   97SAPS   H8Y 9710   2.375   1.863   7.700 -0.2427 -0.5128 -2.1811
   97SAPS   C39 9711   2.506   2.043   7.732  0.3598  0.0558  0.1267
   97SAPS   H9X 9712   2.465   2.110   7.652  0.2522  1.6582  1.4702
   97SAPS   H9Y 9713   2.615   2.058   7.746  0.2286 -0.3945  1.7298
   97SAPS  C310 9714   2.425   2.083   7.854 -0.4455 -0.8804  0.6233
   97SAPS  H10X 9715   2.321   2.042   7.854 -0.5117 -0.7168  0.9367
   97SAPS  H10Y 9716   2.424   2.194   7.860  1.6128 -0.8240  0.5412
   97SAPS  C311 9717   2.514   2.054   7.973  0.4383  0.2553  1.7171
   97SAPS  H11X 9718   2.603   2.119   7.962  0.3801 -0.0881 -2.0639
   97SAPS  H11Y 9719   2.549   1.949   7.966 -0.5681 -0.0096 -2.5535
   97SAPS  C312 9720   2.453   2.074   8.110 -0.3616 -0.1023 -0.1558
   97SAPS  H12X 9721   2.352   2.027   8.114 -0.3415 -0.2820 -1.4095
   97SAPS  H12Y 9722   2.439   2.184   8.114  1.5728  0.1719  3.4301
   97SAPS  C313 9723   2.553   2.024   8.216  0.1191  0.7910 -0.7944
   97SAPS  H13X 9724   2.648   2.080   8.225  1.8937 -2.1908  0.1281
   97SAPS  H13Y 9725   2.589   1.923   8.190  1.4195  1.6658 -2.5769
   97SAPS  C314 9726   2.492   2.000   8.352 -0.1443 -0.0353 -0.1685
   97SAPS  H14X 9727   2.564   1.968   8.431 -0.1098 -1.0988 -0.6089
   97SAPS  H14Y 9728   2.427   1.910   8.342  0.2159 -0.6103  1.9761
   97SAPS  C315 9729   2.413   2.132   8.391 -0.3775  0.0871 -0.1485
   97SAPS  H15X 9730   2.334   2.149   8.315  0.5147 -1.9942 -1.6312
   97SAPS  H15Y 9731   2.474   2.225   8.392  2.3730 -1.5600  2.3201
   97SAPS  C316 9732   2.345   2.121   8.527  0.4582 -0.2298 -0.6829
   97SAPS  H16X 9733   2.425   2.107   8.602  0.8865  0.4086 -1.0014
   97SAPS  H16Y 9734   2.270   2.040   8.515  0.5993 -0.3186 -0.9750
   97SAPS  C317 9735   2.263   2.244   8.565  0.5073 -0.1425  0.1754
   97SAPS  H17X 9736   2.169   2.239   8.506 -0.4724 -0.7907  1.7066
   97SAPS  H17Y 9737   2.306   2.343   8.539 -1.2651  0.3753 -0.9502
   97SAPS  C318 9738   2.231   2.248   8.721  0.2182  0.4940 -0.0058
   97SAPS  H18X 9739   2.154   2.325   8.743 -0.5978 -0.6732  1.3328
   97SAPS  H18Y 9740   2.329   2.269   8.769 -0.0108  0.8996  0.3001
   97SAPS  H18Z 9741   2.183   2.152   8.749 -0.1324  0.5965 -0.2499
   98SAPS     N 9742   0.686   1.253   6.052 -0.9041 -0.4561 -0.2536
   98SAPS   HN1 9743   0.707   1.249   5.950 -1.0042 -0.3296 -0.2798
   98SAPS   HN2 9744   0.701   1.162   6.099 -1.8112 -1.3318 -1.6074
   98SAPS   HN3 9745   0.584   1.265   6.064 -0.8303  1.0655 -0.8750
   98SAPS   C12 9746   0.751   1.364   6.125 -0.2822  0.4126 -0.9965
   98SAPS  H12A 9747   0.858   1.358   6.115 -0.0783 -2.1674  1.3339
   98SAPS   C13 9748   0.706   1.495   6.081  0.0774 -0.6756  0.1488
   98SAPS  O13A 9749   0.637   1.509   5.974  0.1121  0.3819 -0.0496
   98SAPS  O13B 9750   0.739   1.599   6.148  0.5471  0.6443  0.0347
   98SAPS   C11 9751   0.723   1.353   6.282  0.2443 -0.3173  0.2142
   98SAPS  H11A 9752   0.615   1.330   6.293  0.2950 -0.0029  1.5166
   98SAPS  H11B 9753   0.747   1.448   6.335 -0.2110 -0.6192  0.9798
   98SAPS     P 9754   0.760   1.096   6.337  0.2527 -0.0750  0.2692
   98SAPS   O13 9755   0.727   1.050   6.198  0.5146  0.1923  0.0938
   98SAPS   O14 9756   0.866   1.020   6.400 -0.7505  0.4299  0.3772
   98SAPS   O12 9757   0.794   1.250   6.345  0.0896 -0.0754 -0.8264
   98SAPS   O11 9758   0.626   1.077   6.418  0.6666  0.3290 -0.8165
   98SAPS    C1 9759   0.588   1.158   6.526  0.1179 -0.3889 -0.3665
   98SAPS    HA 9760   0.624   1.264   6.524 -1.6466  0.2472  0.0858
   98SAPS    HB 9761   0.479   1.155   6.544  0.3250  0.7684  1.2673
   98SAPS    C2 9762   0.654   1.097   6.657 -1.0534  1.0689  0.1864
   98SAPS    HS 9763   0.764   1.091   6.647 -0.8246  0.5393  2.5343
   98SAPS   O21 9764   0.589   0.975   6.691 -0.1828 -0.0353  0.6531
   98SAPS   C21 9765   0.664   0.867   6.668 -0.3660  0.1068  0.1088
   98SAPS   O22 9766   0.782   0.861   6.662 -0.7854 -0.3488 -0.3465
   98SAPS   C22 9767   0.578   0.742   6.666 -0.1042 -0.9777 -0.0400
   98SAPS   H2R 9768   0.475   0.776   6.642  0.4408  0.5388 -0.3654
   98SAPS   H2S 9769   0.623   0.679   6.586 -2.4154  0.7613 -2.9143
   98SAPS    C3 9770   0.636   1.194   6.780 -0.0846  0.7654 -0.4676
   98SAPS    HX 9771   0.527   1.215   6.790  0.2146  1.4449  2.1270
   98SAPS    HY 9772   0.680   1.294   6.766 -0.0809  1.0702  1.3795
   98SAPS   O31 9773   0.692   1.141   6.902  0.2458 -0.2062  0.1277
   98SAPS   C31 9774   0.817   1.111   6.907  0.1613 -0.2067  0.4938
   98SAPS   O32 9775   0.905   1.149   6.831  0.0495  0.0149 -0.1869
   98SAPS   C32 9776   0.848   1.020   7.029  0.2892  0.3768 -0.6770
   98SAPS   H2X 9777   0.944   0.967   7.014  0.9390  1.1403  0.7236
   98SAPS   H2Y 9778   0.772   0.939   7.027  2.4132 -1.9044  2.2521
   98SAPS   C23 9779   0.567   0.664   6.799 -0.2212 -0.2541 -0.0385
   98SAPS   H3R 9780   0.475   0.602   6.787 -1.8954  2.1869 -0.5798
   98SAPS   H3S 9781   0.562   0.739   6.881  0.5286 -1.0265  0.7302
   98SAPS   C24 9782   0.686   0.572   6.832 -0.6173  0.2175 -0.1187
   98SAPS   H4R 9783   0.726   0.526   6.739  1.1528 -1.5876  1.4445
   98SAPS   H4S 9784   0.656   0.493   6.903 -0.7583  0.1211 -0.2833
   98SAPS   C25 9785   0.804   0.644   6.899 -0.6698 -0.0117  0.1109
   98SAPS   H5R 9786   0.858   0.714   6.834  0.8428 -1.5097 -0.2940
   98SAPS   C26 9787   0.846   0.628   7.029 -0.0723  0.2831  0.5500
   98SAPS   H6R 9788   0.933   0.682   7.070  2.3303 -2.1955 -0.8995
   98SAPS   C27 9789   0.780   0.532   7.122 -0.8674 -0.7295  0.0344
   98SAPS   H7R 9790   0.814   0.430   7.095 -0.5209 -0.4239 -0.7158
   98SAPS   H7S 9791   0.669   0.541   7.118 -0.8366 -0.4458 -0.2072
   98SAPS   C28 9792   0.844   0.551   7.261  0.2275 -0.6312 -0.4169
   98SAPS   H8R 9793   0.942   0.506   7.278  0.6689  0.7612  0.9993
   98SAPS   C29 9794   0.782   0.621   7.360 -0.3485  0.1338  0.0167
   98SAPS   H9R 9795   0.830   0.626   7.459  1.3087  0.4211 -0.7746
   98SAPS  C210 9796   0.644   0.687   7.348 -0.4325 -0.1482  0.2843
   98SAPS  H10R 9797   0.633   0.729   7.246 -3.9174 -0.2975  0.4761
   98SAPS  H10S 9798   0.642   0.771   7.420  0.5624  0.7679 -0.7258
   98SAPS  C211 9799   0.534   0.587   7.359  0.0705 -0.8719 -0.4348
   98SAPS  H11R 9800   0.486   0.574   7.261  0.2958  1.1161 -0.8465
   98SAPS  C212 9801   0.493   0.529   7.473 -0.2601  0.2639  0.6545
   98SAPS  H12R 9802   0.400   0.470   7.474  0.5478 -1.0588  0.1197
   98SAPS  C213 9803   0.554   0.560   7.602 -0.2723 -0.5819 -0.2983
   98SAPS  H13R 9804   0.492   0.639   7.650 -1.0393 -1.3641  0.0256
   98SAPS  H13S 9805   0.656   0.602   7.594  0.6130 -2.4885  0.4431
   98SAPS  C214 9806   0.546   0.433   7.693 -0.2733 -0.1129 -0.1216
   98SAPS  H14R 9807   0.517   0.339   7.643 -4.1305  0.3206  0.9536
   98SAPS  C215 9808   0.536   0.440   7.826 -0.4590  0.2392  0.5560
   98SAPS  H15R 9809   0.522   0.350   7.888  2.6388 -0.6132  0.1832
   98SAPS  C216 9810   0.540   0.565   7.908  0.2063  0.3596  0.7489
   98SAPS  H16R 9811   0.454   0.633   7.887  0.5946  0.4361 -0.6443
   98SAPS  H16S 9812   0.631   0.625   7.888 -0.7748  1.0260 -2.2132
   98SAPS  C217 9813   0.543   0.520   8.055  0.5032  0.6306  0.3142
   98SAPS  H17R 9814   0.627   0.450   8.071 -0.0461 -0.1384 -0.1192
   98SAPS  H17S 9815   0.451   0.463   8.078  0.9772 -0.4179 -0.3165
   98SAPS  C218 9816   0.541   0.643   8.140 -0.3609  0.7542  0.0655
   98SAPS  H18R 9817   0.473   0.714   8.090  0.9949 -0.3259 -3.6764
   98SAPS  H18S 9818   0.642   0.686   8.160  0.4794 -2.0103  2.4871
   98SAPS  C219 9819   0.476   0.613   8.273  0.4576 -0.6719  0.1422
   98SAPS  H19R 9820   0.369   0.591   8.253  0.5472 -0.6495 -0.3878
   98SAPS  H19S 9821   0.469   0.709   8.329  1.3653  0.0113 -0.8629
   98SAPS  C220 9822   0.537   0.502   8.361  0.1952  0.0112 -0.3610
   98SAPS  H20R 9823   0.467   0.453   8.432 -0.5608 -0.0802 -1.1433
   98SAPS  H20S 9824   0.633   0.541   8.400  0.1662  0.7253 -0.9834
   98SAPS  H20T 9825   0.565   0.418   8.294  0.2952 -0.0027 -0.3009
   98SAPS   C33 9826   0.850   1.092   7.163  0.3119 -0.5717 -0.1470
   98SAPS   H3X 9827   0.756   1.149   7.183  0.5651  0.1697 -0.9603
   98SAPS   H3Y 9828   0.946   1.144   7.182  0.1439  1.0018 -2.9520
   98SAPS   C34 9829   0.856   0.991   7.273 -0.4935  0.0642  0.6537
   98SAPS   H4X 9830   0.953   0.938   7.274  0.1004  1.1384  1.1218
   98SAPS   H4Y 9831   0.777   0.914   7.253  1.0030 -1.1079 -1.0980
   98SAPS   C35 9832   0.829   1.057   7.408 -0.1799 -0.2819  0.1309
   98SAPS   H5X 9833   0.724   1.093   7.405  0.3230  1.7692  2.9331
   98SAPS   H5Y 9834   0.893   1.146   7.428 -1.4492  0.9545 -1.0653
   98SAPS   C36 9835   0.850   0.959   7.523 -0.0734  0.0233  0.1035
   98SAPS   H6X 9836   0.955   0.923   7.515 -0.7105 -1.9210  0.0899
   98SAPS   H6Y 9837   0.788   0.867   7.525  1.2858 -0.9124  0.9579
   98SAPS   C37 9838   0.823   1.017   7.664 -0.1480 -0.1692  0.4308
   98SAPS   H7X 9839   0.715   1.043   7.668 -0.7060 -2.2460 -0.1315
   98SAPS   H7Y 9840   0.885   1.101   7.702 -0.8496  1.3161 -1.4892
   98SAPS   C38 9841   0.834   0.908   7.766  0.2034  0.0396  0.0773
   98SAPS   H8X 9842   0.925   0.845   7.753  0.7118  0.8252 -0.2232
   98SAPS   H8Y 9843   0.745   0.842   7.760 -0.6892  1.3011 -1.2069
   98SAPS   C39 9844   0.849   0.958   7.905 -0.0397 -0.8932 -0.6224
   98SAPS   H9X 9845   0.936   1.027   7.910 -1.3969  0.8177  2.1356
   98SAPS   H9Y 9846   0.874   0.872   7.970 -0.1614  0.3892  1.2232
   98SAPS  C310 9847   0.722   1.016   7.969  0.8094 -0.2890  0.1219
   98SAPS  H10X 9848   0.651   0.935   7.996  2.4566 -1.2020  2.0262
   98SAPS  H10Y 9849   0.665   1.071   7.891 -0.1935  1.1857  1.8137
   98SAPS  C311 9850   0.756   1.100   8.090  0.0794 -0.0976  0.1375
   98SAPS  H11X 9851   0.789   1.194   8.041 -1.2517 -0.4933 -1.6140
   98SAPS  H11Y 9852   0.842   1.050   8.139  0.2360  0.1603  0.1301
   98SAPS  C312 9853   0.627   1.127   8.164  0.3134  0.4877  0.1894
   98SAPS  H12X 9854   0.556   1.155   8.083  1.3665 -0.4234 -1.0848
   98SAPS  H12Y 9855   0.650   1.212   8.233  3.4519  1.3366 -1.6916
   98SAPS  C313 9856   0.582   1.000   8.237  0.4878  1.0145  0.1958
   98SAPS  H13X 9857   0.668   0.956   8.291  0.3286  1.6767  1.0050
   98SAPS  H13Y 9858   0.537   0.930   8.163 -1.9025  1.5000  1.1167
   98SAPS  C314 9859   0.470   1.034   8.336  0.0608  0.1286 -0.5471
   98SAPS  H14X 9860   0.395   0.953   8.321  0.0771  0.0702 -0.3104
   98SAPS  H14Y 9861   0.413   1.128   8.318 -0.8424 -0.0181  1.3134
   98SAPS  C315 9862   0.523   1.043   8.480 -0.1455 -0.0745 -0.5086
   98SAPS  H15X 9863   0.576   0.947   8.499  1.5918  1.2882  2.2778
   98SAPS  H15Y 9864   0.445   1.052   8.560  1.2367 -0.4017  0.9327
   98SAPS  C316 9865   0.634   1.145   8.506  0.0080 -0.3826  0.2828
   98SAPS  H16X 9866   0.594   1.248   8.497  0.5932 -0.2980 -2.1326
   98SAPS  H16Y 9867   0.711   1.130   8.427  1.5691  0.8096  1.5177
   98SAPS  C317 9868   0.699   1.129   8.640 -0.9526 -0.2313 -0.1934
   98SAPS  H17X 9869   0.755   1.034   8.644 -1.4869 -0.7773 -3.2334
   98SAPS  H17Y 9870   0.620   1.127   8.719 -0.2014  1.9958  0.6962
   98SAPS  C318 9871   0.798   1.242   8.672  0.2609 -0.3444  0.5863
   98SAPS  H18X 9872   0.853   1.258   8.767  2.6518 -0.9098 -0.6159
   98SAPS  H18Y 9873   0.750   1.339   8.648 -0.8994 -1.2630 -1.0009
   98SAPS  H18Z 9874   0.876   1.231   8.594 -0.5295 -1.8411 -0.0463
   99SAPS     N 9875   1.273   3.024   6.287 -0.2313 -0.2749  0.8230
   99SAPS   HN1 9876   1.318   2.977   6.369  0.0231 -0.6912  0.4485
   99SAPS   HN2 9877   1.258   3.126   6.297 -1.4135 -0.2467 -0.8856
   99SAPS   HN3 9878   1.176   2.991   6.271 -1.0987  0.5118  3.8241
   99SAPS   C12 9879   1.354   3.017   6.165 -0.1215 -1.3161  0.1432
   99SAPS  H12A 9880   1.396   2.918   6.172  0.0741 -1.1312  3.6975
   99SAPS   C13 9881   1.286   3.031   6.031  1.0143 -0.5209  0.8307
   99SAPS  O13A 9882   1.161   3.055   6.021 -0.2592  0.1971 -0.1176
   99SAPS  O13B 9883   1.351   3.023   5.921  0.1725  0.5570  0.3162
   99SAPS   C11 9884   1.464   3.118   6.173  0.7166  0.2220 -0.7998
   99SAPS  H11A 9885   1.519   3.122   6.077 -0.8443 -2.2197 -1.8664
   99SAPS  H11B 9886   1.537   3.094   6.253 -0.3538  1.4065  0.5944
   99SAPS     P 9887   1.515   3.365   6.233  0.0240  0.0852 -0.0752
   99SAPS   O13 9888   1.632   3.355   6.139 -0.1971 -0.4643 -0.1752
   99SAPS   O14 9889   1.443   3.496   6.227  0.5012  0.3239  0.2650
   99SAPS   O12 9890   1.409   3.246   6.210  0.4039  0.0661  0.0254
   99SAPS   O11 9891   1.565   3.348   6.378 -0.7399  0.0254 -0.2200
   99SAPS    C1 9892   1.475   3.321   6.479  0.3338  0.3595  0.2970
   99SAPS    HA 9893   1.377   3.372   6.466 -0.1730 -0.0637  2.1450
   99SAPS    HB 9894   1.440   3.215   6.482 -1.9272  0.9974 -0.7972
   99SAPS    C2 9895   1.517   3.376   6.614  0.2504  0.0415 -0.3932
   99SAPS    HS 9896   1.528   3.485   6.596  0.5170 -0.1253 -1.2883
   99SAPS   O21 9897   1.643   3.316   6.659 -0.4545  0.0961  0.2068
   99SAPS   C21 9898   1.719   3.391   6.730  0.1522  0.4494 -0.0165
   99SAPS   O22 9899   1.707   3.515   6.747  0.4715  0.4847 -0.1232
   99SAPS   C22 9900   1.834   3.308   6.781 -0.5896  0.4241  0.1053
   99SAPS   H2R 9901   1.790   3.232   6.849  1.7359 -0.1302  1.0538
   99SAPS   H2S 9902   1.869   3.253   6.691 -0.2978 -0.0048  0.4829
   99SAPS    C3 9903   1.395   3.354   6.707  0.7020  0.2100  0.0454
   99SAPS    HX 9904   1.395   3.243   6.702  0.2312  0.2607 -2.2524
   99SAPS    HY 9905   1.298   3.379   6.659 -0.0275 -0.0321  1.3554
   99SAPS   O31 9906   1.414   3.399   6.840  0.2094  0.1105  0.4819
   99SAPS   C31 9907   1.381   3.522   6.861  0.3875  0.7573 -0.1252
   99SAPS   O32 9908   1.330   3.596   6.782 -0.2034  0.6646  0.4530
   99SAPS   C32 9909   1.402   3.553   7.010  1.1709  0.2971 -0.3106
   99SAPS   H2X 9910   1.299   3.535   7.047  0.6822  2.1305 -0.6824
   99SAPS   H2Y 9911   1.404   3.664   7.014  1.9979  0.3319 -1.1961
   99SAPS   C23 9912   1.935   3.400   6.846  0.2817  0.0284 -0.6190
   99SAPS   H3R 9913   1.891   3.477   6.914 -0.9429 -0.1478 -1.1862
   99SAPS   H3S 9914   1.986   3.451   6.761  2.8703 -0.0325  0.7736
   99SAPS   C24 9915   2.038   3.325   6.927  0.3200  0.3650 -0.2882
   99SAPS   H4R 9916   2.077   3.246   6.860 -1.9072 -0.6456 -0.4713
   99SAPS   H4S 9917   1.999   3.270   7.015  2.3966  0.5279  0.7984
   99SAPS   C25 9918   2.127   3.430   6.986 -0.2798 -0.6327  0.3197
   99SAPS   H5R 9919   2.172   3.482   6.900 -1.1729 -0.8310 -0.2790
   99SAPS   C26 9920   2.133   3.486   7.110 -0.5443 -0.3217 -0.2385
   99SAPS   H6R 9921   2.202   3.571   7.123 -1.3171  0.2169  0.3966
   99SAPS   C27 9922   2.052   3.431   7.223 -0.3838 -0.1628 -0.3370
   99SAPS   H7R 9923   1.958   3.386   7.185 -2.4903  1.8815  2.0924
   99SAPS   H7S 9924   2.013   3.514   7.285  1.2988 -0.4284  1.1811
   99SAPS   C28 9925   2.125   3.328   7.302 -0.1867  0.0098 -0.5409
   99SAPS   H8R 9926   2.140   3.233   7.248  1.0090  0.6567 -1.4027
   99SAPS   C29 9927   2.196   3.355   7.417  0.2968 -0.4667  0.0344
   99SAPS   H9R 9928   2.251   3.277   7.471  1.4898 -0.5449 -1.2432
   99SAPS  C210 9929   2.191   3.489   7.486  0.3221 -0.8872  0.2713
   99SAPS  H10R 9930   2.124   3.567   7.444  2.8331  1.7552  0.8280
   99SAPS  H10S 9931   2.292   3.532   7.465 -0.2466  0.8277  0.8415
   99SAPS  C211 9932   2.166   3.505   7.633  0.3276 -0.0947  0.2532
   99SAPS  H11R 9933   2.060   3.521   7.655  0.4429  1.0551  0.0574
   99SAPS  C212 9934   2.256   3.479   7.735 -0.2412 -0.0788  0.1806
   99SAPS  H12R 9935   2.222   3.479   7.840 -0.2082  1.7111  0.2175
   99SAPS  C213 9936   2.404   3.444   7.703  0.3215 -1.1530  0.5966
   99SAPS  H13R 9937   2.479   3.526   7.713 -1.1552  0.3840 -0.4069
   99SAPS  H13S 9938   2.416   3.416   7.596 -1.4301 -0.1815  0.1085
   99SAPS  C214 9939   2.451   3.328   7.777 -0.6248 -0.2445  0.1056
   99SAPS  H14R 9940   2.474   3.243   7.711 -1.2096  2.1426 -3.4957
   99SAPS  C215 9941   2.469   3.316   7.912  0.1756 -0.3638 -0.7452
   99SAPS  H15R 9942   2.488   3.213   7.947  0.4207  0.1579  0.7191
   99SAPS  C216 9943   2.437   3.419   8.021  0.6883 -0.1643 -0.2143
   99SAPS  H16R 9944   2.402   3.510   7.968 -2.6185 -1.0556  0.2105
   99SAPS  H16S 9945   2.529   3.450   8.075  1.7863 -1.7365 -1.0631
   99SAPS  C217 9946   2.324   3.386   8.121  0.9935  0.6825 -0.3231
   99SAPS  H17R 9947   2.338   3.284   8.164 -0.5107  1.5642  2.5168
   99SAPS  H17S 9948   2.224   3.392   8.074  0.9865  2.0596 -0.1625
   99SAPS  C218 9949   2.303   3.473   8.245 -0.1588  0.1787  0.8095
   99SAPS  H18R 9950   2.257   3.572   8.223 -2.0220 -1.2825 -2.8427
   99SAPS  H18S 9951   2.403   3.483   8.292  1.3816 -2.4268 -1.6203
   99SAPS  C219 9952   2.211   3.399   8.341 -0.3639 -0.4786 -0.1901
   99SAPS  H19R 9953   2.206   3.468   8.428 -0.4241 -2.0289  1.1082
   99SAPS  H19S 9954   2.251   3.302   8.379  1.1553  0.3630  0.4037
   99SAPS  C220 9955   2.066   3.384   8.288  0.1948  0.4765 -0.3593
   99SAPS  H20R 9956   2.019   3.298   8.340  1.6132 -0.2038 -0.1609
   99SAPS  H20S 9957   2.061   3.361   8.179  0.1926  1.0467 -0.4846
   99SAPS  H20T 9958   2.007   3.477   8.299  0.0417  0.2070  1.2469
   99SAPS   C33 9959   1.502   3.466   7.080 -0.5801  0.3633 -0.0522
   99SAPS   H3X 9960   1.597   3.466   7.022  0.2522  0.8075  1.2721
   99SAPS   H3Y 9961   1.464   3.362   7.072 -4.1048  1.5883 -0.9231
   99SAPS   C34 9962   1.532   3.508   7.225 -0.3824 -0.0849  0.4291
   99SAPS   H4X 9963   1.441   3.485   7.285 -2.4665 -1.6205 -3.0061
   99SAPS   H4Y 9964   1.560   3.615   7.226 -1.5327  0.2393  1.8704
   99SAPS   C35 9965   1.651   3.423   7.288 -0.2097 -0.5566  0.0675
   99SAPS   H5X 9966   1.727   3.428   7.207  0.5677  0.7124  0.8452
   99SAPS   H5Y 9967   1.636   3.313   7.295  4.5214 -1.3152  1.4440
   99SAPS   C36 9968   1.703   3.491   7.419  0.7465 -0.2893  0.0412
   99SAPS   H6X 9969   1.722   3.599   7.397 -1.9075  0.5302  1.3572
   99SAPS   H6Y 9970   1.797   3.445   7.455  1.4720 -0.8626 -2.3533
   99SAPS   C37 9971   1.602   3.464   7.532  0.3528 -0.0908  0.0825
   99SAPS   H7X 9972   1.585   3.355   7.544 -0.3563 -0.0848 -0.7559
   99SAPS   H7Y 9973   1.501   3.500   7.506 -0.6686 -1.8683  1.3458
   99SAPS   C38 9974   1.631   3.540   7.657 -0.5125 -0.2253 -0.0425
   99SAPS   H8X 9975   1.544   3.555   7.725 -0.0212  2.2510  0.1641
   99SAPS   H8Y 9976   1.657   3.648   7.645  0.9144 -0.5277  0.2198
   99SAPS   C39 9977   1.756   3.478   7.733 -0.2660 -0.0517  0.3279
   99SAPS   H9X 9978   1.840   3.482   7.660 -0.7654  0.4249 -0.2274
   99SAPS   H9Y 9979   1.735   3.376   7.772 -1.6079 -0.9619 -2.4912
   99SAPS  C310 9980   1.802   3.553   7.863 -0.2832  0.7546  0.3329
   99SAPS  H10X 9981   1.837   3.657   7.847 -1.5373  1.1031 -0.2627
   99SAPS  H10Y 9982   1.894   3.506   7.906 -0.2265 -0.0276 -0.6215
   99SAPS  C311 9983   1.701   3.565   7.983 -0.1194  0.2929  0.4856
   99SAPS  H11X 9984   1.663   3.461   7.995  1.9861 -0.4347  1.2892
   99SAPS  H11Y 9985   1.611   3.620   7.948 -0.4008  1.0515  2.2754
   99SAPS  C312 9986   1.763   3.629   8.103 -0.4219  0.3844 -0.1153
   99SAPS  H12X 9987   1.799   3.732   8.081  0.4923  0.2522  0.6621
   99SAPS  H12Y 9988   1.847   3.571   8.147 -1.9710 -0.1263  2.3376
   99SAPS  C313 9989   1.658   3.644   8.222  0.0232 -0.3625 -0.1800
   99SAPS  H13X 9990   1.608   3.548   8.247  1.9228 -1.5395 -0.6168
   99SAPS  H13Y 9991   1.584   3.720   8.191  1.7394  0.6208 -2.1488
   99SAPS  C314 9992   1.744   3.693   8.347 -0.2079 -0.3214  0.0582
   99SAPS  H14X 9993   1.771   3.796   8.314 -0.8051  0.1707  1.0754
   99SAPS  H14Y 9994   1.833   3.628   8.361 -0.3935 -0.2581  1.6894
   99SAPS  C315 9995   1.651   3.708   8.470 -0.1479 -0.0074  0.1806
   99SAPS  H15X 9996   1.626   3.606   8.507  1.1788 -0.1178  0.8349
   99SAPS  H15Y 9997   1.564   3.768   8.436 -0.6065  0.2095  1.6798
   99SAPS  C316 9998   1.714   3.778   8.586  0.5822 -0.1454  0.0249
   99SAPS  H16X 9999   1.637   3.786   8.665  2.9444  1.4099  2.3629
   99SAPS  H16Y10000   1.730   3.879   8.543  0.4239 -0.0103  0.2805
   99SAPS  C31710001   1.849   3.713   8.633 -0.3493 -0.5003  0.9779
   99SAPS  H17X10002   1.894   3.768   8.718  0.8360  2.2482 -1.2656
   99SAPS  H17Y10003   1.923   3.735   8.554 -3.4431  1.1936 -1.7035
   99SAPS  C31810004   1.842   3.566   8.673 -0.3446  0.2742 -0.0101
   99SAPS  H18X10005   1.942   3.522   8.693 -0.2176  0.4733 -0.1966
   99SAPS  H18Y10006   1.811   3.510   8.583  0.7203  2.3440 -1.7608
   99SAPS  H18Z10007   1.770   3.542   8.755  1.8755 -2.5409  1.2968
  100SAPS     N10008   3.827   6.391   6.076 -0.3793  0.1153  0.5954
  100SAPS   HN110009   3.752   6.349   6.134 -1.3136 -0.3225 -0.8649
  100SAPS   HN210010   3.831   6.331   5.991  0.1985  0.1437  0.5980
  100SAPS   HN310011   3.914   6.384   6.131  0.2730  1.2492 -0.2531
  100SAPS   C1210012   3.798   6.535   6.042  0.0936 -0.3126  0.0112
  100SAPS  H12A10013   3.861   6.569   5.961 -0.6649 -1.2936 -1.0138
  100SAPS   C1310014   3.666   6.559   5.978  0.6474 -0.4598  0.9217
  100SAPS  O13A10015   3.593   6.463   5.934  0.8733 -0.2193  0.1903
  100SAPS  O13B10016   3.627   6.678   5.967 -0.5563 -0.0313  0.2789
  100SAPS   C1110017   3.815   6.625   6.169 -0.4133  0.0126  0.7749
  100SAPS  H11A10018   3.733   6.602   6.241 -0.2427 -0.0668  0.9457
  100SAPS  H11B10019   3.803   6.733   6.144  2.3883  0.1390 -0.4753
  100SAPS     P10020   4.019   6.723   6.308 -0.0440 -0.0896 -0.6413
  100SAPS   O1310021   4.134   6.758   6.221 -0.3201 -0.7260 -0.5171
  100SAPS   O1410022   3.923   6.825   6.356 -0.7161 -0.1153  0.4376
  100SAPS   O1210023   3.940   6.605   6.235 -0.2524  0.4806 -0.0640
  100SAPS   O1110024   4.067   6.640   6.438 -0.7737 -0.3142 -0.0064
  100SAPS    C110025   3.998   6.532   6.501  0.7521 -0.0074  0.2476
  100SAPS    HA10026   3.891   6.518   6.477  0.6843  1.8258 -0.6648
  100SAPS    HB10027   4.030   6.436   6.456 -2.7177 -0.3416 -1.8551
  100SAPS    C210028   4.010   6.524   6.656  0.2036 -0.1214 -0.0751
  100SAPS    HS10029   3.930   6.457   6.692  0.2725  0.8884  2.1215
  100SAPS   O2110030   3.997   6.659   6.714 -0.0763  0.0579 -0.1053
  100SAPS   C2110031   3.878   6.691   6.721 -0.5071 -1.0082 -0.7944
  100SAPS   O2210032   3.776   6.630   6.693  0.0338 -0.3280 -0.6558
  100SAPS   C2210033   3.868   6.811   6.808  0.4945 -0.2942 -0.2006
  100SAPS   H2R10034   3.853   6.900   6.743 -1.8230 -0.5100 -0.0568
  100SAPS   H2S10035   3.779   6.805   6.874  1.2047 -0.4749  0.7488
  100SAPS    C310036   4.146   6.467   6.700 -0.0988  0.5780 -0.2801
  100SAPS    HX10037   4.235   6.529   6.675  0.2177  0.5786  0.7782
  100SAPS    HY10038   4.152   6.364   6.657  2.5540  1.5000 -2.4151
  100SAPS   O3110039   4.144   6.458   6.845 -0.4032  0.0565 -0.3863
  100SAPS   C3110040   4.247   6.388   6.904 -0.6630 -0.4598  0.1278
  100SAPS   O3210041   4.340   6.336   6.841  0.4206 -0.4060  0.7143
  100SAPS   C3210042   4.235   6.406   7.055  0.3700 -0.9446 -0.2418
  100SAPS   H2X10043   4.145   6.349   7.090 -0.7728  1.0258  0.1624
  100SAPS   H2Y10044   4.222   6.514   7.075  0.8909 -0.5705 -1.8222
  100SAPS   C2310045   3.978   6.849   6.911  0.0945 -0.5005  0.8348
  100SAPS   H3R10046   3.965   6.959   6.913 -0.6553 -0.4734 -1.8164
  100SAPS   H3S10047   4.082   6.821   6.887  0.2848  1.7682 -1.3761
  100SAPS   C2410048   3.942   6.795   7.053  0.5163 -0.4826  0.2432
  100SAPS   H4R10049   3.846   6.848   7.069  1.7896  1.6551  1.3458
  100SAPS   H4S10050   4.008   6.832   7.135  0.5671 -0.2656  0.1049
  100SAPS   C2510051   3.930   6.647   7.074 -0.2875  0.1518 -0.0034
  100SAPS   H5R10052   3.920   6.588   6.981 -2.2247 -1.3716  1.1068
  100SAPS   C2610053   3.946   6.579   7.191 -0.4753 -0.2746 -0.2376
  100SAPS   H6R10054   3.925   6.472   7.199 -0.7841 -0.1872  0.1529
  100SAPS   C2710055   3.958   6.644   7.323  0.1098  0.3076 -0.0113
  100SAPS   H7R10056   3.857   6.687   7.344  0.6597  1.7989 -0.2692
  100SAPS   H7S10057   4.020   6.736   7.310 -0.1961  0.3661 -1.2547
  100SAPS   C2810058   4.024   6.568   7.434 -0.4240 -0.1802 -0.5395
  100SAPS   H8R10059   4.121   6.524   7.406  0.2553  1.1767 -0.4371
  100SAPS   C2910060   3.988   6.570   7.567 -0.5676  0.7050  0.6015
  100SAPS   H9R10061   4.049   6.507   7.634 -0.4953 -0.9310 -0.9146
  100SAPS  C21010062   3.862   6.633   7.615 -0.2765 -0.2686  0.3992
  100SAPS  H10R10063   3.806   6.560   7.677 -1.5896 -0.4453 -0.9249
  100SAPS  H10S10064   3.791   6.650   7.531  2.1320 -0.0665 -1.6906
  100SAPS  C21110065   3.877   6.766   7.688 -0.4599 -0.4077 -0.1863
  100SAPS  H11R10066   3.884   6.850   7.617 -2.1434 -0.9250 -1.0141
  100SAPS  C21210067   3.887   6.783   7.822 -0.2117  0.7353 -0.6162
  100SAPS  H12R10068   3.905   6.883   7.865 -1.5568  1.1809 -1.0393
  100SAPS  C21310069   3.878   6.673   7.926 -0.9534  0.0290  0.0283
  100SAPS  H13R10070   3.976   6.683   7.978  0.9763  3.5106 -3.6537
  100SAPS  H13S10071   3.869   6.577   7.871 -1.1749  1.0142 -1.7444
  100SAPS  C21410072   3.763   6.688   8.020  0.0081 -0.1518 -0.0897
  100SAPS  H14R10073   3.698   6.775   8.000 -0.6613  0.2073  3.1193
  100SAPS  C21510074   3.758   6.624   8.140 -0.2343  0.1148 -0.6035
  100SAPS  H15R10075   3.675   6.655   8.205 -0.6329  0.5640 -1.3034
  100SAPS  C21610076   3.855   6.525   8.201 -0.0318  0.3064  0.3981
  100SAPS  H16R10077   3.953   6.572   8.219  0.0051  0.1355  0.6489
  100SAPS  H16S10078   3.863   6.434   8.137  0.8291 -2.1065  3.6679
  100SAPS  C21710079   3.788   6.473   8.332  0.6580  0.0002  0.7189
  100SAPS  H17R10080   3.843   6.382   8.365 -1.0435 -0.5288  2.3131
  100SAPS  H17S10081   3.680   6.444   8.324  1.2604 -2.1788 -0.2992
  100SAPS  C21810082   3.798   6.579   8.444 -0.3172 -0.4422  0.2342
  100SAPS  H18R10083   3.763   6.679   8.410 -0.2507 -0.2986  0.5874
  100SAPS  H18S10084   3.906   6.595   8.460 -0.5871  1.3941  0.4532
  100SAPS  C21910085   3.725   6.538   8.571  0.1473  0.0346  0.2418
  100SAPS  H19R10086   3.782   6.457   8.623 -1.6073 -0.1308  2.0122
  100SAPS  H19S10087   3.629   6.496   8.536  0.7311  0.1962 -1.6936
  100SAPS  C22010088   3.694   6.649   8.671  0.5609  0.1768  0.0714
  100SAPS  H20R10089   3.668   6.592   8.763  2.8383 -2.3141 -0.7149
  100SAPS  H20S10090   3.614   6.713   8.627 -0.8171 -1.6547 -0.1811
  100SAPS  H20T10091   3.789   6.706   8.676  0.3229  0.5056  1.0769
  100SAPS   C3310092   4.350   6.356   7.147  0.8143  0.1686 -0.0887
  100SAPS   H3X10093   4.324   6.399   7.247 -3.0436  1.7682 -1.6019
  100SAPS   H3Y10094   4.453   6.392   7.123  2.6166 -2.6860  2.6046
  100SAPS   C3410095   4.353   6.203   7.171 -0.4461  0.9170  0.4805
  100SAPS   H4X10096   4.458   6.170   7.159 -0.4175 -0.0506  2.8904
  100SAPS   H4Y10097   4.293   6.147   7.096  0.2644 -2.2728  2.1244
  100SAPS   C3510098   4.299   6.152   7.310  0.9059  0.3037  0.4993
  100SAPS   H5X10099   4.284   6.043   7.297  0.0698  0.1632  2.4066
  100SAPS   H5Y10100   4.199   6.189   7.339 -0.0326 -1.1870 -0.6949
  100SAPS   C3610101   4.400   6.164   7.424  0.1746 -0.4468 -0.3374
  100SAPS   H6X10102   4.451   6.261   7.409  3.8731 -2.1778  0.0779
  100SAPS   H6Y10103   4.481   6.089   7.421  0.7663  0.1761 -0.2559
  100SAPS   C3710104   4.335   6.160   7.560  0.1100  0.7323 -0.5840
  100SAPS   H7X10105   4.410   6.119   7.631 -1.4684 -0.8311  0.2593
  100SAPS   H7Y10106   4.248   6.092   7.572 -1.3980  2.3775 -1.6319
  100SAPS   C3810107   4.290   6.299   7.606 -0.2764 -0.6026  0.0168
  100SAPS   H8X10108   4.207   6.334   7.541  2.0012  2.0080 -1.7146
  100SAPS   H8Y10109   4.378   6.365   7.590  0.6817 -1.6145  0.9645
  100SAPS   C3910110   4.239   6.310   7.755  0.6333  1.0552 -0.4855
  100SAPS   H9X10111   4.209   6.417   7.763 -1.1384  0.4621  2.0095
  100SAPS   H9Y10112   4.324   6.304   7.826  0.6481  1.6451 -0.4501
  100SAPS  C31010113   4.130   6.207   7.800 -0.0124 -0.0104  0.7440
  100SAPS  H10X10114   4.175   6.106   7.798  0.6383  0.1182 -4.1518
  100SAPS  H10Y10115   4.054   6.202   7.719  2.7555 -1.5952 -1.9771
  100SAPS  C31110116   4.063   6.237   7.928 -0.4845 -0.6006  0.2594
  100SAPS  H11X10117   3.996   6.157   7.965 -0.1637 -0.5328  1.0081
  100SAPS  H11Y10118   4.010   6.333   7.911 -1.2209 -1.3815 -2.2512
  100SAPS  C31210119   4.161   6.266   8.041  0.6667  0.5322  0.1353
  100SAPS  H12X10120   4.102   6.298   8.130 -2.5880  2.8577 -2.6059
  100SAPS  H12Y10121   4.228   6.351   8.015 -0.0215  0.7250 -1.0676
  100SAPS  C31310122   4.247   6.142   8.080 -0.0335 -0.1513 -0.1167
  100SAPS  H13X10123   4.339   6.148   8.018  0.6583  0.4541  0.9478
  100SAPS  H13Y10124   4.187   6.053   8.049 -1.3122  0.5933  0.1096
  100SAPS  C31410125   4.282   6.140   8.229  0.0327 -0.1360  0.0010
  100SAPS  H14X10126   4.304   6.033   8.251  2.4984  0.4681  0.7022
  100SAPS  H14Y10127   4.191   6.169   8.286 -1.1784 -1.5901 -1.0973
  100SAPS  C31510128   4.397   6.229   8.271 -0.0820 -0.1922  0.1430
  100SAPS  H15X10129   4.484   6.216   8.203 -0.2001  0.8869 -0.2352
  100SAPS  H15Y10130   4.425   6.195   8.373  1.6957  2.3743  0.6448
  100SAPS  C31610131   4.356   6.381   8.280 -0.7954 -0.1070  0.2654
  100SAPS  H16X10132   4.257   6.391   8.330  0.1120 -0.2818  2.1807
  100SAPS  H16Y10133   4.345   6.408   8.173  0.4517 -0.4300  0.0422
  100SAPS  C31710134   4.459   6.468   8.344 -0.1692  0.1955  0.6472
  100SAPS  H17X10135   4.558   6.436   8.303 -0.2802 -0.4084  0.8384
  100SAPS  H17Y10136   4.448   6.442   8.451 -1.7207 -1.6444  0.1022
  100SAPS  C31810137   4.437   6.613   8.324 -0.6039 -0.1690 -0.3519
  100SAPS  H18X10138   4.421   6.644   8.218 -0.3372 -1.8537 -0.9216
  100SAPS  H18Y10139   4.523   6.670   8.364 -1.0646 -0.3253  0.9040
  100SAPS  H18Z10140   4.349   6.644   8.383  0.7585  0.6549  1.3204
  101OSM      N10141   3.893   2.404  10.960  0.5517  0.4317 -0.4244
  101OSM    C1510142   3.840   2.528  11.026 -0.3475  0.3081 -0.7109
  101OSM   H15A10143   3.739   2.546  10.993 -0.0634 -1.9822 -3.1798
  101OSM   H15B10144   3.902   2.612  10.997  4.2192 -2.9982 -1.6348
  101OSM   H15C10145   3.844   2.524  11.134  0.8668 -0.3079 -0.7632
  101OSM    C1410146   4.044   2.407  10.986  0.2706 -0.5649 -0.3632
  101OSM   H14A10147   4.091   2.315  10.954  0.1745 -0.2313 -1.5200
  101OSM   H14B10148   4.059   2.417  11.092 -1.3255 -1.1040 -0.0502
  101OSM   H14C10149   4.090   2.496  10.945  1.0383 -0.6112  0.3725
  101OSM    C1310150   3.823   2.283  11.013  0.1642  0.4461 -0.9023
  101OSM   H13A10151   3.882   2.239  11.092  1.5518 -0.1725 -2.2178
  101OSM   H13B10152   3.809   2.204  10.940 -2.3041 -0.3829  0.3604
  101OSM   H13C10153   3.724   2.305  11.051  1.0055 -0.0575  1.8024
  101OSM    C1210154   3.871   2.414  10.815 -0.0941  0.4189  0.5088
  101OSM   H12A10155   3.932   2.493  10.773  1.3893 -1.7566 -1.7096
  101OSM   H12B10156   3.771   2.442  10.788  0.2954  1.0052 -0.3791
  101OSM    C1110157   3.896   2.292  10.722  0.1330 -0.0885 -0.4445
  101OSM   H11A10158   4.000   2.264  10.752 -0.6281  0.6230  3.3341
  101OSM   H11B10159   3.908   2.325  10.616 -0.9332  0.3184 -0.4424
  101OSM      P10160   3.658   2.188  10.718  0.0313 -0.5410 -0.1750
  101OSM    O1310161   3.583   2.107  10.816 -0.0855 -0.1863 -0.5498
  101OSM    O1410162   3.619   2.329  10.708  0.2630 -0.2764  0.0400
  101OSM    O1110163   3.642   2.133  10.571 -0.4304  0.2068  0.4448
  101OSM    O1210164   3.814   2.176  10.746 -0.3514 -0.2318  0.2038
  101OSM    C1S10165   3.736   2.043  10.507  0.3916  0.8716  0.6626
  101OSM    H1S10166   3.698   1.940  10.523  1.0796  0.5034  0.0041
  101OSM    H1T10167   3.833   2.043  10.562 -0.2910  1.4177  1.9051
  101OSM     NF10168   3.846   1.985  10.304  0.0161 -0.2236  0.6251
  101OSM    HNF10169   3.933   2.018  10.268 -1.0152  0.5052 -1.3624
  101OSM    C2S10170   3.752   2.081  10.361 -0.1212 -0.4103  0.5140
  101OSM    H2S10171   3.656   2.064  10.308  0.5657 -1.3015 -0.4789
  101OSM    C3S10172   3.794   2.235  10.350 -0.2178 -0.7321 -0.4045
  101OSM    H3S10173   3.887   2.248  10.410 -1.1243  1.3665  0.6881
  101OSM     O310174   3.700   2.332  10.402  0.9342  0.4695  1.1549
  101OSM    HO310175   3.651   2.283  10.468  0.6094 -0.1797  0.4470
  101OSM    C4S10176   3.829   2.277  10.210  0.1167  0.1776  0.0527
  101OSM    H4S10177   3.748   2.286  10.136  0.6816 -0.2689 -0.6280
  101OSM    C5S10178   3.950   2.327  10.174  0.2145 -0.7720  1.1792
  101OSM    H5S10179   4.033   2.335  10.245  1.2741 -0.1243 -0.0829
  101OSM    C6S10180   3.979   2.373  10.036  0.6126 -0.1931 -0.2938
  101OSM    H6S10181   4.073   2.430  10.026  0.5713 -0.3379 -1.7389
  101OSM    H6T10182   3.897   2.446  10.019  0.7238  0.7227  2.6784
  101OSM    C7S10183   3.975   2.273   9.918 -0.0395 -0.0389 -0.2343
  101OSM    H7S10184   3.874   2.228   9.901 -0.5087  0.7399  0.4170
  101OSM    H7T10185   4.048   2.190   9.930 -0.6194 -0.4897  0.3114
  101OSM    C8S10186   4.016   2.336   9.784 -0.2128  0.1916 -0.2057
  101OSM    H8S10187   4.122   2.368   9.791 -0.5974  1.0791  2.9924
  101OSM    H8T10188   3.960   2.430   9.764 -0.2210  0.3165  0.3811
  101OSM    C9S10189   3.990   2.240   9.672 -0.1919 -0.3472 -0.4166
  101OSM    H9S10190   3.895   2.186   9.688 -0.3208  0.2836  1.1628
  101OSM    H9T10191   4.083   2.183   9.692 -0.4456 -0.5963  0.0660
  101OSM   C10S10192   3.988   2.312   9.538 -0.5134  0.2172 -0.0093
  101OSM   H10S10193   4.058   2.397   9.529 -1.2492  0.8065 -0.3112
  101OSM   H10T10194   3.882   2.345   9.526 -0.2494  1.1333  0.0925
  101OSM   C11S10195   4.006   2.209   9.416  0.1393 -0.1840 -0.0116
  101OSM   H11S10196   3.925   2.133   9.416  0.1600 -0.2066 -0.0545
  101OSM   H11T10197   4.103   2.155   9.427  0.0943 -0.2616  0.0015
  101OSM   C12S10198   3.987   2.280   9.284 -0.0748  0.2754 -0.0797
  101OSM   H12S10199   4.062   2.360   9.264  2.1997 -1.6850  0.1500
  101OSM   H12T10200   3.881   2.313   9.279 -0.5467 -0.7734  2.1308
  101OSM   C13S10201   4.000   2.180   9.170  0.8692 -1.0625 -0.9042
  101OSM   H13S10202   3.920   2.105   9.190  0.7584 -0.2756  2.1131
  101OSM   H13T10203   4.092   2.119   9.178 -0.7471 -3.3905  1.8277
  101OSM   C14S10204   3.981   2.249   9.029 -0.3507  0.4009 -0.9415
  101OSM   H14S10205   4.077   2.305   9.024 -0.4593  0.5672 -1.1843
  101OSM   H14T10206   3.889   2.311   9.025 -1.9809 -1.5767  1.8728
  101OSM   C15S10207   3.971   2.151   8.913 -0.0059 -0.2336 -0.1648
  101OSM   H15S10208   3.886   2.086   8.941 -0.3387  0.5859  0.7845
  101OSM   H15T10209   4.065   2.092   8.906  0.1295  0.0390 -0.6860
  101OSM   C16S10210   3.957   2.235   8.780 -0.0599 -0.1127  0.1735
  101OSM   H16S10211   4.045   2.301   8.769 -0.6547  0.8600  1.0641
  101OSM   H16T10212   3.870   2.302   8.797  1.5526  2.5048 -1.2091
  101OSM   C17S10213   3.957   2.154   8.647  0.4737 -0.0106  0.7295
  101OSM   H17S10214   3.883   2.073   8.665  0.5314 -0.5720 -1.2643
  101OSM   H17T10215   4.052   2.099   8.629  1.4333  1.9393 -0.5207
  101OSM   C18S10216   3.926   2.233   8.516  0.0533  0.5287  0.1379
  101OSM   H18S10217   3.835   2.295   8.532  1.0979  2.3835 -0.7184
  101OSM   H18T10218   3.893   2.157   8.443 -1.1563  1.7069 -0.5810
  101OSM   H18U10219   4.012   2.289   8.472  0.1434  0.9745  0.8591
  101OSM    C1F10220   3.821   1.856  10.271  0.9449 -0.7528 -0.6418
  101OSM     OF10221   3.712   1.802  10.300  0.3318  0.0439 -0.0728
  101OSM    C2F10222   3.932   1.790  10.199 -0.3178  0.6863 -0.2063
  101OSM    H2F10223   3.923   1.679  10.202 -1.6050  0.8018  1.9558
  101OSM    H2G10224   4.031   1.821  10.240  0.4203 -0.6889 -0.8748
  101OSM    C3F10225   3.933   1.818  10.050  0.5537  0.1452  0.0561
  101OSM    H3F10226   3.934   1.929  10.051 -2.4967  0.2694  1.6459
  101OSM    H3G10227   3.845   1.764  10.010  1.1764 -0.1343 -0.9906
  101OSM    C4F10228   4.066   1.790   9.973 -0.1482  0.2345 -0.7532
  101OSM    H4F10229   4.067   1.679   9.968 -3.9026 -0.3279  3.7932
  101OSM    H4G10230   4.146   1.834  10.036 -0.2835 -1.0499  0.3438
  101OSM    C5F10231   4.058   1.856   9.830  0.8229 -0.7455 -0.7489
  101OSM    H5F10232   4.067   1.966   9.835  0.6925 -0.7761  0.5285
  101OSM    H5G10233   3.964   1.826   9.780 -0.9824  1.2281  1.2897
  101OSM    C6F10234   4.181   1.814   9.737 -0.5972 -0.7827 -0.5430
  101OSM    H6F10235   4.200   1.706   9.716  1.6030 -0.5663  0.0727
  101OSM    H6G10236   4.275   1.849   9.784 -1.7767  0.1652  1.2331
  101OSM    C7F10237   4.173   1.882   9.600  0.0396  0.4860  0.9026
  101OSM    H7F10238   4.149   1.990   9.606  1.9921  0.9833  0.4811
  101OSM    H7G10239   4.082   1.839   9.552  0.2229  0.1480  0.8528
  101OSM    C8F10240   4.305   1.870   9.516  0.4445  0.1259  0.2239
  101OSM    H8F10241   4.300   1.765   9.482  0.3490  0.1929  0.0297
  101OSM    H8G10242   4.399   1.888   9.573 -0.0510  0.9079  0.8221
  101OSM    C9F10243   4.316   1.965   9.400  0.0252  0.2088 -0.3960
  101OSM    H9F10244   4.350   2.065   9.430 -3.8998  1.6498 -0.1385
  101OSM   C10F10245   4.301   1.942   9.273 -0.5294 -0.1188 -0.2552
  101OSM   H10F10246   4.317   2.013   9.191  4.6960 -0.1497  0.4126
  101OSM   C11F10247   4.252   1.810   9.216  0.0401 -0.1740  0.1209
  101OSM   H11F10248   4.163   1.822   9.152 -1.5603 -3.2684  1.5575
  101OSM   H11G10249   4.230   1.732   9.292 -1.1270  0.5024  0.5039
  101OSM   C12F10250   4.355   1.738   9.122  0.2428  0.6077 -0.1369
  101OSM   H12F10251   4.313   1.639   9.093  0.7147 -0.1668  1.6998
  101OSM   H12G10252   4.455   1.723   9.168  0.7755  2.3883 -0.6067
  101OSM   C13F10253   4.357   1.805   8.984  0.0688  0.3863 -0.2649
  101OSM   H13F10254   4.395   1.909   8.995  0.2073  0.5735 -2.1314
  101OSM   H13G10255   4.251   1.800   8.953  0.2514  0.3115 -0.8916
  101OSM   C14F10256   4.445   1.721   8.887  0.1802  0.0415  0.0472
  101OSM   H14F10257   4.424   1.613   8.901 -2.9834  0.2404 -2.1951
  101OSM   H14G10258   4.547   1.729   8.931  0.2211  0.3706 -0.1044
  101OSM   C15F10259   4.434   1.754   8.746 -0.0321 -0.8493  0.0302
  101OSM   H15F10260   4.461   1.860   8.728 -1.7468 -0.3182  0.3748
  101OSM   H15G10261   4.328   1.739   8.718  0.1466  0.3973 -1.4500
  101OSM   C16F10262   4.523   1.671   8.655  0.5907  0.0692  0.2052
  101OSM   H16F10263   4.494   1.566   8.676 -3.4023  1.2593  1.5128
  101OSM   H16G10264   4.630   1.670   8.686  0.6991 -2.1473 -0.1047
  101OSM   C17F10265   4.503   1.704   8.509  0.6647 -0.0754 -0.6427
  101OSM   H17F10266   4.585   1.668   8.443  2.0850 -0.4808  1.2470
  101OSM   H17G10267   4.526   1.812   8.501 -1.8710  0.5904  0.0726
  101OSM   C18F10268   4.366   1.675   8.459 -0.2707  0.0947  0.3040
  101OSM   H18F10269   4.289   1.742   8.502  0.0873  0.6875  0.0371
  101OSM   H18G10270   4.338   1.569   8.475  0.2800  0.0639  1.1335
  101OSM   H18H10271   4.369   1.695   8.349  0.3148  1.7237  0.5922
  102OSM      N10272   3.679   0.852  10.639  0.0573  0.4783 -0.0447
  102OSM    C1510273   3.740   0.853  10.503  0.4750  0.7362 -0.5127
  102OSM   H15A10274   3.777   0.752  10.486  0.4978  0.4172  1.2898
  102OSM   H15B10275   3.808   0.936  10.497 -1.0694  2.0425 -0.5144
  102OSM   H15C10276   3.667   0.874  10.426 -0.6830  0.7591  0.5701
  102OSM    C1410277   3.569   0.745  10.652 -0.0566 -0.2515  0.7277
  102OSM   H14A10278   3.470   0.783  10.632  0.8166  2.4786  1.0177
  102OSM   H14B10279   3.556   0.709  10.753 -0.8228 -1.2174  0.2893
  102OSM   H14C10280   3.587   0.659  10.591 -1.4132  1.5090 -2.3773
  102OSM    C1310281   3.791   0.811  10.734 -0.3504 -0.5728 -0.0708
  102OSM   H13A10282   3.756   0.794  10.835 -1.6172 -0.9634 -0.5618
  102OSM   H13B10283   3.870   0.884  10.724 -0.0634 -1.1809 -3.1660
  102OSM   H13C10284   3.823   0.713  10.704 -1.3639 -0.5750 -1.2032
  102OSM    C1210285   3.633   0.996  10.673 -0.4870  0.2557 -0.0501
  102OSM   H12A10286   3.558   1.029  10.602  0.0943  0.8004 -0.4149
  102OSM   H12B10287   3.717   1.060  10.652 -0.2079 -0.4639 -1.2588
  102OSM    C1110288   3.568   1.019  10.814 -0.5715 -0.6455  0.4990
  102OSM   H11A10289   3.549   1.129  10.822  2.6852  0.2868 -2.1875
  102OSM   H11B10290   3.638   1.001  10.898  0.5091 -0.3783 -0.3239
  102OSM      P10291   3.304   0.969  10.827  0.3141  0.3349 -0.1491
  102OSM    O1310292   3.231   0.844  10.798 -0.2464  0.8302 -0.1837
  102OSM    O1410293   3.258   1.061  10.937  0.1662 -0.2714  0.0130
  102OSM    O1110294   3.315   1.058  10.699 -0.0965  0.5444  0.5289
  102OSM    O1210295   3.459   0.933  10.846 -0.2247  0.3417  0.2238
  102OSM    C1S10296   3.222   1.163  10.683  0.0508 -1.7265  0.0925
  102OSM    H1S10297   3.222   1.227  10.773 -1.2359 -0.9665 -0.4285
  102OSM    H1T10298   3.125   1.115  10.654  0.6803 -1.4912 -2.6776
  102OSM     NF10299   3.178   1.380  10.581  0.0388  1.1503 -0.2357
  102OSM    HNF10300   3.105   1.389  10.513  1.4761  1.0687 -1.8512
  102OSM    C2S10301   3.261   1.260  10.571  0.6347 -0.0718  0.2920
  102OSM    H2S10302   3.364   1.291  10.600  0.7839 -0.2899  0.0035
  102OSM    C3S10303   3.255   1.186  10.439  0.3434  0.2543  0.1300
  102OSM    H3S10304   3.149   1.155  10.428  0.5884 -0.1993 -1.2491
  102OSM     O310305   3.325   1.064  10.433  0.3851  0.4445  0.3495
  102OSM    HO310306   3.349   1.052  10.526 -1.8125 -1.6281  0.7341
  102OSM    C4S10307   3.304   1.269  10.334 -1.4597  0.0062 -0.4036
  102OSM    H4S10308   3.387   1.331  10.370 -1.3931 -1.3003  1.8525
  102OSM    C5S10309   3.252   1.296  10.215  1.2523  0.6641 -1.2065
  102OSM    H5S10310   3.161   1.239  10.195  0.8569 -0.2947  2.5199
  102OSM    C6S10311   3.301   1.391  10.116 -0.8009 -0.4520  0.0585
  102OSM    H6S10312   3.299   1.344  10.015  0.7484 -2.7435  1.0005
  102OSM    H6T10313   3.404   1.421  10.144 -1.1458  0.2858  0.5604
  102OSM    C7S10314   3.204   1.508  10.115 -0.1144  0.5655  0.0158
  102OSM    H7S10315   3.214   1.565  10.210 -1.7735  0.9574 -0.0251
  102OSM    H7T10316   3.102   1.466  10.104  1.8297 -5.0797 -0.1422
  102OSM    C8S10317   3.230   1.599   9.992 -0.0332 -0.3075 -0.0131
  102OSM    H8S10318   3.221   1.557   9.890 -1.3987  0.0634 -0.0662
  102OSM    H8T10319   3.319   1.663  10.010  0.6436 -0.8876 -1.1968
  102OSM    C9S10320   3.126   1.718   9.990  0.2326 -0.1623  0.4789
  102OSM    H9S10321   3.130   1.790  10.074 -1.1000  1.3985 -0.7299
  102OSM    H9T10322   3.026   1.674  10.011  0.4467  0.3748  2.9607
  102OSM   C10S10323   3.121   1.806   9.865  0.5176  0.4076  0.3533
  102OSM   H10S10324   3.132   1.752   9.769 -0.8173 -2.8585  1.8997
  102OSM   H10T10325   3.201   1.881   9.883 -0.0911  0.9699  0.8224
  102OSM   C11S10326   2.991   1.886   9.850  0.5163 -0.2995 -0.1389
  102OSM   H11S10327   2.960   1.920   9.951 -2.2383  0.0869 -1.0428
  102OSM   H11T10328   2.912   1.816   9.815 -1.3209  1.6049  0.0377
  102OSM   C12S10329   2.987   2.008   9.762  0.6157 -0.1114  0.2549
  102OSM   H12S10330   3.061   2.086   9.790 -0.2477  1.1158 -0.7998
  102OSM   H12T10331   2.886   2.055   9.764  1.2590  1.3080  0.0471
  102OSM   C13S10332   3.031   1.979   9.615  0.2878  0.1126  0.2544
  102OSM   H13S10333   2.966   1.898   9.575  2.8708 -1.6887 -0.5578
  102OSM   H13T10334   3.130   1.929   9.615 -0.5686 -1.6367 -0.3172
  102OSM   C14S10335   3.027   2.101   9.527 -0.8975  0.0667 -0.1000
  102OSM   H14S10336   3.112   2.166   9.556 -1.9061  2.0011 -1.2176
  102OSM   H14T10337   2.927   2.148   9.539 -2.9211 -3.1802 -2.4077
  102OSM   C15S10338   3.044   2.073   9.377 -0.1579 -0.6253  0.3478
  102OSM   H15S10339   2.977   1.990   9.348  0.6148 -1.9835  2.2802
  102OSM   H15T10340   3.142   2.022   9.365 -0.2281 -0.7287  0.2147
  102OSM   C16S10341   3.054   2.191   9.278  0.6058 -0.3495 -0.3672
  102OSM   H16S10342   3.133   2.264   9.304 -0.6641  0.3619  1.6808
  102OSM   H16T10343   2.965   2.255   9.294  1.0741  0.1392  0.3326
  102OSM   C17S10344   3.082   2.130   9.137  0.1835  0.3275 -0.1963
  102OSM   H17S10345   3.009   2.048   9.119 -0.9201  1.6847 -2.3096
  102OSM   H17T10346   3.174   2.069   9.150  0.8906  1.2971 -0.4911
  102OSM   C18S10347   3.109   2.218   9.012 -0.2433  0.1742 -0.0143
  102OSM   H18S10348   3.173   2.303   9.045 -0.3938  1.4127 -2.6043
  102OSM   H18T10349   3.015   2.259   8.967 -0.5798  2.4752  2.5552
  102OSM   H18U10350   3.157   2.162   8.929 -0.6193  2.4309 -1.8540
  102OSM    C1F10351   3.182   1.472  10.681  0.1174 -0.4493  0.1627
  102OSM     OF10352   3.261   1.464  10.773 -0.1805 -0.7891  0.0275
  102OSM    C2F10353   3.095   1.595  10.661 -0.6728  0.3476 -0.4326
  102OSM    H2F10354   3.030   1.601  10.751 -0.9750  0.1638 -0.6374
  102OSM    H2G10355   3.043   1.593  10.562  1.0767  0.1597 -1.3954
  102OSM    C3F10356   3.180   1.729  10.663  0.6322  0.0344 -0.4791
  102OSM    H3F10357   3.243   1.749  10.752  1.5262  0.1862 -1.1278
  102OSM    H3G10358   3.099   1.804  10.650  1.2108  0.8355  0.4491
  102OSM    C4F10359   3.262   1.742  10.531 -0.0014 -0.2233 -0.5558
  102OSM    H4F10360   3.224   1.693  10.439 -1.0166  2.1916 -1.5115
  102OSM    H4G10361   3.354   1.681  10.547  0.4316  0.7636  0.8735
  102OSM    C5F10362   3.306   1.887  10.502  0.6695  0.2024 -0.3645
  102OSM    H5F10363   3.393   1.927  10.559 -0.7475  2.0011  0.6683
  102OSM    H5G10364   3.223   1.957  10.525  0.4774 -0.4627  1.0320
  102OSM    C6F10365   3.342   1.896  10.351 -0.3346  0.4760  0.5567
  102OSM    H6F10366   3.269   1.847  10.283  0.1532  1.8081 -1.0095
  102OSM    H6G10367   3.441   1.846  10.351 -0.6784 -0.2145  0.0850
  102OSM    C7F10368   3.351   2.039  10.297  0.6752 -0.3078 -0.0615
  102OSM    H7F10369   3.444   2.080  10.343  0.1558 -1.7463  2.4652
  102OSM    H7G10370   3.260   2.085  10.341 -0.0131  0.4947 -2.2255
  102OSM    C8F10371   3.363   2.054  10.145 -0.0211  0.0002  0.4840
  102OSM    H8F10372   3.360   2.163  10.125  2.5331 -0.3501 -2.5137
  102OSM    H8G10373   3.279   2.007  10.089 -1.5670  1.9638  1.0050
  102OSM    C9F10374   3.491   1.990  10.091  0.1167 -0.0402 -0.0082
  102OSM    H9F10375   3.526   1.894  10.133 -0.0379 -0.3238 -0.5179
  102OSM   C10F10376   3.561   2.039   9.989  0.0299 -0.1556  1.4563
  102OSM   H10F10377   3.651   1.982   9.962 -0.4571 -0.2663 -0.0538
  102OSM   C11F10378   3.536   2.175   9.916 -0.2092 -0.0035  0.1341
  102OSM   H11F10379   3.632   2.229   9.904 -0.6114  0.8905  0.8789
  102OSM   H11G10380   3.470   2.243   9.973  1.7723  3.4161 -1.3485
  102OSM   C12F10381   3.477   2.153   9.770  0.0795 -0.2511  0.6650
  102OSM   H12F10382   3.372   2.115   9.768  0.0932 -0.4310  2.1709
  102OSM   H12G10383   3.536   2.084   9.706 -1.3910  0.2582 -1.3582
  102OSM   C13F10384   3.491   2.286   9.694  0.0852  0.0142 -0.6341
  102OSM   H13F10385   3.593   2.331   9.699 -0.1072  0.6999 -2.2174
  102OSM   H13G10386   3.422   2.367   9.725 -0.9839 -0.3739 -1.9033
  102OSM   C14F10387   3.473   2.257   9.547 -0.1154  0.3526 -0.7729
  102OSM   H14F10388   3.364   2.274   9.528 -0.7113  1.1485  2.6688
  102OSM   H14G10389   3.507   2.153   9.530  1.8700  1.2271 -2.5562
  102OSM   C15F10390   3.559   2.347   9.456 -0.1000  0.4267  0.3164
  102OSM   H15F10391   3.566   2.296   9.357  0.3291  0.5949  0.2569
  102OSM   H15G10392   3.659   2.370   9.499 -0.5476  0.0498  1.5913
  102OSM   C16F10393   3.490   2.484   9.427 -0.0800 -0.9740  0.8592
  102OSM   H16F10394   3.463   2.538   9.520 -0.1765 -0.5248  0.5740
  102OSM   H16G10395   3.389   2.469   9.383  0.3654  0.8324 -0.9545
  102OSM   C17F10396   3.569   2.581   9.333 -0.0552  0.0289  0.9315
  102OSM   H17F10397   3.505   2.670   9.313  0.7511  0.5461  0.5894
  102OSM   H17G10398   3.588   2.527   9.239 -0.7945  1.2075  0.0719
  102OSM   C18F10399   3.702   2.637   9.384 -0.9161 -0.0563 -0.0798
  102OSM   H18F10400   3.783   2.562   9.395  1.0219  1.0976 -4.3863
  102OSM   H18G10401   3.685   2.686   9.483  0.7783 -3.4394  2.0792
  102OSM   H18H10402   3.753   2.714   9.321  2.9878 -2.0889  0.2653
  103OSM      N10403   3.348   5.303  11.002 -0.1376  0.1406  0.3024
  103OSM    C1510404   3.323   5.438  10.950  0.6617 -0.3161  0.7844
  103OSM   H15A10405   3.236   5.440  10.887  1.3321  1.6127 -0.1650
  103OSM   H15B10406   3.399   5.480  10.885 -1.8133  0.7266 -1.6050
  103OSM   H15C10407   3.301   5.505  11.032 -2.1393  2.1781 -1.7595
  103OSM    C1410408   3.234   5.278  11.096  0.2430  0.4683 -0.3826
  103OSM   H14A10409   3.140   5.282  11.042  0.0890 -0.7970 -0.2387
  103OSM   H14B10410   3.219   5.349  11.176  0.0628  2.9710 -2.4685
  103OSM   H14C10411   3.237   5.177  11.134 -0.1238  0.0218 -1.4785
  103OSM    C1310412   3.321   5.196  10.901 -0.7185  0.1784 -0.3764
  103OSM   H13A10413   3.224   5.194  10.855 -0.4170  0.8869 -1.0706
  103OSM   H13B10414   3.323   5.103  10.956  1.6480  0.3128 -0.1326
  103OSM   H13C10415   3.399   5.195  10.827  0.0434 -2.4639  0.3196
  103OSM    C1210416   3.481   5.284  11.070 -0.3407 -1.0344  0.0181
  103OSM   H12A10417   3.498   5.361  11.144  2.7269 -1.3753 -0.1984
  103OSM   H12B10418   3.565   5.298  11.004 -1.0344  0.2971 -0.6099
  103OSM    C1110419   3.509   5.143  11.127  0.1596 -0.6245  0.2185
  103OSM   H11A10420   3.427   5.095  11.185  0.9635  0.7452  2.6289
  103OSM   H11B10421   3.581   5.142  11.211 -0.8087  0.0161  1.0829
  103OSM      P10422   3.693   5.061  10.957  0.1227  0.2422  0.3515
  103OSM    O1310423   3.724   5.197  10.902  0.1052  0.1460 -0.2357
  103OSM    O1410424   3.778   5.010  11.062 -0.1694  0.3618 -0.1082
  103OSM    O1110425   3.694   4.948  10.842  0.5091  0.0346 -0.8649
  103OSM    O1210426   3.546   5.058  11.017  0.0873 -0.1535  0.5308
  103OSM    C1S10427   3.593   4.928  10.744  0.4998 -0.1234  0.0098
  103OSM    H1S10428   3.493   4.963  10.777  0.2464 -0.3591 -0.4900
  103OSM    H1T10429   3.586   4.818  10.729 -0.5208 -0.2336  1.0902
  103OSM     NF10430   3.524   4.975  10.506  0.3546 -0.3115  0.0764
  103OSM    HNF10431   3.518   4.889  10.456 -1.6738 -0.3983  0.3675
  103OSM    C2S10432   3.630   4.988  10.606 -0.4088 -0.2434  0.4799
  103OSM    H2S10433   3.653   5.097  10.610 -1.0712 -0.0594 -0.2723
  103OSM    C3S10434   3.766   4.919  10.559  1.1264 -0.6929  0.4562
  103OSM    H3S10435   3.744   4.811  10.543  1.5400 -0.4368 -2.2061
  103OSM     O310436   3.869   4.924  10.649  0.0860  0.2269  0.0495
  103OSM    HO310437   3.826   4.931  10.735  0.4867 -0.8255  0.3539
  103OSM    C4S10438   3.812   4.979  10.433 -0.5767  0.4993 -0.1824
  103OSM    H4S10439   3.803   5.089  10.431 -1.4289  0.5152  1.8930
  103OSM    C5S10440   3.851   4.915  10.315 -0.0773  0.4819 -1.2737
  103OSM    H5S10441   3.850   4.805  10.314  1.3096  0.2922  2.4512
  103OSM    C6S10442   3.899   4.986  10.188  0.7204 -0.1199  0.4141
  103OSM    H6S10443   4.009   5.001  10.191  0.5382  1.9553 -1.2005
  103OSM    H6T10444   3.850   5.085  10.171  1.0014 -0.1184 -0.4333
  103OSM    C7S10445   3.860   4.897  10.068  0.4797 -0.0487  0.4625
  103OSM    H7S10446   3.751   4.904  10.050  0.3954  0.0931  1.0236
  103OSM    H7T10447   3.885   4.793  10.098 -1.6512  0.1974  3.5765
  103OSM    C8S10448   3.930   4.939   9.941 -0.0284 -0.0621  0.9819
  103OSM    H8S10449   4.032   4.895   9.938 -0.3063 -0.9646  2.8106
  103OSM    H8T10450   3.938   5.049   9.928  0.9250 -0.2141  0.1638
  103OSM    C9S10451   3.848   4.880   9.821  0.1130 -0.5982  0.0792
  103OSM    H9S10452   3.746   4.921   9.808  0.1786 -0.9531 -1.8348
  103OSM    H9T10453   3.821   4.775   9.847 -3.6070  0.3852  0.7847
  103OSM   C10S10454   3.918   4.872   9.686  0.1040 -0.3980 -0.1262
  103OSM   H10S10455   4.018   4.823   9.691 -0.3118 -1.4338 -1.5739
  103OSM   H10T10456   3.939   4.979   9.664 -1.7234  0.0595  0.2606
  103OSM   C11S10457   3.827   4.821   9.577  0.2514  0.3297 -0.6911
  103OSM   H11S10458   3.739   4.888   9.564 -0.0464  0.3595  1.2126
  103OSM   H11T10459   3.790   4.719   9.598 -0.2590  0.5193 -0.6427
  103OSM   C12S10460   3.903   4.831   9.445  0.6158 -0.3903  0.4816
  103OSM   H12S10461   3.944   4.932   9.428  0.0858 -0.2805 -0.2084
  103OSM   H12T10462   3.828   4.811   9.365 -0.4705  1.0409  1.0886
  103OSM   C13S10463   4.025   4.732   9.436 -0.5461 -0.5139 -0.4466
  103OSM   H13S10464   4.005   4.640   9.495 -0.7536  0.4850  1.0889
  103OSM   H13T10465   4.102   4.793   9.486 -1.2403 -0.1196  0.1571
  103OSM   C14S10466   4.066   4.687   9.295 -0.8115 -0.4078  0.6771
  103OSM   H14S10467   4.098   4.774   9.235 -0.5556 -1.1985 -0.3537
  103OSM   H14T10468   3.980   4.640   9.244  0.9363 -0.1498 -2.8367
  103OSM   C15S10469   4.190   4.593   9.294  0.3300 -0.2299 -0.4015
  103OSM   H15S10470   4.164   4.496   9.341 -2.8971  1.1479  0.9824
  103OSM   H15T10471   4.272   4.637   9.355  1.0976  0.4531 -1.8796
  103OSM   C16S10472   4.253   4.580   9.163 -0.0584  0.3554 -0.7082
  103OSM   H16S10473   4.333   4.505   9.176 -1.4667 -1.2553 -1.0635
  103OSM   H16T10474   4.294   4.674   9.120  2.6791 -0.1634  0.5284
  103OSM   C17S10475   4.163   4.521   9.052  0.0189 -1.0153 -0.6959
  103OSM   H17S10476   4.068   4.578   9.038  0.6405  0.0723 -0.5219
  103OSM   H17T10477   4.125   4.427   9.097 -1.9910 -0.0363 -0.2124
  103OSM   C18S10478   4.236   4.491   8.919  0.1240  0.3401  0.2042
  103OSM   H18S10479   4.321   4.424   8.944 -1.9600 -2.5627 -0.0033
  103OSM   H18T10480   4.270   4.580   8.860  0.2997  0.3058  0.2533
  103OSM   H18U10481   4.175   4.430   8.850  0.4010  0.4717 -0.1647
  103OSM    C1F10482   3.417   5.059  10.521 -0.2636  0.1519 -0.5460
  103OSM     OF10483   3.426   5.153  10.601 -0.8108  0.3256 -0.0088
  103OSM    C2F10484   3.283   5.030  10.452  0.4325  0.1664 -0.3156
  103OSM    H2F10485   3.208   5.030  10.534 -0.0293  2.1473 -0.7056
  103OSM    H2G10486   3.290   4.929  10.406 -0.3907 -1.3066  2.5595
  103OSM    C3F10487   3.251   5.142  10.349  0.1762  0.4783  0.1736
  103OSM    H3F10488   3.282   5.237  10.397 -0.9627  1.2547 -0.5997
  103OSM    H3G10489   3.142   5.149  10.332 -0.2984 -1.4113  1.9989
  103OSM    C4F10490   3.326   5.115  10.214  0.5548  0.1799 -0.3955
  103OSM    H4F10491   3.291   5.019  10.170  1.3644 -1.6898  2.7299
  103OSM    H4G10492   3.434   5.105  10.239  0.5521  1.9419  0.4508
  103OSM    C5F10493   3.304   5.225  10.106  0.1669 -0.3200  0.5897
  103OSM    H5F10494   3.333   5.321  10.153  0.4371 -0.3225  0.4269
  103OSM    H5G10495   3.196   5.226  10.080  0.0082  2.1727  1.1209
  103OSM    C6F10496   3.405   5.207   9.994  0.0877  0.5938  0.6953
  103OSM    H6F10497   3.436   5.104   9.967 -0.1204  0.8380 -0.5108
  103OSM    H6G10498   3.500   5.260  10.015  0.1702  0.5031  0.5544
  103OSM    C7F10499   3.365   5.262   9.856 -0.3442 -0.1529 -0.1120
  103OSM    H7F10500   3.460   5.275   9.799  0.8469 -2.7438  1.1161
  103OSM    H7G10501   3.324   5.363   9.876 -0.5381 -0.1790 -0.3805
  103OSM    C8F10502   3.265   5.176   9.784 -0.9409 -0.8440 -0.2745
  103OSM    H8F10503   3.223   5.247   9.710 -0.0063  0.8191  0.7486
  103OSM    H8G10504   3.191   5.149   9.863 -1.1821  1.5638  0.3941
  103OSM    C9F10505   3.317   5.050   9.714 -0.4021  0.2716 -0.1296
  103OSM    H9F10506   3.321   4.960   9.777  2.6069  0.3768 -0.0247
  103OSM   C10F10507   3.342   5.049   9.581 -0.8620 -0.3117 -0.3414
  103OSM   H10F10508   3.402   4.970   9.534 -1.0334  0.8346 -2.6167
  103OSM   C11F10509   3.336   5.167   9.485 -0.2743 -0.0333  0.2590
  103OSM   H11F10510   3.437   5.185   9.441  0.4007 -1.3413  1.2149
  103OSM   H11G10511   3.301   5.265   9.524  0.0068  0.3374 -0.3975
  103OSM   C12F10512   3.252   5.124   9.360  0.3028 -0.7110  0.8371
  103OSM   H12F10513   3.244   5.213   9.293 -1.1621  0.2488  2.2109
  103OSM   H12G10514   3.148   5.116   9.396  0.0160 -2.3240 -0.2226
  103OSM   C13F10515   3.278   5.003   9.274 -0.2225  0.3432 -0.1857
  103OSM   H13F10516   3.384   5.000   9.239 -0.3832  0.8245 -0.7315
  103OSM   H13G10517   3.262   4.917   9.342 -1.4484 -0.5479 -1.5418
  103OSM   C14F10518   3.179   4.987   9.154 -0.0736 -0.1022 -0.5426
  103OSM   H14F10519   3.176   5.078   9.090  1.2056 -0.1556 -0.6941
  103OSM   H14G10520   3.081   4.982   9.206  1.3420  1.2376  2.4721
  103OSM   C15F10521   3.197   4.865   9.066 -0.8885 -0.5039  0.3955
  103OSM   H15F10522   3.221   4.778   9.131 -1.1785 -0.7093  0.2301
  103OSM   H15G10523   3.293   4.886   9.014  0.5077 -1.8839  2.2908
  103OSM   C16F10524   3.080   4.836   8.964 -0.7520 -0.4146 -0.0674
  103OSM   H16F10525   3.061   4.923   8.897  1.4401  1.8632  2.0506
  103OSM   H16G10526   2.991   4.809   9.024 -1.1170  0.2648 -0.2894
  103OSM   C17F10527   3.101   4.708   8.875  0.3160  1.1802 -0.0976
  103OSM   H17F10528   3.122   4.627   8.948 -0.3431 -0.0073 -1.1687
  103OSM   H17G10529   3.190   4.731   8.812  0.9478  2.8534  1.3354
  103OSM   C18F10530   2.987   4.661   8.787  0.5503 -0.8355  0.3385
  103OSM   H18F10531   2.998   4.553   8.761 -0.2040 -0.6109 -1.0142
  103OSM   H18G10532   2.981   4.723   8.695  0.1624 -2.9836 -1.1693
  103OSM   H18H10533   2.884   4.680   8.824 -0.2271 -1.8138 -1.1803
  104OSM      N10534   0.275   4.576  10.743  0.7607 -0.3001  0.3806
  104OSM    C1510535   0.319   4.470  10.654 -0.4789 -0.5039 -0.0775
  104OSM   H15A10536   0.323   4.384  10.720  0.6619 -0.6263 -0.2827
  104OSM   H15B10537   0.417   4.490  10.612 -0.6559  0.8718  0.1221
  104OSM   H15C10538   0.246   4.446  10.578 -0.5191 -1.8395  0.3425
  104OSM    C1410539   0.140   4.542  10.796 -0.1991  0.6090 -0.3329
  104OSM   H14A10540   0.093   4.616  10.859  0.0914 -2.2578  3.6321
  104OSM   H14B10541   0.148   4.449  10.850 -1.5199  0.7327  0.1347
  104OSM   H14C10542   0.065   4.520  10.722 -2.2650 -2.2810  2.3328
  104OSM    C1310543   0.371   4.549  10.852 -0.6383 -0.2955 -0.2002
  104OSM   H13A10544   0.359   4.451  10.895  0.4096 -0.1615  0.4299
  104OSM   H13B10545   0.365   4.608  10.942 -0.7214 -1.2680  0.4505
  104OSM   H13C10546   0.466   4.557  10.801 -1.0854  0.1303 -0.9760
  104OSM    C1210547   0.276   4.705  10.670 -0.0438 -1.3876  0.5943
  104OSM   H12A10548   0.203   4.692  10.592  1.9494 -1.6042 -1.3341
  104OSM   H12B10549   0.374   4.727  10.629  0.6925 -1.1981  2.3754
  104OSM    C1110550   0.242   4.835  10.760 -0.4469 -0.4504 -0.1466
  104OSM   H11A10551   0.138   4.823  10.795 -0.3510  0.3620  0.4762
  104OSM   H11B10552   0.241   4.926  10.696  1.7855 -0.9720 -1.0352
  104OSM      P10553   0.443   4.953  10.872 -0.3490 -0.4797  0.4528
  104OSM    O1310554   0.383   5.092  10.866  0.4986 -0.1961  0.0277
  104OSM    O1410555   0.553   4.928  10.969 -0.5876 -0.4354  0.0568
  104OSM    O1110556   0.496   4.936  10.727 -0.2870  0.0793  0.0926
  104OSM    O1210557   0.330   4.844  10.873  0.6509 -0.1793 -0.0872
  104OSM    C1S10558   0.596   4.840  10.697 -0.2562 -0.3775  0.1933
  104OSM    H1S10559   0.555   4.738  10.714  0.0215 -0.6147 -0.5550
  104OSM    H1T10560   0.684   4.844  10.764  1.8375  0.8449 -2.4737
  104OSM     NF10561   0.723   4.724  10.522  0.6631  0.8012 -0.2327
  104OSM    HNF10562   0.819   4.733  10.496  0.2509 -0.0262 -2.2316
  104OSM    C2S10563   0.655   4.848  10.558  0.7866 -0.4053  0.5167
  104OSM    H2S10564   0.567   4.857  10.491  0.8663  0.2132  0.4887
  104OSM    C3S10565   0.745   4.974  10.548 -0.3751  0.1588 -0.2538
  104OSM    H3S10566   0.829   4.960  10.620 -0.4606 -0.0813 -0.2011
  104OSM     O310567   0.690   5.100  10.584 -0.5338 -0.0132 -0.3781
  104OSM    HO310568   0.604   5.079  10.620 -0.8303 -0.7931 -1.4845
  104OSM    C4S10569   0.792   4.993  10.406  0.5767 -1.0777 -0.1166
  104OSM    H4S10570   0.719   5.035  10.335  0.2250 -0.8385  0.3811
  104OSM    C5S10571   0.917   4.977  10.357  0.3760 -0.1810 -0.5165
  104OSM    H5S10572   0.990   4.920  10.415 -0.7370  0.0440  1.1651
  104OSM    C6S10573   0.952   5.003  10.219 -0.4452  0.3234 -0.6962
  104OSM    H6S10574   1.008   4.915  10.183 -1.8540 -0.6698 -0.5266
  104OSM    H6T10575   1.023   5.088  10.208  0.4248 -0.1399  1.0427
  104OSM    C7S10576   0.840   5.028  10.116 -0.3571 -0.4163 -0.4486
  104OSM    H7S10577   0.761   5.097  10.154 -0.2360 -0.4747 -0.0890
  104OSM    H7T10578   0.792   4.930  10.096  0.5030 -1.5183  2.4872
  104OSM    C8S10579   0.898   5.081   9.979 -0.3295 -0.4356  0.0511
  104OSM    H8S10580   0.998   5.037   9.961  0.0667  0.5420 -0.1763
  104OSM    H8T10581   0.919   5.189   9.991  3.6581 -0.9261 -0.9744
  104OSM    C9S10582   0.801   5.056   9.864 -0.0344 -0.5099  0.1173
  104OSM    H9S10583   0.704   5.111   9.873 -0.2054 -0.9612  1.2226
  104OSM    H9T10584   0.789   4.946   9.855  0.2865 -0.6395  1.1086
  104OSM   C10S10585   0.863   5.106   9.729  0.1087  0.2863  0.3296
  104OSM   H10S10586   0.963   5.062   9.706  0.4876  0.2665  1.9381
  104OSM   H10T10587   0.888   5.212   9.750  0.6410  0.6598 -1.9031
  104OSM   C11S10588   0.771   5.102   9.609  0.7261  0.7272 -0.3958
  104OSM   H11S10589   0.690   5.175   9.627  0.8743  0.4411  1.6400
  104OSM   H11T10590   0.727   5.000   9.613  0.6954  0.7767  1.2828
  104OSM   C12S10591   0.826   5.107   9.461  0.6046  0.4414  0.1401
  104OSM   H12S10592   0.753   5.112   9.377  0.1400 -0.9370  0.4333
  104OSM   H12T10593   0.889   5.016   9.455 -2.1980 -1.8071  1.9514
  104OSM   C13S10594   0.916   5.229   9.437  0.1654 -0.4321 -0.1321
  104OSM   H13S10595   0.991   5.217   9.519  1.6603 -4.2122 -1.8306
  104OSM   H13T10596   0.866   5.328   9.448  1.5075  0.1978  0.5437
  104OSM   C14S10597   0.984   5.232   9.299 -1.1846  0.2351 -0.4707
  104OSM   H14S10598   1.058   5.149   9.292  0.4553  1.6689 -0.8065
  104OSM   H14T10599   1.035   5.330   9.285 -1.0904  0.5266  1.5889
  104OSM   C15S10600   0.900   5.214   9.175  0.6728  0.3387  0.3765
  104OSM   H15S10601   0.815   5.286   9.178  0.7604  0.5035  3.8631
  104OSM   H15T10602   0.846   5.117   9.176  0.8963  0.1659 -1.6852
  104OSM   C16S10603   0.974   5.238   9.051 -0.4232  0.2272  0.3447
  104OSM   H16S10604   1.057   5.165   9.061 -1.0962 -0.7407 -0.9593
  104OSM   H16T10605   1.031   5.334   9.042 -1.0987  0.6788  0.7622
  104OSM   C17S10606   0.895   5.218   8.922  0.2550 -1.0108 -0.8148
  104OSM   H17S10607   0.819   5.137   8.926 -0.2802 -0.6203 -2.3982
  104OSM   H17T10608   0.969   5.179   8.849  0.8903 -0.7616 -0.3070
  104OSM   C18S10609   0.832   5.354   8.886  0.0771  0.3219  0.9515
  104OSM   H18S10610   0.764   5.334   8.800  0.9142 -2.0203  0.7740
  104OSM   H18T10611   0.916   5.417   8.850  1.6407 -2.1212  0.0711
  104OSM   H18U10612   0.779   5.407   8.969 -0.5343  0.5209  0.4469
  104OSM    C1F10613   0.662   4.606  10.506 -0.5131  0.2544 -0.1016
  104OSM     OF10614   0.541   4.594  10.516 -0.3631 -0.9967  0.1142
  104OSM    C2F10615   0.743   4.495  10.451 -0.0234 -0.2292  0.4940
  104OSM    H2F10616   0.674   4.413  10.419 -0.1624  0.4602 -1.0529
  104OSM    H2G10617   0.811   4.451  10.527  2.1802  0.5455 -0.9563
  104OSM    C3F10618   0.825   4.541  10.321  0.2927  0.8676 -0.5626
  104OSM    H3F10619   0.885   4.450  10.297 -0.0763 -0.4913  3.0117
  104OSM    H3G10620   0.889   4.624  10.358  0.9180 -0.7399  2.3230
  104OSM    C4F10621   0.742   4.581  10.204 -0.3415  0.9637  0.1275
  104OSM    H4F10622   0.675   4.666  10.229  0.5958  1.4097  1.2527
  104OSM    H4G10623   0.675   4.503  10.163  0.6795  1.2763 -2.2974
  104OSM    C5F10624   0.829   4.613  10.085 -0.4621  0.8287 -0.2192
  104OSM    H5F10625   0.899   4.527  10.081 -1.5512 -0.3445  3.0464
  104OSM    H5G10626   0.907   4.690  10.102  0.0291  0.2214  0.3488
  104OSM    C6F10627   0.757   4.620   9.948  0.6281  0.2044 -0.1440
  104OSM    H6F10628   0.682   4.702   9.947 -0.3812 -0.7122 -0.8567
  104OSM    H6G10629   0.689   4.532   9.939  0.2517  0.2846  1.5151
  104OSM    C7F10630   0.849   4.643   9.827 -0.4835  0.0327 -0.4485
  104OSM    H7F10631   0.917   4.557   9.811  1.8731  1.6418  0.4022
  104OSM    H7G10632   0.908   4.732   9.859 -0.5803 -0.4121  1.0285
  104OSM    C8F10633   0.775   4.672   9.699 -0.4675 -0.1355 -0.3474
  104OSM    H8F10634   0.842   4.730   9.633  0.8741 -0.7018  0.4854
  104OSM    H8G10635   0.690   4.740   9.723 -0.4661 -0.5085  0.7858
  104OSM    C9F10636   0.719   4.547   9.628  0.8016 -0.0404 -0.8651
  104OSM    H9F10637   0.624   4.509   9.669  0.8270 -1.5215 -2.1044
  104OSM   C10F10638   0.764   4.477   9.520  0.1123  1.0539 -0.0839
  104OSM   H10F10639   0.715   4.380   9.503 -0.3244  1.9176 -5.6257
  104OSM   C11F10640   0.890   4.493   9.441  0.5168  0.0107 -1.1040
  104OSM   H11F10641   0.975   4.464   9.508  1.1568  2.4728 -0.7683
  104OSM   H11G10642   0.905   4.601   9.420  0.4198 -0.4192 -3.6975
  104OSM   C12F10643   0.887   4.409   9.311 -1.1817 -0.6981  0.4311
  104OSM   H12F10644   0.835   4.312   9.329 -0.6714 -0.9944  0.3503
  104OSM   H12G10645   0.990   4.389   9.275 -1.0668 -0.5068  0.6496
  104OSM   C13F10646   0.826   4.476   9.192 -0.3608 -0.6862 -0.3493
  104OSM   H13F10647   0.877   4.575   9.184  1.7635 -1.6987 -0.1261
  104OSM   H13G10648   0.720   4.504   9.208  0.4784  3.3597 -0.7916
  104OSM   C14F10649   0.827   4.395   9.062 -0.4476 -0.9048 -0.2600
  104OSM   H14F10650   0.773   4.299   9.076 -0.4595 -1.1721 -1.9617
  104OSM   H14G10651   0.931   4.371   9.032  0.1109 -0.2009  0.9941
  104OSM   C15F10652   0.757   4.468   8.944  0.3092  0.2043  0.2023
  104OSM   H15F10653   0.646   4.472   8.947  0.2342  2.1334 -2.2511
  104OSM   H15G10654   0.781   4.402   8.857  3.3519  1.4946 -0.0569
  104OSM   C16F10655   0.807   4.608   8.910  0.3505 -0.3674  0.0432
  104OSM   H16F10656   0.904   4.596   8.857  1.6188  1.6707  1.7416
  104OSM   H16G10657   0.835   4.659   9.005  1.2308  0.3216 -0.5750
  104OSM   C17F10658   0.705   4.696   8.829 -0.1298  0.1902  0.2444
  104OSM   H17F10659   0.613   4.701   8.891 -0.9228  0.8775 -0.9618
  104OSM   H17G10660   0.698   4.652   8.728 -0.0681 -0.8498  0.6810
  104OSM   C18F10661   0.747   4.848   8.812  0.1280 -0.1380 -0.5966
  104OSM   H18F10662   0.702   4.888   8.719 -0.9151  0.1311  0.0081
  104OSM   H18G10663   0.857   4.850   8.801  0.2904 -3.5273 -0.8690
  104OSM   H18H10664   0.719   4.905   8.903  0.4673  3.1748 -2.4393
  105OSM      N10665   1.131   3.943  10.900  0.3862 -0.3390  0.1062
  105OSM    C1510666   1.205   3.856  10.992  0.1413  0.3328  0.5513
  105OSM   H15A10667   1.303   3.844  10.948  0.3884  1.2747  0.8190
  105OSM   H15B10668   1.155   3.763  11.014  2.5454 -1.1814 -0.1280
  105OSM   H15C10669   1.215   3.901  11.090 -3.1761 -0.7354  1.5380
  105OSM    C1410670   1.003   3.975  10.968 -0.8542  0.0546  0.1978
  105OSM   H14A10671   1.024   4.034  11.056 -1.6842 -1.3657  1.3981
  105OSM   H14B10672   0.953   3.889  11.012  2.4118  0.2605  5.1544
  105OSM   H14C10673   0.941   4.030  10.899 -0.1945 -0.1554 -0.5724
  105OSM    C1310674   1.202   4.076  10.876  0.6663 -0.0688 -0.0196
  105OSM   H13A10675   1.145   4.146  10.817  1.8786  0.7004 -0.3150
  105OSM   H13B10676   1.295   4.064  10.823 -1.2667  0.7684 -3.9726
  105OSM   H13C10677   1.227   4.127  10.968  1.5090  0.9092 -0.7711
  105OSM    C1210678   1.111   3.875  10.766  0.0895 -0.1880 -0.0317
  105OSM   H12A10679   1.046   3.790  10.777 -0.3342  0.2616  1.0745
  105OSM   H12B10680   1.207   3.842  10.730 -0.4435 -0.3066 -1.4448
  105OSM    C1110681   1.049   3.957  10.649 -0.6164 -0.4046 -0.2625
  105OSM   H11A10682   1.049   3.899  10.554 -2.2508  0.3766 -0.7884
  105OSM   H11B10683   1.119   4.039  10.626 -0.2909 -0.2864  1.0583
  105OSM      P10684   0.867   4.133  10.639  0.1158 -0.2326 -0.1275
  105OSM    O1310685   0.730   4.157  10.705  0.1269  0.4872  0.0958
  105OSM    O1410686   0.974   4.231  10.659 -0.8022 -0.4503  0.2873
  105OSM    O1110687   0.849   4.112  10.488 -0.2415  0.6126 -0.1118
  105OSM    O1210688   0.913   3.992  10.680  0.2903 -0.4500 -0.0821
  105OSM    C1S10689   0.762   4.005  10.445 -0.0028  0.0300  0.7168
  105OSM    H1S10690   0.665   3.999  10.499  0.6123 -0.1074  1.8242
  105OSM    H1T10691   0.818   3.911  10.467  0.8533  0.2572 -0.4025
  105OSM     NF10692   0.648   3.898  10.265  0.0904 -0.0728  0.4758
  105OSM    HNF10693   0.703   3.824  10.225 -1.0866 -1.8737  2.0098
  105OSM    C2S10694   0.737   4.009  10.291 -0.0722  0.7430  0.2265
  105OSM    H2S10695   0.675   4.101  10.281  1.1813  1.6498  0.5325
  105OSM    C3S10696   0.863   4.019  10.201 -1.0504  0.5051 -0.9326
  105OSM    H3S10697   0.910   3.920  10.182  0.3970  0.8661  0.5781
  105OSM     O310698   0.971   4.111  10.244 -0.2726 -0.0600  0.2512
  105OSM    HO310699   0.925   4.134  10.325 -2.3692  0.9880 -1.1562
  105OSM    C4S10700   0.820   4.055  10.054 -0.1365  0.4848 -0.3515
  105OSM    H4S10701   0.797   3.967   9.992 -0.3288  0.2007  0.1116
  105OSM    C5S10702   0.816   4.176   9.998  0.6505 -0.2557 -0.5399
  105OSM    H5S10703   0.831   4.267  10.058 -2.3250  0.7538 -1.1386
  105OSM    C6S10704   0.776   4.187   9.853 -0.4364 -0.4611  0.9804
  105OSM    H6S10705   0.866   4.178   9.790 -1.6566  0.8679 -1.0789
  105OSM    H6T10706   0.750   4.294   9.836 -0.5438 -0.6060  0.1920
  105OSM    C7S10707   0.659   4.095   9.797 -0.5310 -0.0556  0.2395
  105OSM    H7S10708   0.570   4.122   9.858  1.6585 -0.0005  3.6499
  105OSM    H7T10709   0.679   3.988   9.818 -1.6636 -0.3689 -0.2307
  105OSM    C8S10710   0.622   4.117   9.649 -0.8952  0.1575 -0.3258
  105OSM    H8S10711   0.718   4.104   9.596  0.6116  0.8612  2.0923
  105OSM    H8T10712   0.589   4.221   9.630  0.0324  0.3256 -1.0676
  105OSM    C9S10713   0.515   4.033   9.595 -0.3986  0.1083  0.1151
  105OSM    H9S10714   0.425   4.066   9.651  1.1233  2.1483  1.5308
  105OSM    H9T10715   0.548   3.932   9.627  0.0121  1.1122  3.1310
  105OSM   C10S10716   0.522   4.031   9.445  0.5204  0.4240  0.0165
  105OSM   H10S10717   0.468   3.937   9.424  1.7571 -0.7686  1.8751
  105OSM   H10T10718   0.626   4.035   9.406 -0.1407 -0.8160 -2.0117
  105OSM   C11S10719   0.449   4.139   9.371 -0.4691  0.5316  0.4750
  105OSM   H11S10720   0.510   4.232   9.380 -2.0981  2.5526 -4.8962
  105OSM   H11T10721   0.352   4.153   9.424 -2.0388 -0.5425 -1.8922
  105OSM   C12S10722   0.409   4.103   9.226 -0.5107 -0.4616  0.5712
  105OSM   H12S10723   0.334   4.175   9.187  0.5904  0.7179  0.5729
  105OSM   H12T10724   0.357   4.005   9.213 -0.9636 -0.2025  0.3764
  105OSM   C13S10725   0.525   4.092   9.127  0.0505  0.1925 -0.7283
  105OSM   H13S10726   0.593   4.013   9.168 -1.6162 -0.4933  0.8536
  105OSM   H13T10727   0.577   4.189   9.135  0.0299  0.1573 -0.0775
  105OSM   C14S10728   0.473   4.054   8.987  0.4595  0.5649  0.0262
  105OSM   H14S10729   0.417   4.141   8.946 -0.2941  0.9166  1.6866
  105OSM   H14T10730   0.411   3.965   9.011  0.3799  0.8257  0.8243
  105OSM   C15S10731   0.579   3.992   8.898 -0.3116  0.0577  0.7308
  105OSM   H15S10732   0.664   4.064   8.890  0.7766 -1.3620 -1.9977
  105OSM   H15T10733   0.537   3.979   8.796 -1.9015 -0.6638  1.4549
  105OSM   C16S10734   0.625   3.857   8.954  0.3557  0.1550  0.3782
  105OSM   H16S10735   0.562   3.823   9.038 -0.1702  0.0674 -0.0477
  105OSM   H16T10736   0.721   3.869   9.008 -0.8639  3.0769  2.1077
  105OSM   C17S10737   0.632   3.746   8.846 -0.5183 -0.4901  0.2994
  105OSM   H17S10738   0.710   3.763   8.769 -0.0396 -0.8514  0.6936
  105OSM   H17T10739   0.529   3.724   8.811 -0.4323  0.2417 -0.4593
  105OSM   C18S10740   0.665   3.608   8.915  0.6683 -0.2822  0.9796
  105OSM   H18S10741   0.587   3.569   8.984 -3.2243  0.2697 -2.7335
  105OSM   H18T10742   0.763   3.605   8.968  0.1998 -0.6188  1.8551
  105OSM   H18U10743   0.664   3.534   8.833 -3.8454 -0.8432  1.2925
  105OSM    C1F10744   0.517   3.884  10.308  0.1731 -0.2335  0.3953
  105OSM     OF10745   0.453   3.971  10.370 -0.2788  0.4094  0.3135
  105OSM    C2F10746   0.444   3.759  10.274 -0.0686  0.2639 -0.0268
  105OSM    H2F10747   0.431   3.704  10.371 -0.1685 -1.3026 -0.8912
  105OSM    H2G10748   0.504   3.693  10.208 -1.1226 -0.7369 -0.0236
  105OSM    C3F10749   0.318   3.791  10.192 -0.2046  0.2736 -0.0670
  105OSM    H3F10750   0.262   3.877  10.234 -0.3442 -0.7669  2.0006
  105OSM    H3G10751   0.241   3.711  10.199  0.1389 -0.0338  0.1871
  105OSM    C4F10752   0.352   3.822  10.050  0.2810 -0.2764 -1.1888
  105OSM    H4F10753   0.439   3.891  10.048 -0.4385  0.9774  2.6845
  105OSM    H4G10754   0.261   3.874  10.014 -0.9971 -2.0821 -0.7375
  105OSM    C5F10755   0.377   3.703   9.957  0.2233  0.4363 -0.0532
  105OSM    H5F10756   0.290   3.633   9.960 -1.3935  2.3951  1.8148
  105OSM    H5G10757   0.460   3.640   9.996  0.7472  0.8101 -0.5403
  105OSM    C6F10758   0.397   3.754   9.809  0.0093  0.0839  0.2003
  105OSM    H6F10759   0.474   3.834   9.815  2.5187 -2.2549  1.7228
  105OSM    H6G10760   0.299   3.782   9.765 -0.3545  0.1105  1.0160
  105OSM    C7F10761   0.451   3.641   9.717  0.7111  0.2917 -0.4752
  105OSM    H7F10762   0.550   3.609   9.757  0.2284 -1.9042 -0.9153
  105OSM    H7G10763   0.471   3.680   9.615  0.1394  0.4251 -0.5361
  105OSM    C8F10764   0.346   3.523   9.712  0.0470 -0.9005 -0.0628
  105OSM    H8F10765   0.251   3.566   9.675  0.4849  0.4211  0.2823
  105OSM    H8G10766   0.325   3.488   9.815  0.4299  2.2580  1.2050
  105OSM    C9F10767   0.401   3.408   9.636  0.1276  0.7006  0.2159
  105OSM    H9F10768   0.477   3.343   9.683  1.2248  1.1209 -0.9362
  105OSM   C10F10769   0.369   3.376   9.513 -0.5517  0.1339 -0.4913
  105OSM   H10F10770   0.409   3.284   9.468  0.0913  1.3138 -2.4578
  105OSM   C11F10771   0.271   3.438   9.423  0.6518 -0.6916  0.0292
  105OSM   H11F10772   0.225   3.527   9.473  1.1240  0.0085 -0.7730
  105OSM   H11G10773   0.199   3.355   9.406  0.8578 -0.7203 -0.7054
  105OSM   C12F10774   0.337   3.468   9.286 -0.3446  0.5521  1.1070
  105OSM   H12F10775   0.397   3.379   9.257  1.5399  1.9208  0.5694
  105OSM   H12G10776   0.414   3.549   9.284 -0.7412  0.9285  0.9032
  105OSM   C13F10777   0.229   3.485   9.174  0.4596 -0.5123  0.2573
  105OSM   H13F10778   0.149   3.555   9.203 -1.1890 -1.9482 -0.6291
  105OSM   H13G10779   0.182   3.388   9.145  0.6902 -0.0031 -2.0815
  105OSM   C14F10780   0.292   3.540   9.046  0.3550  0.5031 -0.7136
  105OSM   H14F10781   0.378   3.477   9.016 -0.0709  0.3737 -1.6928
  105OSM   H14G10782   0.333   3.642   9.062 -1.8435  1.2382  0.7600
  105OSM   C15F10783   0.192   3.543   8.929 -0.5036  0.0775 -0.6913
  105OSM   H15F10784   0.094   3.581   8.964  0.2542  3.1871 -1.6715
  105OSM   H15G10785   0.195   3.436   8.899  0.8239 -1.9212  5.1093
  105OSM   C16F10786   0.246   3.634   8.819  0.7597  0.2634  0.3305
  105OSM   H16F10787   0.344   3.595   8.784  0.7360  1.3309 -1.0177
  105OSM   H16G10788   0.265   3.739   8.848  2.6623  0.3966 -1.1850
  105OSM   C17F10789   0.147   3.637   8.695  0.5030 -0.1635  0.3045
  105OSM   H17F10790   0.122   3.539   8.650 -2.1015  0.8288 -0.5746
  105OSM   H17G10791   0.193   3.700   8.616 -1.8235 -0.6954 -1.5869
  105OSM   C18F10792   0.009   3.701   8.732 -0.7074  0.6119 -0.1148
  105OSM   H18F10793  -0.040   3.642   8.812  1.2493 -0.8735  0.0478
  105OSM   H18G10794  -0.062   3.682   8.649 -0.5824  0.9177 -0.2936
  105OSM   H18H10795   0.009   3.810   8.756  0.4749  0.4383  0.7677
  106OSM      N10796   2.762   1.411  10.994 -0.3777 -0.0146  0.0315
  106OSM    C1510797   2.726   1.411  11.142 -0.0900 -0.0906  0.2869
  106OSM   H15A10798   2.684   1.314  11.162  1.9555 -0.8457  1.3121
  106OSM   H15B10799   2.650   1.481  11.172  0.0662  1.1793 -2.0177
  106OSM   H15C10800   2.811   1.414  11.209 -0.0670 -2.0489  0.4160
  106OSM    C1410801   2.648   1.402  10.903  0.0426  0.1647 -0.4401
  106OSM   H14A10802   2.590   1.312  10.918 -2.2133  1.5753 -0.1004
  106OSM   H14B10803   2.677   1.396  10.799  2.1212  3.8614 -0.2448
  106OSM   H14C10804   2.572   1.479  10.897 -1.9751 -1.7613 -0.8233
  106OSM    C1310805   2.836   1.540  10.970  0.0476 -0.4595  0.0784
  106OSM   H13A10806   2.941   1.540  10.994  0.7544  2.4000 -2.3597
  106OSM   H13B10807   2.785   1.625  11.014  0.9335 -0.8886  2.0498
  106OSM   H13C10808   2.829   1.565  10.865  0.6913 -1.0918 -0.1183
  106OSM    C1210809   2.858   1.298  10.972  0.3777  1.1580  0.0405
  106OSM   H12A10810   2.815   1.208  11.013  3.2218  0.5249  1.8934
  106OSM   H12B10811   2.943   1.304  11.038  0.6949 -0.6096 -0.1546
  106OSM    C1110812   2.894   1.273  10.830 -0.0373  0.2612  0.1516
  106OSM   H11A10813   2.988   1.215  10.830  1.4173  2.4426 -1.6817
  106OSM   H11B10814   2.924   1.362  10.769  3.3536 -1.2912 -0.6663
  106OSM      P10815   2.800   1.061  10.706  0.1670  0.0033  0.1236
  106OSM    O1310816   2.908   0.984  10.780 -0.2125 -0.3917 -0.0660
  106OSM    O1410817   2.662   1.007  10.721  0.0722  0.2357  0.4888
  106OSM    O1110818   2.840   1.086  10.552 -0.0828  0.0916  0.7715
  106OSM    O1210819   2.789   1.209  10.758  0.3643  0.0831  0.2688
  106OSM    C1S10820   2.809   1.218  10.497  0.5814  0.0109 -0.0499
  106OSM    H1S10821   2.876   1.292  10.547  0.3553  0.1442  0.0565
  106OSM    H1T10822   2.706   1.254  10.519  0.4644  0.6235 -1.4779
  106OSM     NF10823   2.806   1.366  10.296  0.3622 -0.4288  0.3550
  106OSM    HNF10824   2.722   1.373  10.243  0.8957  0.4759 -0.4043
  106OSM    C2S10825   2.842   1.232  10.351 -0.6262 -0.4625 -0.1423
  106OSM    H2S10826   2.948   1.200  10.338 -0.4572 -0.8407  1.7697
  106OSM    C3S10827   2.768   1.125  10.264  0.0078 -0.8031  1.1019
  106OSM    H3S10828   2.659   1.140  10.273 -0.0469  0.4637 -1.0771
  106OSM     O310829   2.795   0.989  10.312 -0.8347  0.0041 -0.0944
  106OSM    HO310830   2.859   0.998  10.383 -1.7749 -0.5497  0.8446
  106OSM    C4S10831   2.805   1.129  10.112 -0.0224 -0.3474 -0.9810
  106OSM    H4S10832   2.753   1.209  10.058  2.8662  3.2477  1.0615
  106OSM    C5S10833   2.887   1.056  10.033  0.5631  0.0178 -0.0356
  106OSM    H5S10834   2.929   0.966  10.080 -1.1923 -0.9452 -0.2311
  106OSM    C6S10835   2.909   1.085   9.883  0.9620 -0.1099 -0.7129
  106OSM    H6S10836   2.859   1.183   9.866 -1.1797 -1.0144 -0.0525
  106OSM    H6T10837   2.866   0.998   9.829  0.0339 -0.8858  1.1597
  106OSM    C7S10838   3.058   1.112   9.834 -0.1966 -0.1037 -0.6446
  106OSM    H7S10839   3.123   1.022   9.841  1.2020  0.8688 -0.7755
  106OSM    H7T10840   3.090   1.193   9.902  0.9618 -2.0118  1.2175
  106OSM    C8S10841   3.051   1.151   9.685  0.1018  0.6980  0.2792
  106OSM    H8S10842   2.984   1.240   9.678  0.4554  1.0637  1.3664
  106OSM    H8T10843   3.024   1.060   9.627  1.8746 -1.3133  2.3990
  106OSM    C9S10844   3.189   1.193   9.626  0.2643  0.3633 -0.2976
  106OSM    H9S10845   3.225   1.280   9.685 -2.9140  0.1107  2.2706
  106OSM    H9T10846   3.169   1.231   9.523  1.3630 -2.0801 -1.4960
  106OSM   C10S10847   3.299   1.094   9.621 -0.4296  0.6064 -0.1334
  106OSM   H10S10848   3.253   1.006   9.572  0.3626  0.0286  0.1455
  106OSM   H10T10849   3.317   1.080   9.730 -0.7314  1.7357  0.0798
  106OSM   C11S10850   3.420   1.132   9.541 -0.2569 -0.0059 -0.0069
  106OSM   H11S10851   3.497   1.052   9.551 -0.3483 -0.0589  0.2999
  106OSM   H11T10852   3.462   1.227   9.580  1.4673 -0.1070 -1.4809
  106OSM   C12S10853   3.398   1.157   9.384 -0.1880  0.7254  0.1180
  106OSM   H12S10854   3.319   1.234   9.371  0.2428  0.8252 -2.6466
  106OSM   H12T10855   3.374   1.064   9.327 -0.8559  1.6057 -1.0711
  106OSM   C13S10856   3.525   1.216   9.324  0.1093  0.2332  0.7368
  106OSM   H13S10857   3.589   1.137   9.279 -0.2013 -0.8245  2.1013
  106OSM   H13T10858   3.589   1.262   9.402  2.5100 -2.4949  0.5607
  106OSM   C14S10859   3.490   1.313   9.207 -0.0582 -0.2906 -0.7637
  106OSM   H14S10860   3.444   1.403   9.253  1.6991 -1.0076  2.7145
  106OSM   H14T10861   3.401   1.270   9.156 -1.6917  1.1527  0.7406
  106OSM   C15S10862   3.613   1.351   9.128  0.0847  0.2354  0.0499
  106OSM   H15S10863   3.637   1.257   9.075 -1.2735 -2.1280  3.3144
  106OSM   H15T10864   3.700   1.370   9.195 -0.9645  1.9430  1.0136
  106OSM   C16S10865   3.606   1.469   9.029 -0.0692  0.4452  0.1177
  106OSM   H16S10866   3.693   1.459   8.961 -1.2961  0.2778 -1.4685
  106OSM   H16T10867   3.625   1.560   9.089 -2.7863  0.5873  0.9033
  106OSM   C17S10868   3.463   1.475   8.954  0.0717 -0.3885  0.0582
  106OSM   H17S10869   3.469   1.559   8.881  1.7921 -4.1967 -4.7265
  106OSM   H17T10870   3.376   1.502   9.019  0.7653  0.4889  0.6507
  106OSM   C18S10871   3.433   1.348   8.880 -0.0616  0.3436  1.2768
  106OSM   H18S10872   3.514   1.326   8.807  1.2104  2.1385  2.0524
  106OSM   H18T10873   3.333   1.359   8.832 -0.4849  0.0657  2.0836
  106OSM   H18U10874   3.442   1.258   8.945  0.8940 -0.7221 -0.2628
  106OSM    C1F10875   2.875   1.472  10.332 -1.4869  0.1898 -0.6225
  106OSM     OF10876   2.987   1.451  10.378 -0.4495 -0.0856  0.2087
  106OSM    C2F10877   2.829   1.608  10.289 -0.1575 -0.4914  0.0188
  106OSM    H2F10878   2.741   1.635  10.350 -0.1437 -0.1429 -0.1118
  106OSM    H2G10879   2.802   1.587  10.183 -1.2583  2.1260 -0.2791
  106OSM    C3F10880   2.937   1.718  10.306  0.7381  0.3584 -0.3299
  106OSM    H3F10881   3.024   1.684  10.245  1.6199  1.8661  0.0166
  106OSM    H3G10882   2.974   1.720  10.411 -1.0876  0.7639  0.3283
  106OSM    C4F10883   2.874   1.845  10.250 -0.0064 -0.5155 -0.7189
  106OSM    H4F10884   2.769   1.854  10.285  0.3977  0.5348  0.3228
  106OSM    H4G10885   2.848   1.840  10.142  2.0651  1.7630 -1.4312
  106OSM    C5F10886   2.934   1.975  10.301 -0.1529  0.3547  0.5062
  106OSM    H5F10887   3.043   1.976  10.279  0.1142 -2.3368  1.3631
  106OSM    H5G10888   2.926   1.964  10.411 -2.1769 -0.7204  0.3033
  106OSM    C6F10889   2.860   2.102  10.266 -0.1448  0.3000  0.1005
  106OSM    H6F10890   2.911   2.188  10.314  3.7899 -0.6431 -1.9989
  106OSM    H6G10891   2.755   2.096  10.304 -1.0119  0.4257 -2.0841
  106OSM    C7F10892   2.860   2.144  10.117 -0.1466  0.3306  0.1358
  106OSM    H7F10893   2.768   2.099  10.075  1.0188  0.5673 -2.9450
  106OSM    H7G10894   2.949   2.104  10.064  0.4957 -1.6215  2.5066
  106OSM    C8F10895   2.844   2.293  10.083  0.5928  0.5277 -0.2218
  106OSM    H8F10896   2.757   2.346  10.129 -0.2193  0.5584 -1.7218
  106OSM    H8G10897   2.819   2.294   9.975  0.1977 -0.5849 -0.1464
  106OSM    C9F10898   2.975   2.365  10.093  0.2526  0.3289  0.2062
  106OSM    H9F10899   3.011   2.390  10.194 -0.9389 -0.1764  0.7876
  106OSM   C10F10900   3.058   2.399   9.994 -0.1359 -0.3163  0.4354
  106OSM   H10F10901   3.152   2.450  10.022 -0.2746 -0.1479  0.5954
  106OSM   C11F10902   3.046   2.362   9.846 -0.2872 -0.3648 -0.9305
  106OSM   H11F10903   2.952   2.309   9.821 -1.1650 -0.1174  1.5755
  106OSM   H11G10904   3.127   2.287   9.837  0.2134  0.1560 -0.8197
  106OSM   C12F10905   3.062   2.489   9.763  0.3762 -0.3044  0.0236
  106OSM   H12F10906   3.147   2.551   9.797 -0.6071  1.1011 -0.0073
  106OSM   H12G10907   2.972   2.554   9.772  0.6564 -0.0878  1.5001
  106OSM   C13F10908   3.090   2.463   9.611  0.5248  1.0660 -0.1894
  106OSM   H13F10909   3.033   2.375   9.574 -3.1577  3.8858 -1.8133
  106OSM   H13G10910   3.198   2.439   9.600  0.3076  0.9717 -2.6644
  106OSM   C14F10911   3.064   2.580   9.521  0.2253 -0.8710  0.2720
  106OSM   H14F10912   3.137   2.651   9.565  1.0645 -1.3264 -0.3638
  106OSM   H14G10913   2.959   2.613   9.534  0.4283 -0.3505  0.6480
  106OSM   C15F10914   3.084   2.556   9.375 -0.4484  0.0943 -0.4204
  106OSM   H15F10915   3.010   2.482   9.339 -0.1432 -0.0854 -0.6860
  106OSM   H15G10916   3.184   2.513   9.352  0.9108  2.1102  1.3739
  106OSM   C16F10917   3.057   2.694   9.306 -0.0305  0.7607 -0.0212
  106OSM   H16F10918   3.124   2.768   9.355 -1.3056  2.2192 -0.3931
  106OSM   H16G10919   2.954   2.725   9.334  0.5818  0.0327  3.6369
  106OSM   C17F10920   3.081   2.690   9.155 -0.6484 -0.3949 -0.4694
  106OSM   H17F10921   3.184   2.650   9.144 -0.4369 -0.1725  0.6422
  106OSM   H17G10922   3.084   2.794   9.115  0.4364  0.8957  2.6270
  106OSM   C18F10923   2.977   2.611   9.081 -0.0563  0.1797 -0.4765
  106OSM   H18F10924   2.877   2.645   9.116 -0.7701 -1.4221 -0.8369
  106OSM   H18G10925   2.994   2.503   9.104 -2.1494 -0.6027 -2.1917
  106OSM   H18H10926   2.992   2.629   8.972  1.4039 -2.5829 -0.8269
  107OSM      N10927   5.774   0.234  10.551 -0.1968  0.1183  0.3719
  107OSM    C1510928   5.847   0.106  10.589  0.7319 -0.0359  0.3628
  107OSM   H15A10929   5.945   0.121  10.633  1.0728  1.1958 -0.7386
  107OSM   H15B10930   5.863   0.037  10.508 -0.2515  0.7824 -0.5556
  107OSM   H15C10931   5.781   0.044  10.648  0.7484 -2.2599 -1.8094
  107OSM    C1410932   5.729   0.305  10.675  0.5685 -0.1551 -0.3936
  107OSM   H14A10933   5.812   0.335  10.738 -0.1698  0.6964  0.1847
  107OSM   H14B10934   5.660   0.242  10.729  2.0700 -2.5137 -1.0545
  107OSM   H14C10935   5.666   0.389  10.654 -0.1501 -0.5391  0.1830
  107OSM    C1310936   5.875   0.324  10.481 -0.2127  0.0057  0.6425
  107OSM   H13A10937   5.965   0.345  10.537 -1.2242  1.7663  1.7287
  107OSM   H13B10938   5.827   0.420  10.472  2.6973  1.3645 -2.3300
  107OSM   H13C10939   5.885   0.295  10.378 -3.3992 -0.6014  0.3829
  107OSM    C1210940   5.653   0.205  10.464 -0.3382  0.4409 -0.0875
  107OSM   H12A10941   5.680   0.167  10.366  0.6117 -0.0549  0.3531
  107OSM   H12B10942   5.607   0.299  10.441  0.7916  1.0821  0.2086
  107OSM    C1110943   5.546   0.111  10.532 -0.0357  0.1384  0.3355
  107OSM   H11A10944   5.598   0.013  10.545 -1.8747 -0.9364 -0.0080
  107OSM   H11B10945   5.468   0.106  10.453  1.3809  2.9445 -1.3998
  107OSM      P10946   5.378   0.105  10.729  0.1532  0.4176 -0.0274
  107OSM    O1310947   5.415  -0.034  10.770 -0.2943  0.0974  0.1929
  107OSM    O1410948   5.314   0.201  10.816  0.2236  0.8664 -0.1492
  107OSM    O1110949   5.273   0.084  10.617 -0.7630 -0.1625  0.3715
  107OSM    O1210950   5.499   0.176  10.650 -0.1303  0.3328  0.6058
  107OSM    C1S10951   5.242   0.184  10.515  0.4331  0.3505  0.0372
  107OSM    H1S10952   5.329   0.252  10.500  0.9081  0.2154  1.8913
  107OSM    H1T10953   5.175   0.260  10.561  0.2041  1.8942 -2.6449
  107OSM     NF10954   5.143   0.212  10.287 -0.3233 -0.2266 -0.2667
  107OSM    HNF10955   5.050   0.248  10.282 -1.0034 -1.7940  0.4496
  107OSM    C2S10956   5.176   0.114  10.389 -0.3922  0.3381 -0.1104
  107OSM    H2S10957   5.252   0.048  10.342 -1.6269 -2.8074  2.0620
  107OSM    C3S10958   5.061   0.006  10.431 -0.2002 -0.2302  0.6119
  107OSM    H3S10959   4.990   0.067  10.491  0.5195 -0.7284  2.0132
  107OSM     O310960   5.112  -0.093  10.525  0.3247 -0.5806  0.6023
  107OSM    HO310961   5.198  -0.064  10.555  0.2016 -0.6565  1.0323
  107OSM    C4S10962   5.006  -0.061  10.309  0.2679  0.4233 -0.1036
  107OSM    H4S10963   4.902  -0.026  10.293 -0.1266 -0.9387 -0.7114
  107OSM    C5S10964   5.069  -0.155  10.236  0.0806 -0.3515  0.0680
  107OSM    H5S10965   5.166  -0.198  10.265 -0.2450  0.0606  1.8719
  107OSM    C6S10966   5.005  -0.226  10.119  0.1818  0.8333  0.4441
  107OSM    H6S10967   4.938  -0.298  10.170  0.9096  1.6879  2.7070
  107OSM    H6T10968   5.081  -0.263  10.046  2.2675  2.6765  1.5551
  107OSM    C7S10969   4.908  -0.135  10.036 -0.3411  0.7900 -0.1160
  107OSM    H7S10970   4.828  -0.099  10.104 -1.0968 -0.3365 -0.3754
  107OSM    H7T10971   4.868  -0.205   9.959 -1.6535 -0.2566  1.4565
  107OSM    C8S10972   4.980  -0.028   9.955 -0.7046  0.3541  0.3206
  107OSM    H8S10973   5.065   0.006  10.018 -1.3039  0.5983  1.0259
  107OSM    H8T10974   4.921   0.063   9.928 -0.6886  0.5080  0.7817
  107OSM    C9S10975   5.025  -0.076   9.815  0.0839 -0.4515 -0.4244
  107OSM    H9S10976   5.070  -0.177   9.823 -0.2577 -0.5760  0.0058
  107OSM    H9T10977   5.110  -0.009   9.790 -0.1532  1.3742  2.9837
  107OSM   C10S10978   4.916  -0.089   9.705  0.1036  0.6567 -0.3372
  107OSM   H10S10979   4.853   0.003   9.706 -2.1994 -0.8388  0.1648
  107OSM   H10T10980   4.847  -0.173   9.730  1.4607 -1.0719 -2.1620
  107OSM   C11S10981   4.977  -0.112   9.564 -0.3910 -0.5504 -0.4369
  107OSM   H11S10982   5.033  -0.208   9.570 -0.5782 -0.7307 -1.4248
  107OSM   H11T10983   5.041  -0.025   9.536 -0.0265 -0.7867 -0.3497
  107OSM   C12S10984   4.865  -0.133   9.462 -0.8489  0.0333  0.6541
  107OSM   H12S10985   4.808  -0.038   9.462 -0.8518  0.0317  0.5488
  107OSM   H12T10986   4.797  -0.215   9.490 -0.5460 -0.4488  0.0009
  107OSM   C13S10987   4.931  -0.169   9.323  0.4450  0.2321 -0.2277
  107OSM   H13S10988   4.926  -0.280   9.319 -1.9199  0.2547  0.6146
  107OSM   H13T10989   5.040  -0.151   9.308  0.0552  0.5061 -3.2246
  107OSM   C14S10990   4.864  -0.101   9.202  0.2011 -0.1102 -0.3974
  107OSM   H14S10991   4.882   0.009   9.195  2.1489 -0.2031  1.9037
  107OSM   H14T10992   4.756  -0.112   9.226  0.5821 -0.0286  1.4629
  107OSM   C15S10993   4.886  -0.175   9.067  0.1502 -0.3349 -0.7819
  107OSM   H15S10994   4.916  -0.282   9.079  1.5650  0.0852 -0.3022
  107OSM   H15T10995   4.973  -0.125   9.018 -1.5626  1.2453 -2.3442
  107OSM   C16S10996   4.769  -0.156   8.966  0.7029  0.5159 -0.0114
  107OSM   H16S10997   4.715  -0.059   8.976  2.8891  1.9325 -0.9407
  107OSM   H16T10998   4.691  -0.227   9.000 -0.1886  1.4203 -0.1151
  107OSM   C17S10999   4.809  -0.180   8.820  0.5295  0.2599  0.0542
  107OSM   H17S11000   4.865  -0.275   8.801 -0.1151 -0.2611  0.7218
  107OSM   H17T11001   4.877  -0.095   8.799  2.0162 -1.2437 -1.5699
  107OSM   C18S11002   4.682  -0.160   8.728  0.6310  0.6636 -0.6919
  107OSM   H18S11003   4.712  -0.163   8.621  0.1361  0.8155 -0.8329
  107OSM   H18T11004   4.633  -0.061   8.734  0.8558  0.9190 -2.3774
  107OSM   H18U11005   4.607  -0.239   8.747  2.0685 -0.6185 -0.1074
  107OSM    C1F11006   5.239   0.273  10.226  0.7537 -0.0461 -0.4179
  107OSM     OF11007   5.353   0.227  10.232 -0.5150  0.1625  0.0434
  107OSM    C2F11008   5.216   0.400  10.143 -0.7760 -0.5284 -0.0373
  107OSM    H2F11009   5.316   0.448  10.131 -1.0327  0.7934  2.3260
  107OSM    H2G11010   5.152   0.470  10.202 -0.9121  0.1759 -1.0066
  107OSM    C3F11011   5.143   0.387  10.001 -0.5954 -0.0264  0.1455
  107OSM    H3F11012   5.110   0.490   9.974 -0.4009  0.4556  1.6420
  107OSM    H3G11013   5.054   0.325  10.025 -0.3553  0.2054  1.7638
  107OSM    C4F11014   5.229   0.343   9.878 -0.0225  0.3623  0.0187
  107OSM    H4F11015   5.290   0.252   9.892 -0.5304 -0.0063 -0.1499
  107OSM    H4G11016   5.287   0.436   9.859 -0.2703  0.8875  1.6397
  107OSM    C5F11017   5.133   0.323   9.763 -0.2072 -0.0547  0.9406
  107OSM    H5F11018   5.090   0.422   9.733  0.3376  0.0364  0.4597
  107OSM    H5G11019   5.051   0.249   9.778 -1.9452  0.8403 -2.9011
  107OSM    C6F11020   5.203   0.262   9.629  0.5573 -0.0018  0.2371
  107OSM    H6F11021   5.255   0.170   9.663 -1.5017 -0.9707  0.9119
  107OSM    H6G11022   5.288   0.330   9.607 -0.0038 -0.1221 -2.7049
  107OSM    C7F11023   5.115   0.259   9.504  0.1287  0.2403  0.1298
  107OSM    H7F11024   5.079   0.360   9.475 -2.9377 -0.8859 -0.2805
  107OSM    H7G11025   5.033   0.189   9.531 -0.5590  0.7941 -0.4913
  107OSM    C8F11026   5.206   0.210   9.383  0.8153  0.9716 -0.3698
  107OSM    H8F11027   5.257   0.119   9.423 -1.1024  0.0806  0.1730
  107OSM    H8G11028   5.286   0.284   9.361 -0.8050  2.7901 -0.3281
  107OSM    C9F11029   5.126   0.182   9.265  0.1521 -0.2530 -0.2525
  107OSM    H9F11030   5.036   0.119   9.281  1.2258 -1.4268  1.4731
  107OSM   C10F11031   5.131   0.228   9.141  0.4441 -0.4159  0.5369
  107OSM   H10F11032   5.050   0.213   9.069 -1.1235  3.2024  1.2986
  107OSM   C11F11033   5.239   0.315   9.075  0.0738 -0.3042 -0.4615
  107OSM   H11F11034   5.310   0.355   9.150 -2.1768  1.6237  0.7734
  107OSM   H11G11035   5.195   0.412   9.044 -0.6376 -0.4469  0.0853
  107OSM   C12F11036   5.310   0.251   8.961  0.3672  0.2441  0.3111
  107OSM   H12F11037   5.366   0.160   8.993  1.0250 -0.6096 -2.8759
  107OSM   H12G11038   5.400   0.306   8.924  1.2182 -1.5199 -0.3813
  107OSM   C13F11039   5.225   0.209   8.841  0.3706  0.4229  0.8116
  107OSM   H13F11040   5.180   0.300   8.795 -0.0673 -0.2443 -0.1008
  107OSM   H13G11041   5.145   0.147   8.886  1.5260 -0.3548  1.8624
  107OSM   C14F11042   5.301   0.135   8.726  0.0948 -0.3022 -0.2481
  107OSM   H14F11043   5.308   0.025   8.743  3.1168 -0.0275  0.8532
  107OSM   H14G11044   5.402   0.175   8.706 -0.6309  3.6729  2.9279
  107OSM   C15F11045   5.215   0.146   8.593  0.3196 -0.9643 -0.4882
  107OSM   H15F11046   5.121   0.088   8.603 -0.2472 -0.3402 -2.0510
  107OSM   H15G11047   5.269   0.087   8.515  0.5843  1.1483 -1.9723
  107OSM   C16F11048   5.207   0.289   8.527 -0.9065  0.2528 -0.0464
  107OSM   H16F11049   5.129   0.347   8.580 -1.4794 -0.2167 -0.3575
  107OSM   H16G11050   5.169   0.273   8.423 -1.8109  0.8681  0.1732
  107OSM   C17F11051   5.336   0.364   8.513  0.2983  0.6310 -0.5512
  107OSM   H17F11052   5.404   0.321   8.437 -1.0712 -0.7487 -1.0423
  107OSM   H17G11053   5.381   0.392   8.611  2.0102 -1.4869 -0.6779
  107OSM   C18F11054   5.311   0.507   8.453  0.0104  0.3561  0.6549
  107OSM   H18F11055   5.235   0.557   8.517  0.2828  1.2584  0.2949
  107OSM   H18G11056   5.275   0.508   8.348 -0.2940 -0.3529  0.7488
  107OSM   H18H11057   5.397   0.578   8.452 -0.0232  0.5145  3.2746
  108OSM      N11058   0.394   3.675  10.721 -0.1752  0.6641  0.0147
  108OSM    C1511059   0.478   3.778  10.665  0.2106 -0.2974  0.2020
  108OSM   H15A11060   0.477   3.870  10.721 -0.3103 -0.9450  1.2947
  108OSM   H15B11061   0.439   3.808  10.568  1.5286 -2.2707 -1.0246
  108OSM   H15C11062   0.579   3.748  10.640 -0.7682 -1.9495 -2.2677
  108OSM    C1411063   0.454   3.540  10.698 -0.5627  0.8325 -0.8610
  108OSM   H14A11064   0.495   3.524  10.599  1.8141 -0.7964  0.2675
  108OSM   H14B11065   0.385   3.460  10.719  0.9661 -0.4112 -0.3412
  108OSM   H14C11066   0.537   3.525  10.766 -0.8301  0.7127 -0.5607
  108OSM    C1311067   0.383   3.694  10.873  0.5873  0.3058 -0.0497
  108OSM   H13A11068   0.480   3.686  10.920  0.4063  0.2486  0.3168
  108OSM   H13B11069   0.315   3.620  10.912  2.3942 -0.4643  1.8225
  108OSM   H13C11070   0.352   3.794  10.899  0.7867  0.4172 -0.2297
  108OSM    C1211071   0.252   3.692  10.660 -0.5699 -0.8918  0.3324
  108OSM   H12A11072   0.258   3.669  10.555  0.9461  2.6112 -0.4846
  108OSM   H12B11073   0.223   3.796  10.670 -0.7001 -1.0923  2.8436
  108OSM    C1111074   0.136   3.600  10.714  0.3975  0.0679 -0.4042
  108OSM   H11A11075   0.041   3.625  10.663 -0.9882 -1.4317  1.2855
  108OSM   H11B11076   0.116   3.627  10.820 -0.7757 -0.4712 -0.4719
  108OSM      P11077   0.133   3.349  10.800 -0.0179 -0.4721 -0.0929
  108OSM    O1311078   0.262   3.276  10.817 -0.1455 -0.4820  0.0668
  108OSM    O1411079   0.070   3.409  10.923 -0.6278  0.2425  0.2958
  108OSM    O1111080   0.023   3.251  10.732  0.5393  0.1627 -0.3474
  108OSM    O1211081   0.163   3.465  10.701 -0.0154 -0.7188 -0.0752
  108OSM    C1S11082  -0.082   3.292  10.647  0.8802  0.9969  0.2405
  108OSM    H1S11083  -0.091   3.401  10.632 -0.1706  1.0699  1.2275
  108OSM    H1T11084  -0.178   3.266  10.696 -0.1406  1.8650 -1.2129
  108OSM     NF11085  -0.198   3.281  10.431 -0.3221 -0.9957 -0.0830
  108OSM    HNF11086  -0.290   3.258  10.460 -0.9909  0.9906 -0.4541
  108OSM    C2S11087  -0.093   3.220  10.507  0.1809  0.0233 -0.1880
  108OSM    H2S11088   0.004   3.229  10.453 -0.9294  2.6772 -1.9970
  108OSM    C3S11089  -0.123   3.068  10.520  0.2488 -0.8011 -0.9396
  108OSM    H3S11090  -0.217   3.062  10.580  0.6671 -0.9783 -0.2888
  108OSM     O311091  -0.025   2.995  10.603 -0.2772 -0.0764  0.3285
  108OSM    HO311092   0.018   3.067  10.649 -0.2330  0.8422 -1.0842
  108OSM    C4S11093  -0.140   2.997  10.387  0.9726 -0.1336 -0.2506
  108OSM    H4S11094  -0.053   3.012  10.321 -1.0849  0.4066 -2.9893
  108OSM    C5S11095  -0.243   2.925  10.346  0.3619  0.0490 -0.0161
  108OSM    H5S11096  -0.329   2.908  10.412 -0.1427 -1.4338 -1.0146
  108OSM    C6S11097  -0.244   2.858  10.214  0.4875  0.3253  0.1584
  108OSM    H6S11098  -0.346   2.864  10.172  0.9074  1.1002 -0.7762
  108OSM    H6T11099  -0.231   2.750  10.234  0.5316  0.3350  0.1831
  108OSM    C7S11100  -0.141   2.896  10.102 -0.0103 -0.4940  0.2890
  108OSM    H7S11101  -0.040   2.882  10.146 -0.2549  0.3915  1.1529
  108OSM    H7T11102  -0.156   3.000  10.065  0.9089 -0.6645 -0.6209
  108OSM    C8S11103  -0.164   2.804   9.977  0.0412  0.1633 -0.0350
  108OSM    H8S11104  -0.272   2.802   9.952  0.1860 -0.4806 -0.6293
  108OSM    H8T11105  -0.141   2.696   9.986 -1.8815 -0.3414 -0.6145
  108OSM    C9S11106  -0.091   2.857   9.851 -0.2903 -0.7986  0.3560
  108OSM    H9S11107   0.016   2.862   9.880 -0.1893  2.5835 -0.1957
  108OSM    H9T11108  -0.112   2.964   9.829 -0.9389 -0.7718  1.0801
  108OSM   C10S11109  -0.093   2.767   9.728 -0.3004 -0.6772  0.2440
  108OSM   H10S11110  -0.056   2.664   9.751 -0.7552 -1.4837 -2.3742
  108OSM   H10T11111  -0.028   2.811   9.649 -1.8954  0.8662 -0.2598
  108OSM   C11S11112  -0.235   2.751   9.669  0.0614 -0.0764 -0.6136
  108OSM   H11S11113  -0.280   2.845   9.631 -1.5279 -1.3708 -2.0988
  108OSM   H11T11114  -0.303   2.703   9.742  1.6956  0.5712  1.4241
  108OSM   C12S11115  -0.225   2.651   9.559  0.0057 -0.3558 -0.6432
  108OSM   H12S11116  -0.327   2.609   9.547 -0.0048 -0.8349  0.8485
  108OSM   H12T11117  -0.164   2.568   9.600  1.6007  1.3536  0.6412
  108OSM   C13S11118  -0.165   2.692   9.426 -0.2942 -0.5005 -0.4679
  108OSM   H13S11119  -0.055   2.705   9.438 -0.5132  3.2350 -1.0867
  108OSM   H13T11120  -0.205   2.790   9.393  1.2928  0.9998  1.7632
  108OSM   C14S11121  -0.185   2.580   9.324 -0.6880 -0.4909  0.7704
  108OSM   H14S11122  -0.291   2.558   9.300 -0.2160 -1.0670 -0.9285
  108OSM   H14T11123  -0.142   2.487   9.368 -1.3992 -0.7763  0.8731
  108OSM   C15S11124  -0.133   2.608   9.184 -0.3079  0.4108  0.0215
  108OSM   H15S11125  -0.024   2.625   9.195 -0.2652  0.4007 -0.3693
  108OSM   H15T11126  -0.187   2.697   9.146 -3.2357 -1.0736  0.4284
  108OSM   C16S11127  -0.140   2.495   9.083  0.4253 -0.6011 -0.3166
  108OSM   H16S11128  -0.245   2.510   9.051  0.8795  2.9761 -0.5100
  108OSM   H16T11129  -0.116   2.403   9.141  0.4400  0.0550  0.7465
  108OSM   C17S11130  -0.033   2.514   8.976  0.3767 -0.0523 -0.5775
  108OSM   H17S11131   0.066   2.508   9.026  0.2256  0.6009 -0.1898
  108OSM   H17T11132  -0.043   2.621   8.947 -1.0714  0.4332  1.5054
  108OSM   C18S11133  -0.040   2.407   8.868  0.0239  0.0306 -0.0949
  108OSM   H18S11134   0.016   2.318   8.906  2.3780  1.3983 -0.1841
  108OSM   H18T11135   0.013   2.435   8.775 -0.8313 -0.4773 -0.7555
  108OSM   H18U11136  -0.146   2.378   8.849  0.1318  0.2137 -0.9746
  108OSM    C1F11137  -0.185   3.386  10.350 -0.1739  0.4125  0.1591
  108OSM     OF11138  -0.079   3.441  10.324 -0.0910 -0.2130  0.3624
  108OSM    C2F11139  -0.315   3.444  10.309 -0.1811 -0.2423  0.5042
  108OSM    H2F11140  -0.317   3.554  10.329  0.1089 -0.5478  2.4949
  108OSM    H2G11141  -0.398   3.398  10.367  0.8663 -3.9829 -0.7057
  108OSM    C3F11142  -0.344   3.424  10.164 -0.2632 -0.0088  0.4818
  108OSM    H3F11143  -0.430   3.490  10.140 -0.1264  0.3926  1.0792
  108OSM    H3G11144  -0.377   3.319  10.150 -0.5328  0.0712  0.5121
  108OSM    C4F11145  -0.236   3.441  10.060 -0.3688  0.2219  0.3829
  108OSM    H4F11146  -0.138   3.400  10.093 -0.0317 -0.7709 -1.7030
  108OSM    H4G11147  -0.226   3.549  10.039 -1.5310  0.5721  1.5214
  108OSM    C5F11148  -0.259   3.354   9.937 -0.0333  0.8949  0.3278
  108OSM    H5F11149  -0.359   3.381   9.897 -0.5646 -0.0534  0.9706
  108OSM    H5G11150  -0.260   3.246   9.964 -0.1253  0.6752 -0.5241
  108OSM    C6F11151  -0.159   3.358   9.818  0.2101  0.2327 -0.1650
  108OSM    H6F11152  -0.064   3.327   9.866 -0.3564 -1.1137  0.1262
  108OSM    H6G11153  -0.151   3.464   9.786 -1.3310  1.0971  2.0822
  108OSM    C7F11154  -0.187   3.260   9.698  0.5763 -0.1798 -0.4899
  108OSM    H7F11155  -0.277   3.302   9.649  0.8835 -0.0566 -0.9508
  108OSM    H7G11156  -0.211   3.155   9.727  1.4522 -0.0956  0.6302
  108OSM    C8F11157  -0.069   3.276   9.600 -0.4481  0.3169  0.2340
  108OSM    H8F11158  -0.054   3.211   9.511 -1.5360  2.5390 -1.6810
  108OSM    H8G11159   0.021   3.270   9.666 -0.3108 -0.0577  0.0131
  108OSM    C9F11160  -0.072   3.420   9.551  0.2806  0.3324 -0.4123
  108OSM    H9F11161  -0.023   3.489   9.621  2.7882 -1.0462 -0.6592
  108OSM   C10F11162  -0.129   3.471   9.433 -0.4774 -0.0368 -0.2727
  108OSM   H10F11163  -0.115   3.575   9.403  3.1464 -0.1900  0.4932
  108OSM   C11F11164  -0.193   3.377   9.335 -0.4944  0.4767  0.3421
  108OSM   H11F11165  -0.288   3.418   9.295 -1.4401 -2.5360 -0.7842
  108OSM   H11G11166  -0.214   3.277   9.378 -1.7201  1.0372  1.0712
  108OSM   C12F11167  -0.107   3.347   9.208  0.6223  0.0586 -0.3766
  108OSM   H12F11168  -0.015   3.286   9.216 -0.5167 -1.6472  0.2410
  108OSM   H12G11169  -0.078   3.444   9.163  1.2244 -0.8739 -2.1367
  108OSM   C13F11170  -0.196   3.279   9.099  0.0771  0.2297 -0.1666
  108OSM   H13F11171  -0.299   3.315   9.117  0.3659  0.5789  0.8350
  108OSM   H13G11172  -0.190   3.168   9.109 -0.9442  0.1880  0.1240
  108OSM   C14F11173  -0.152   3.295   8.953  0.1514 -0.1186  0.2629
  108OSM   H14F11174  -0.044   3.273   8.944  0.3315  0.9669 -0.4374
  108OSM   H14G11175  -0.158   3.404   8.933 -2.1962  0.3720  2.8476
  108OSM   C15F11176  -0.223   3.197   8.852  0.2589  0.2237  0.4729
  108OSM   H15F11177  -0.325   3.240   8.840  0.1205 -0.4197 -0.7566
  108OSM   H15G11178  -0.221   3.094   8.894 -0.5414 -0.2357 -0.5908
  108OSM   C16F11179  -0.159   3.211   8.710  0.2021 -0.3738 -0.6315
  108OSM   H16F11180  -0.060   3.164   8.729  0.1487 -0.2839 -0.0972
  108OSM   H16G11181  -0.147   3.316   8.676  2.5305 -0.2444  0.3633
  108OSM   C17F11182  -0.215   3.124   8.602 -0.2606 -0.2302 -0.0831
  108OSM   H17F11183  -0.320   3.159   8.596  0.0654  1.2832  1.9094
  108OSM   H17G11184  -0.208   3.018   8.634 -0.7061 -0.1481  0.2953
  108OSM   C18F11185  -0.138   3.140   8.468  0.2506  0.3544 -0.2776
  108OSM   H18F11186  -0.155   3.062   8.390  0.4876  0.4620 -0.4380
  108OSM   H18G11187  -0.033   3.174   8.474 -0.1182  1.6358 -0.6890
  108OSM   H18H11188  -0.193   3.227   8.426 -1.8034  0.2915  2.0688
  109OSM      N11189   1.866   4.145  10.861  0.3554 -0.1644 -0.3309
  109OSM    C1511190   1.874   4.256  10.954 -0.7428  0.7639 -0.2336
  109OSM   H15A11191   1.874   4.354  10.909 -1.1113 -0.6340 -3.5031
  109OSM   H15B11192   1.957   4.245  11.022  0.1674  3.2836 -0.8098
  109OSM   H15C11193   1.784   4.249  11.014  1.5299 -1.4408  3.2503
  109OSM    C1411194   2.004   4.136  10.798  0.2315 -0.3751 -0.2384
  109OSM   H14A11195   2.087   4.141  10.866  1.1132  1.6087 -1.3597
  109OSM   H14B11196   2.014   4.209  10.718 -0.5474 -0.4295 -0.3974
  109OSM   H14C11197   2.014   4.040  10.750 -0.1317 -1.3395  1.5676
  109OSM    C1311198   1.857   4.012  10.933 -0.2546 -0.2499  0.2288
  109OSM   H13A11199   1.935   4.000  11.007  0.2190  0.3864 -0.1637
  109OSM   H13B11200   1.874   3.934  10.860  0.5054 -1.5369  1.6975
  109OSM   H13C11201   1.763   3.996  10.984 -0.4012  2.7385  1.0748
  109OSM    C1211202   1.756   4.172  10.758 -0.1699  0.3298  0.3683
  109OSM   H12A11203   1.761   4.276  10.732 -2.1106  1.5278  3.9991
  109OSM   H12B11204   1.659   4.158  10.804 -0.7028  0.7777 -0.6086
  109OSM    C1111205   1.765   4.079  10.627  0.3173 -0.5163  0.6349
  109OSM   H11A11206   1.868   4.089  10.585 -0.7117  2.0226 -1.5967
  109OSM   H11B11207   1.692   4.118  10.553  0.3896 -2.0896 -0.2958
  109OSM      P11208   1.570   3.912  10.686 -0.2179  1.1136  0.2481
  109OSM    O1311209   1.559   3.770  10.722 -0.2842 -0.2264 -0.1832
  109OSM    O1411210   1.515   4.014  10.781 -0.5632  1.0178 -0.1902
  109OSM    O1111211   1.518   3.937  10.536  0.6601 -0.2584  0.1146
  109OSM    O1211212   1.726   3.944  10.669 -1.1657  0.2223  0.9509
  109OSM    C1S11213   1.413   4.034  10.518 -0.2270  0.0034 -0.1428
  109OSM    H1S11214   1.454   4.136  10.532 -0.2230 -0.1340  0.8898
  109OSM    H1T11215   1.323   4.026  10.582 -0.4956  0.8093 -0.4146
  109OSM     NF11216   1.252   4.139  10.350  0.7281  0.9747 -0.7845
  109OSM    HNF11217   1.161   4.114  10.318  0.5174 -1.1713  1.1874
  109OSM    C2S11218   1.350   4.032  10.370  0.0957  0.8719 -0.5264
  109OSM    H2S11219   1.436   4.044  10.301 -0.0739  0.8974 -0.7372
  109OSM    C3S11220   1.302   3.887  10.347  0.1384  0.0592  0.5801
  109OSM    H3S11221   1.215   3.872  10.413 -2.9365 -0.9423 -3.3079
  109OSM     O311222   1.395   3.777  10.355 -0.0477 -1.0096  0.3570
  109OSM    HO311223   1.460   3.815  10.415  0.0297  0.3775 -0.5400
  109OSM    C4S11224   1.243   3.876  10.206  0.3361 -1.0331 -0.0095
  109OSM    H4S11225   1.139   3.911  10.203  0.5336 -0.3365  0.8085
  109OSM    C5S11226   1.306   3.846  10.089  0.5939  0.2664 -1.0842
  109OSM    H5S11227   1.410   3.810  10.090  0.6193  0.0098  2.3919
  109OSM    C6S11228   1.237   3.859   9.964 -0.0076 -0.3545  0.5309
  109OSM    H6S11229   1.301   3.926   9.903 -1.1299  0.9254  0.7027
  109OSM    H6T11230   1.135   3.905   9.966 -0.2509 -0.8332 -0.3344
  109OSM    C7S11231   1.231   3.720   9.903  0.0164 -0.3361  0.8190
  109OSM    H7S11232   1.166   3.659   9.969 -0.0798  0.3360  1.3555
  109OSM    H7T11233   1.331   3.676   9.889 -0.0934 -0.6295  0.9546
  109OSM    C8S11234   1.161   3.730   9.764 -0.0135 -0.6503  1.0433
  109OSM    H8S11235   1.058   3.770   9.775 -0.1309 -1.2783  2.3394
  109OSM    H8T11236   1.135   3.627   9.732 -1.3364  0.6641 -2.6758
  109OSM    C9S11237   1.233   3.815   9.655 -0.0621 -0.1707 -0.0326
  109OSM    H9S11238   1.334   3.771   9.639 -0.6412 -1.4484 -0.3456
  109OSM    H9T11239   1.255   3.920   9.684  1.3934 -0.0061 -1.5943
  109OSM   C10S11240   1.175   3.802   9.516  0.8791  1.0230 -0.9873
  109OSM   H10S11241   1.078   3.853   9.533  0.2298  0.5325 -2.9818
  109OSM   H10T11242   1.156   3.696   9.489  0.5067  0.7484  0.2500
  109OSM   C11S11243   1.254   3.865   9.411  0.4536  0.2363  0.4805
  109OSM   H11S11244   1.356   3.825   9.394 -0.9027 -4.3615  1.6288
  109OSM   H11T11245   1.257   3.974   9.430 -2.3221  0.6062 -0.6024
  109OSM   C12S11246   1.190   3.853   9.266 -0.0520  0.1573  0.1117
  109OSM   H12S11247   1.244   3.931   9.209  1.8147  0.1809  1.7960
  109OSM   H12T11248   1.081   3.873   9.255  0.1550  0.8236 -0.7940
  109OSM   C13S11249   1.227   3.724   9.193  0.3540  0.3574 -0.6782
  109OSM   H13S11250   1.196   3.646   9.266  0.2589  1.5473  0.5867
  109OSM   H13T11251   1.338   3.725   9.183  0.5679 -0.2443  1.2791
  109OSM   C14S11252   1.160   3.706   9.054  0.8407  0.4433 -0.6341
  109OSM   H14S11253   1.193   3.790   8.990  1.1567  0.1244 -0.8925
  109OSM   H14T11254   1.053   3.720   9.082  1.2655  2.7823  0.0373
  109OSM   C15S11255   1.201   3.571   8.983 -0.1441 -0.2567  0.0966
  109OSM   H15S11256   1.155   3.489   9.041  3.1491 -2.4895 -0.1674
  109OSM   H15T11257   1.309   3.549   8.972 -0.0656  1.0788 -3.1271
  109OSM   C16S11258   1.157   3.577   8.829 -0.6159  0.0923  1.1514
  109OSM   H16S11259   1.221   3.496   8.789  0.4212  0.8686  1.2069
  109OSM   H16T11260   1.186   3.678   8.793 -1.3106  0.3115  1.1808
  109OSM   C17S11261   1.009   3.547   8.822 -0.1344  0.0449  0.3851
  109OSM   H17S11262   0.956   3.588   8.910  0.2149  1.5764 -0.0902
  109OSM   H17T11263   1.006   3.436   8.819  0.3169 -0.1101  3.0503
  109OSM   C18S11264   0.931   3.588   8.698 -0.2369  0.4438  0.0004
  109OSM   H18S11265   1.002   3.581   8.613 -1.5195  2.1090 -1.2918
  109OSM   H18T11266   0.890   3.691   8.701 -0.6465  0.3354 -1.2474
  109OSM   H18U11267   0.848   3.520   8.670 -0.4678  0.6229  0.2371
  109OSM    C1F11268   1.282   4.271  10.359  0.3636  0.8190 -0.5417
  109OSM     OF11269   1.396   4.305  10.387 -0.0838 -0.3559  0.3691
  109OSM    C2F11270   1.173   4.370  10.347  0.3854 -0.5763 -0.0019
  109OSM    H2F11271   1.176   4.431  10.440 -3.4649  0.7194 -0.5661
  109OSM    H2G11272   1.072   4.325  10.351  0.5681 -1.0133 -0.2303
  109OSM    C3F11273   1.185   4.448  10.218  0.2047 -0.0460  0.2827
  109OSM    H3F11274   1.275   4.510  10.239 -1.0417  1.8775  0.1792
  109OSM    H3G11275   1.103   4.521  10.205  1.4249  1.2729 -0.2565
  109OSM    C4F11276   1.205   4.362  10.083  0.2013 -0.2840  0.4833
  109OSM    H4F11277   1.142   4.271  10.091  0.2198 -0.5815 -1.9390
  109OSM    H4G11278   1.310   4.326  10.085 -0.0686 -1.1596 -0.3531
  109OSM    C5F11279   1.184   4.442   9.959 -0.0263 -0.0393 -0.2577
  109OSM    H5F11280   1.244   4.535   9.962 -1.4919  0.9915 -1.1578
  109OSM    H5G11281   1.079   4.476   9.946 -0.6997 -1.4835  1.0722
  109OSM    C6F11282   1.232   4.368   9.831 -0.1647 -0.3758 -0.6466
  109OSM    H6F11283   1.167   4.279   9.816 -0.7254 -0.2919  1.0554
  109OSM    H6G11284   1.335   4.329   9.847  0.2313  0.7690 -0.2930
  109OSM    C7F11285   1.231   4.442   9.701  0.5048  0.1739  0.0457
  109OSM    H7F11286   1.298   4.531   9.699 -0.7258  1.1439  0.6433
  109OSM    H7G11287   1.131   4.484   9.679  0.7601 -0.2749 -2.2579
  109OSM    C8F11288   1.271   4.357   9.577 -0.0862  0.5767 -0.5928
  109OSM    H8F11289   1.204   4.269   9.564  0.3390  0.3264 -1.0931
  109OSM    H8G11290   1.366   4.308   9.605 -1.1229 -1.6227 -0.7381
  109OSM    C9F11291   1.268   4.439   9.450  0.1618 -0.2832 -0.2091
  109OSM    H9F11292   1.266   4.548   9.467  1.0183 -0.1187 -1.0772
  109OSM   C10F11293   1.281   4.395   9.325  0.0024 -0.1175 -0.0094
  109OSM   H10F11294   1.290   4.467   9.242 -1.2439  0.5221  0.3883
  109OSM   C11F11295   1.295   4.250   9.285 -0.1546  0.2093 -0.3527
  109OSM   H11F11296   1.202   4.200   9.320  0.1270  0.0283  0.1371
  109OSM   H11G11297   1.381   4.205   9.339 -1.9083 -1.1341  1.4705
  109OSM   C12F11298   1.307   4.229   9.139 -0.3352  0.0661  0.4521
  109OSM   H12F11299   1.336   4.122   9.137  2.7679  0.8429 -0.7641
  109OSM   H12G11300   1.381   4.294   9.089  0.6974 -0.5237  1.1782
  109OSM   C13F11301   1.178   4.228   9.058  0.1457 -0.3020  0.0115
  109OSM   H13F11302   1.130   4.326   9.082 -1.0289 -0.9929  0.6138
  109OSM   H13G11303   1.116   4.145   9.098  1.4588 -2.0262 -1.3696
  109OSM   C14F11304   1.197   4.207   8.909  0.2647 -0.3162  0.1132
  109OSM   H14F11305   1.250   4.297   8.872 -0.2056  0.2589  0.7959
  109OSM   H14G11306   1.098   4.240   8.871  2.2664  3.9721 -1.9870
  109OSM   C15F11307   1.251   4.075   8.858  0.2285  0.4817  0.3286
  109OSM   H15F11308   1.161   4.011   8.847  0.1349  0.6174  0.3031
  109OSM   H15G11309   1.319   4.039   8.938 -0.3764  0.7946  0.9926
  109OSM   C16F11310   1.329   4.075   8.722 -0.0162 -0.2665  0.7012
  109OSM   H16F11311   1.420   4.138   8.721  0.5645 -0.9704 -2.3838
  109OSM   H16G11312   1.263   4.127   8.649 -1.8754 -0.8620  1.9037
  109OSM   C17F11313   1.372   3.933   8.688 -0.8011 -0.4318  0.3744
  109OSM   H17F11314   1.399   3.867   8.774 -0.0966 -1.6138 -0.7066
  109OSM   H17G11315   1.468   3.936   8.632 -1.2551 -1.3855 -0.4834
  109OSM   C18F11316   1.277   3.866   8.596  0.3723  0.6571 -0.0594
  109OSM   H18F11317   1.178   3.862   8.646 -0.7175 -1.6065 -2.2602
  109OSM   H18G11318   1.306   3.765   8.561  2.2013  1.1866 -0.2074
  109OSM   H18H11319   1.271   3.923   8.501  2.4169  1.1817  0.0650
  110OSM      N11320   3.181   4.392  10.913  0.5182  0.6297 -0.7242
  110OSM    C1511321   3.188   4.375  10.765  0.3931 -0.2571 -0.6315
  110OSM   H15A11322   3.198   4.270  10.741  1.3135 -1.1225  2.8313
  110OSM   H15B11323   3.272   4.432  10.729  3.7352 -1.6130  3.9829
  110OSM   H15C11324   3.095   4.407  10.721  0.0761 -0.0212  0.1939
  110OSM    C1411325   3.072   4.317  10.972  0.2990 -0.9154 -0.4842
  110OSM   H14A11326   3.069   4.311  11.080 -0.6705  0.9395 -0.3732
  110OSM   H14B11327   3.086   4.214  10.943  0.8171 -0.7168 -0.9412
  110OSM   H14C11328   2.974   4.353  10.943  1.1438  0.3507 -1.9051
  110OSM    C1311329   3.310   4.330  10.970  0.1245  0.1199 -0.4107
  110OSM   H13A11330   3.325   4.348  11.076 -2.3318  4.0140 -0.5254
  110OSM   H13B11331   3.384   4.387  10.916 -1.7569  0.9269 -2.2592
  110OSM   H13C11332   3.312   4.226  10.940 -3.4885 -0.4301  0.7452
  110OSM    C1211333   3.170   4.542  10.946  0.0527 -0.2315 -0.5203
  110OSM   H12A11334   3.254   4.598  10.909 -0.1103 -0.1874 -0.8232
  110OSM   H12B11335   3.157   4.552  11.053  1.7931  0.8670 -0.3788
  110OSM    C1111336   3.048   4.623  10.893 -0.4718  0.3101 -0.3551
  110OSM   H11A11337   3.074   4.635  10.785  2.4020 -0.1325  0.1995
  110OSM   H11B11338   3.050   4.725  10.937 -0.8431  0.2825 -0.2668
  110OSM      P11339   2.804   4.550  10.828  0.0387  0.0745  0.2349
  110OSM    O1311340   2.708   4.464  10.895  0.0749 -0.7184  0.3148
  110OSM    O1411341   2.758   4.682  10.794 -0.3697  0.2178  0.8947
  110OSM    O1111342   2.856   4.476  10.696 -0.1865  0.6807 -0.0115
  110OSM    O1211343   2.929   4.559  10.927  0.0678 -0.3069 -0.0111
  110OSM    C1S11344   2.791   4.500  10.579 -0.5002 -0.6215  0.5512
  110OSM    H1S11345   2.830   4.585  10.520 -2.0526 -1.9281 -2.6049
  110OSM    H1T11346   2.684   4.530  10.582 -0.3921  1.0357 -4.0305
  110OSM     NF11347   2.745   4.413  10.351  0.0501  0.0636  0.7349
  110OSM    HNF11348   2.646   4.404  10.347  0.0376  0.5804 -1.7594
  110OSM    C2S11349   2.809   4.380  10.478 -0.6700 -0.2166  0.3314
  110OSM    H2S11350   2.917   4.356  10.463 -1.0615 -1.2671 -1.0032
  110OSM    C3S11351   2.750   4.250  10.542  0.2467  0.0663 -0.6733
  110OSM    H3S11352   2.643   4.273  10.559  0.8563  2.1143  0.8240
  110OSM     O311353   2.810   4.220  10.670  0.0841  0.2060  0.5962
  110OSM    HO311354   2.855   4.302  10.693  0.7121 -0.0269  0.2258
  110OSM    C4S11355   2.741   4.137  10.447  0.2913 -0.7015 -0.6108
  110OSM    H4S11356   2.647   4.138  10.392 -0.0712 -0.5948 -0.0012
  110OSM    C5S11357   2.833   4.044  10.414  0.0439 -0.6011 -0.1841
  110OSM    H5S11358   2.935   4.038  10.456  0.4677 -2.0090 -1.3476
  110OSM    C6S11359   2.806   3.939  10.318  0.2813 -0.2560 -0.2393
  110OSM    H6S11360   2.809   3.840  10.369 -0.0855 -1.1451 -1.8802
  110OSM    H6T11361   2.891   3.930  10.247  0.4224 -0.1289 -0.0872
  110OSM    C7S11362   2.673   3.941  10.241 -0.3322 -0.3739 -0.1600
  110OSM    H7S11363   2.592   3.950  10.316  0.9833  1.0459  1.1879
  110OSM    H7T11364   2.672   3.843  10.189  0.8467 -0.4242 -0.1288
  110OSM    C8S11365   2.670   4.045  10.123  0.2151 -0.1573 -0.4508
  110OSM    H8S11366   2.751   4.033  10.048  1.1235 -0.0164  0.4841
  110OSM    H8T11367   2.684   4.151  10.155 -0.9321 -0.0506 -0.2627
  110OSM    C9S11368   2.538   4.040  10.046  0.3315 -0.0818 -0.1690
  110OSM    H9S11369   2.502   3.939  10.015  0.6271 -0.4568  0.6770
  110OSM    H9T11370   2.568   4.098   9.956  0.8808  0.8922  0.6250
  110OSM   C10S11371   2.426   4.126  10.107  0.1132 -0.4743 -0.0307
  110OSM   H10S11372   2.456   4.233  10.104  2.0618 -1.0041 -1.8446
  110OSM   H10T11373   2.404   4.101  10.213  2.7133  2.1382  1.2797
  110OSM   C11S11374   2.293   4.102  10.031 -0.2465 -0.5681  0.7433
  110OSM   H11S11375   2.294   4.114   9.920 -0.3453  0.0372  0.8028
  110OSM   H11T11376   2.225   4.180  10.071 -1.2030 -0.0583 -1.6621
  110OSM   C12S11377   2.227   3.969  10.066 -0.3379  0.0406 -0.2087
  110OSM   H12S11378   2.208   3.977  10.175  0.6246 -1.0889  0.0638
  110OSM   H12T11379   2.299   3.888  10.041  0.0841  0.2345  0.3391
  110OSM   C13S11380   2.094   3.945   9.995 -0.1096  0.2051  0.2283
  110OSM   H13S11381   2.047   4.045  10.006 -0.7513 -0.0335 -0.2982
  110OSM   H13T11382   2.023   3.877  10.046 -1.9352 -0.6001 -3.0985
  110OSM   C14S11383   2.095   3.897   9.850  0.5262  0.5438 -0.6085
  110OSM   H14S11384   2.153   3.802   9.854 -0.0136  0.0432 -3.1028
  110OSM   H14T11385   2.155   3.971   9.793 -0.2154  2.0127  0.4523
  110OSM   C15S11386   1.947   3.870   9.794 -0.1866 -0.9474 -0.3406
  110OSM   H15S11387   1.911   3.968   9.756  1.5663  0.7516  2.0168
  110OSM   H15T11388   1.884   3.846   9.882 -0.1688 -1.7503 -0.5428
  110OSM   C16S11389   1.915   3.758   9.700  0.1528  0.3963 -0.0506
  110OSM   H16S11390   1.805   3.756   9.684  0.4464  1.1268 -2.5665
  110OSM   H16T11391   1.948   3.667   9.755  0.1524  1.5835  2.0317
  110OSM   C17S11392   1.982   3.754   9.556  0.2347 -0.1051  0.1399
  110OSM   H17S11393   1.974   3.653   9.510 -1.7875  1.2181 -2.6851
  110OSM   H17T11394   2.089   3.780   9.570  0.5451 -0.8439 -0.7687
  110OSM   C18S11395   1.922   3.851   9.464  0.1090 -0.3253 -0.1714
  110OSM   H18S11396   1.929   3.955   9.503  0.9364  0.6593 -2.7073
  110OSM   H18T11397   1.817   3.830   9.438  0.0143 -0.5205  0.3519
  110OSM   H18U11398   1.979   3.875   9.371  0.8649  1.4177  0.6733
  110OSM    C1F11399   2.813   4.468  10.250  0.1929  0.5057 -0.0595
  110OSM     OF11400   2.930   4.504  10.266 -0.4075  0.0109  0.2709
  110OSM    C2F11401   2.750   4.491  10.119 -0.0346  0.1360  1.0704
  110OSM    H2F11402   2.705   4.592  10.124  0.0326  0.1540  1.3424
  110OSM    H2G11403   2.667   4.418  10.109 -0.1354  0.4644 -0.6799
  110OSM    C3F11404   2.855   4.479  10.002  0.1368 -0.2982 -0.0654
  110OSM    H3F11405   2.895   4.376  10.011  0.1003 -0.3213 -0.1780
  110OSM    H3G11406   2.927   4.562  10.019 -3.9073  4.0444 -1.7312
  110OSM    C4F11407   2.790   4.480   9.863  0.0898  0.4372 -0.0205
  110OSM    H4F11408   2.875   4.495   9.793 -0.3372 -0.4679 -0.7522
  110OSM    H4G11409   2.723   4.568   9.855 -0.5518  0.1100  1.4009
  110OSM    C5F11410   2.701   4.357   9.833  0.1655 -0.4722 -0.3433
  110OSM    H5F11411   2.609   4.372   9.893  0.5426  0.0029  0.1327
  110OSM    H5G11412   2.754   4.269   9.876  0.2596 -1.9815 -3.2683
  110OSM    C6F11413   2.667   4.321   9.688 -0.7076 -0.1202  0.1573
  110OSM    H6F11414   2.753   4.265   9.644  1.5069  1.0749  2.6773
  110OSM    H6G11415   2.667   4.412   9.625 -0.4201 -0.4641 -0.3544
  110OSM    C7F11416   2.531   4.245   9.669  0.1760 -0.0451 -0.5077
  110OSM    H7F11417   2.452   4.296   9.728 -1.7588 -1.1472 -2.0324
  110OSM    H7G11418   2.545   4.144   9.713 -2.3877  0.7877  2.5543
  110OSM    C8F11419   2.480   4.232   9.523  0.0539  0.5414  0.2928
  110OSM    H8F11420   2.537   4.156   9.466 -0.6621 -1.5634  2.2422
  110OSM    H8G11421   2.501   4.320   9.459  1.5068 -0.2288 -0.3385
  110OSM    C9F11422   2.332   4.187   9.525 -0.0732 -0.2740  0.0997
  110OSM    H9F11423   2.271   4.278   9.536  0.4076  0.1305 -0.4873
  110OSM   C10F11424   2.284   4.061   9.515 -0.1701 -0.1538  0.0840
  110OSM   H10F11425   2.175   4.050   9.516 -0.5828  1.3082 -4.4688
  110OSM   C11F11426   2.362   3.930   9.499  0.1553  0.1978  0.3249
  110OSM   H11F11427   2.340   3.860   9.583  2.2780  0.6534  1.3253
  110OSM   H11G11428   2.472   3.942   9.501  0.0494  1.6926 -0.7638
  110OSM   C12F11429   2.343   3.875   9.355 -0.2370 -0.9325 -0.2425
  110OSM   H12F11430   2.233   3.855   9.352 -0.4140 -0.2182  0.9903
  110OSM   H12G11431   2.392   3.775   9.345 -2.6394 -1.9881 -3.3185
  110OSM   C13F11432   2.376   3.963   9.232  0.2241  0.6134 -0.9352
  110OSM   H13F11433   2.460   4.027   9.266  1.0905 -0.3079 -1.2581
  110OSM   H13G11434   2.294   4.029   9.199  1.0539  2.5942  0.7308
  110OSM   C14F11435   2.408   3.880   9.107 -0.0941  0.1829  0.0546
  110OSM   H14F11436   2.318   3.822   9.080 -0.6936  0.1391  2.0347
  110OSM   H14G11437   2.490   3.806   9.121 -1.1749 -1.3441 -1.3470
  110OSM   C15F11438   2.451   3.964   8.981 -0.6846 -0.2233 -0.1201
  110OSM   H15F11439   2.493   3.909   8.894 -1.4947  1.5084 -1.6578
  110OSM   H15G11440   2.540   4.026   9.007 -1.1314  1.1701 -1.7741
  110OSM   C16F11441   2.354   4.072   8.930  0.0579 -0.3152  0.0610
  110OSM   H16F11442   2.391   4.107   8.832  0.6484  0.0742  0.4198
  110OSM   H16G11443   2.342   4.157   9.001 -0.0355 -1.6303  1.6985
  110OSM   C17F11444   2.210   4.015   8.900  0.0333  0.4348 -0.2922
  110OSM   H17F11445   2.131   4.082   8.860 -2.6233 -1.0005  2.0822
  110OSM   H17G11446   2.172   3.985   9.001  2.7627  0.9370  0.9790
  110OSM   C18F11447   2.203   3.894   8.811  0.7097 -0.2249  0.4401
  110OSM   H18F11448   2.261   3.917   8.718 -1.2480  0.4056 -0.6751
  110OSM   H18G11449   2.098   3.869   8.785  1.4494 -2.1635 -0.9672
  110OSM   H18H11450   2.260   3.812   8.860  3.4557  0.4418 -1.3837
  111OSM      N11451   2.370   0.130  10.835 -0.1801  0.2442 -0.1030
  111OSM    C1511452   2.272   0.235  10.839  0.0667 -0.7354  0.2535
  111OSM   H15A11453   2.230   0.251  10.937  1.9229 -0.5091  1.0385
  111OSM   H15B11454   2.194   0.224  10.764  0.2963 -0.1732 -0.0731
  111OSM   H15C11455   2.310   0.332  10.811 -1.3894  0.0622  0.9070
  111OSM    C1411456   2.439   0.144  10.707  0.0754  0.2157  0.6181
  111OSM   H14A11457   2.513   0.068  10.691 -1.5846 -0.9633 -2.2637
  111OSM   H14B11458   2.503   0.230  10.717  0.7479 -0.1254 -0.5467
  111OSM   H14C11459   2.382   0.156  10.616  0.6797  1.6889  0.4009
  111OSM    C1311460   2.480   0.142  10.939 -0.1203  0.3098  0.5509
  111OSM   H13A11461   2.577   0.106  10.911 -0.5401  0.6713 -1.5372
  111OSM   H13B11462   2.466   0.096  11.035 -1.8951 -2.7224 -1.0068
  111OSM   H13C11463   2.503   0.246  10.954 -0.5953  0.4569  0.3024
  111OSM    C1211464   2.299  -0.008  10.852 -0.6167  0.6039 -0.2296
  111OSM   H12A11465   2.240   0.002  10.942 -0.2074 -0.2391  0.1419
  111OSM   H12B11466   2.381  -0.078  10.866  0.0514  1.3632 -0.2736
  111OSM    C1111467   2.196  -0.053  10.738  0.4640  0.3385  0.7411
  111OSM   H11A11468   2.118   0.021  10.714 -0.6301 -0.1203  2.6611
  111OSM   H11B11469   2.122  -0.130  10.769 -0.1841  0.7493  0.2162
  111OSM      P11470   2.326  -0.227  10.593  0.0183 -0.5235 -0.5556
  111OSM    O1311471   2.457  -0.217  10.664 -0.1455  0.5655 -0.2192
  111OSM    O1411472   2.241  -0.344  10.630  0.0061 -0.2106 -0.6669
  111OSM    O1111473   2.351  -0.232  10.439 -0.1583 -0.0220  0.0629
  111OSM    O1211474   2.248  -0.089  10.614 -0.2717 -0.1283  0.1752
  111OSM    C1S11475   2.398  -0.132  10.357  0.3648 -0.2308 -0.2395
  111OSM    H1S11476   2.482  -0.080  10.409  2.8633 -1.5024 -2.7182
  111OSM    H1T11477   2.314  -0.069  10.322 -0.5848 -1.2288  0.1900
  111OSM     NF11478   2.496  -0.072  10.140 -0.8047 -0.6608  0.2560
  111OSM    HNF11479   2.440  -0.046  10.062  0.5992 -0.9089 -0.8782
  111OSM    C2S11480   2.444  -0.179  10.220  0.1138  0.4369  0.1596
  111OSM    H2S11481   2.527  -0.249  10.244  0.1188  1.7187  4.9966
  111OSM    C3S11482   2.331  -0.256  10.146  0.0682 -0.0696  0.0813
  111OSM    H3S11483   2.260  -0.177  10.112  2.0752  1.6287 -0.3754
  111OSM     O311484   2.251  -0.351  10.222 -0.1714  0.3651  0.6710
  111OSM    HO311485   2.284  -0.355  10.312 -0.6006 -0.5263  0.7929
  111OSM    C4S11486   2.378  -0.323  10.021 -0.7285  0.1112  0.7146
  111OSM    H4S11487   2.472  -0.377  10.039  0.1855  1.1873 -0.5837
  111OSM    C5S11488   2.329  -0.311   9.897  0.0859 -0.7316  0.5162
  111OSM    H5S11489   2.259  -0.230   9.873 -0.2838 -1.5339 -1.1978
  111OSM    C6S11490   2.383  -0.398   9.779  0.2262 -0.8191  0.2403
  111OSM    H6S11491   2.296  -0.429   9.718 -0.3939 -0.3032  0.8407
  111OSM    H6T11492   2.438  -0.490   9.807  1.8607 -0.1389 -0.6348
  111OSM    C7S11493   2.466  -0.327   9.672  0.1928 -0.1757 -0.2380
  111OSM    H7S11494   2.564  -0.287   9.706 -0.0534 -1.1452  1.7853
  111OSM    H7T11495   2.403  -0.247   9.628  0.6820  0.4544  0.1915
  111OSM    C8S11496   2.501  -0.422   9.551  0.0516 -0.4844 -0.4330
  111OSM    H8S11497   2.413  -0.477   9.512 -1.8822  1.6774  0.6119
  111OSM    H8T11498   2.580  -0.491   9.587  0.8718  0.9771  0.7009
  111OSM    C9S11499   2.568  -0.344   9.434 -0.3308  0.6968 -0.0468
  111OSM    H9S11500   2.664  -0.303   9.473  0.1121  0.1530 -0.5504
  111OSM    H9T11501   2.488  -0.271   9.408 -0.3278  1.7039  2.4138
  111OSM   C10S11502   2.610  -0.442   9.320 -0.7567  0.8133 -0.3925
  111OSM   H10S11503   2.556  -0.538   9.310  2.6741 -1.0860 -2.8249
  111OSM   H10T11504   2.717  -0.465   9.340 -0.7781  1.8110  1.0801
  111OSM   C11S11505   2.593  -0.362   9.190 -0.1110 -0.4005 -0.1657
  111OSM   H11S11506   2.650  -0.268   9.200  0.1372 -0.4898 -0.7593
  111OSM   H11T11507   2.484  -0.345   9.174 -0.5160 -2.1155  0.4608
  111OSM   C12S11508   2.635  -0.445   9.062  0.3356  0.0188 -0.1158
  111OSM   H12S11509   2.553  -0.517   9.041 -2.0182  2.5102 -0.0141
  111OSM   H12T11510   2.720  -0.513   9.086  0.0345  0.0493  1.0780
  111OSM   C13S11511   2.666  -0.351   8.947  0.2500  0.2339 -0.2908
  111OSM   H13S11512   2.744  -0.283   8.986  0.1076 -0.1739  0.7489
  111OSM   H13T11513   2.574  -0.299   8.911 -1.8083 -1.2752  2.3246
  111OSM   C14S11514   2.724  -0.426   8.826  0.5260  0.2169  0.1242
  111OSM   H14S11515   2.648  -0.498   8.786 -0.7359  2.2283 -1.3184
  111OSM   H14T11516   2.820  -0.470   8.858 -0.9441 -2.6429  0.9170
  111OSM   C15S11517   2.765  -0.329   8.716 -0.1549  0.3546  0.0521
  111OSM   H15S11518   2.866  -0.287   8.735  1.8719 -3.8448 -0.3748
  111OSM   H15T11519   2.702  -0.237   8.711  0.1338  0.5136 -0.8018
  111OSM   C16S11520   2.751  -0.396   8.575 -0.8655  0.8188 -0.2234
  111OSM   H16S11521   2.648  -0.436   8.561 -0.9297  1.0456 -0.4022
  111OSM   H16T11522   2.825  -0.478   8.557 -1.1619 -0.1310  2.4301
  111OSM   C17S11523   2.783  -0.293   8.466  0.6437 -0.2784  0.0918
  111OSM   H17S11524   2.804  -0.347   8.371  0.0652  1.2673 -0.9693
  111OSM   H17T11525   2.873  -0.234   8.492  0.4562  0.0408  0.0233
  111OSM   C18S11526   2.667  -0.195   8.449 -0.2499  0.6224 -0.1905
  111OSM   H18S11527   2.669  -0.137   8.354  0.5729  0.4063 -0.3193
  111OSM   H18T11528   2.676  -0.124   8.534 -1.7934 -0.6651  1.1007
  111OSM   H18U11529   2.569  -0.246   8.449  0.0104  0.1099 -0.7961
  111OSM    C1F11530   2.606  -0.001  10.164 -0.0318 -0.7940 -0.1908
  111OSM     OF11531   2.680  -0.031  10.260  0.2453  0.0414 -0.3474
  111OSM    C2F11532   2.635   0.123  10.075  0.3591  0.4091  0.1067
  111OSM    H2F11533   2.585   0.209  10.126  0.7424 -0.6458  2.4070
  111OSM    H2G11534   2.593   0.110   9.973 -0.3946  1.0409  0.3223
  111OSM    C3F11535   2.791   0.147  10.064  0.6759  0.2688  0.0028
  111OSM    H3F11536   2.835   0.152  10.166 -2.2991  1.0069  1.3628
  111OSM    H3G11537   2.814   0.244  10.015  1.2037  0.6745  1.0102
  111OSM    C4F11538   2.863   0.038   9.973 -0.4713 -0.2347  0.2198
  111OSM    H4F11539   2.831  -0.065  10.002  0.2168 -0.1229  1.4542
  111OSM    H4G11540   2.970   0.049  10.000 -0.5497  0.6190  0.2087
  111OSM    C5F11541   2.836   0.060   9.822  0.3981  0.0952 -0.5154
  111OSM    H5F11542   2.824   0.168   9.802  0.5207  0.1968 -0.0608
  111OSM    H5G11543   2.745   0.007   9.786  0.7992 -0.0975 -1.2646
  111OSM    C6F11544   2.956   0.033   9.735  0.6115  0.7458 -0.3771
  111OSM    H6F11545   3.053   0.081   9.760  1.1624 -0.0062 -1.0180
  111OSM    H6G11546   2.935   0.059   9.629  0.5562  1.3094 -0.2304
  111OSM    C7F11547   2.997  -0.116   9.746 -0.4947  0.8866  0.4200
  111OSM    H7F11548   2.906  -0.176   9.724  0.0906  0.2008 -0.1847
  111OSM    H7G11549   3.029  -0.138   9.850  0.8573  3.6693  0.7045
  111OSM    C8F11550   3.102  -0.145   9.639  0.3376  1.1590 -0.1033
  111OSM    H8F11551   3.203  -0.123   9.680 -0.0819 -2.7305  3.6958
  111OSM    H8G11552   3.083  -0.070   9.559  0.9984  0.8292 -0.5793
  111OSM    C9F11553   3.099  -0.287   9.592 -0.5134 -0.2637  0.2852
  111OSM    H9F11554   3.142  -0.362   9.660 -0.5093 -0.3852  0.1476
  111OSM   C10F11555   3.041  -0.329   9.472  0.1550  0.1126  0.4685
  111OSM   H10F11556   3.049  -0.438   9.464  2.2944  0.0332  2.5272
  111OSM   C11F11557   2.970  -0.251   9.360 -0.1425  0.4717  0.1768
  111OSM   H11F11558   2.953  -0.147   9.397 -0.4547  0.0954  1.1280
  111OSM   H11G11559   2.867  -0.284   9.335 -0.3748  1.2112  0.1266
  111OSM   C12F11560   3.049  -0.231   9.229  0.5953  0.1738 -0.1352
  111OSM   H12F11561   3.143  -0.174   9.244 -0.5078  1.5053  2.2758
  111OSM   H12G11562   2.983  -0.175   9.160 -0.5739 -0.1530  0.6843
  111OSM   C13F11563   3.065  -0.363   9.141  0.0545  0.7585 -0.5170
  111OSM   H13F11564   2.975  -0.425   9.163 -1.1122  2.4993 -0.1908
  111OSM   H13G11565   3.152  -0.410   9.191 -0.1447  0.5071 -0.4061
  111OSM   C14F11566   3.105  -0.348   8.991 -0.1036  0.1142 -0.2925
  111OSM   H14F11567   3.019  -0.290   8.952 -0.0012  0.0036 -0.6930
  111OSM   H14G11568   3.110  -0.450   8.946 -1.5152  0.8669 -2.3088
  111OSM   C15F11569   3.235  -0.282   8.953  0.1029  0.7123  0.4587
  111OSM   H15F11570   3.305  -0.304   9.037  1.0942 -3.0313 -1.1316
  111OSM   H15G11571   3.218  -0.176   8.923  0.8968  0.2780 -1.6792
  111OSM   C16F11572   3.297  -0.340   8.826 -0.6024  0.0366  0.0035
  111OSM   H16F11573   3.338  -0.443   8.832 -0.8911 -0.3705 -3.2240
  111OSM   H16G11574   3.392  -0.285   8.807  0.8981 -2.1796  0.7194
  111OSM   C17F11575   3.210  -0.338   8.706 -0.2584  0.0510  0.0618
  111OSM   H17F11576   3.150  -0.245   8.713 -2.3500 -1.1530 -0.8390
  111OSM   H17G11577   3.144  -0.427   8.705 -0.3833  0.1439  0.0610
  111OSM   C18F11578   3.282  -0.338   8.571 -0.0102 -0.6242  0.9131
  111OSM   H18F11579   3.340  -0.247   8.545  1.7179 -2.0927 -0.5601
  111OSM   H18G11580   3.209  -0.341   8.487 -0.0097  2.3196  0.6748
  111OSM   H18H11581   3.335  -0.433   8.553  0.4745 -0.2151  0.1437
  112OSM      N11582   3.218   6.256  10.950  0.7002  0.0593 -0.2921
  112OSM    C1511583   3.353   6.236  11.003 -0.2659  0.2290  0.1346
  112OSM   H15A11584   3.347   6.265  11.107 -0.0299 -2.1987  0.8841
  112OSM   H15B11585   3.427   6.294  10.949 -0.5686  0.2086 -0.3047
  112OSM   H15C11586   3.382   6.133  11.014 -1.5962 -0.2548 -0.7138
  112OSM    C1411587   3.188   6.396  10.984 -0.1635 -0.5131  0.5578
  112OSM   H14A11588   3.263   6.464  10.947 -2.5764  1.7406 -0.5715
  112OSM   H14B11589   3.171   6.398  11.091  0.3286 -1.5565  0.6620
  112OSM   H14C11590   3.096   6.436  10.942  1.2349  1.7750 -0.4933
  112OSM    C1311591   3.210   6.247  10.799 -0.3175  0.8892  0.0737
  112OSM   H13A11592   3.118   6.278  10.752 -1.2104 -1.6487 -0.0137
  112OSM   H13B11593   3.223   6.147  10.759 -0.9684  0.7560  0.1814
  112OSM   H13C11594   3.291   6.308  10.763  1.0275  0.1386  1.6519
  112OSM    C1211595   3.117   6.158  11.017 -0.4422 -0.0244 -1.0533
  112OSM   H12A11596   3.018   6.173  10.977 -1.1144 -1.7353 -0.1171
  112OSM   H12B11597   3.103   6.176  11.123 -1.3889  0.3472 -1.2331
  112OSM    C1111598   3.151   6.012  10.998  0.4439  0.3569  0.2776
  112OSM   H11A11599   3.157   5.988  10.890  1.2057 -0.8926  0.5769
  112OSM   H11B11600   3.062   5.954  11.031 -0.6206  1.3657 -0.7367
  112OSM      P11601   3.338   5.842  11.024  0.0374  0.2173  0.1813
  112OSM    O1311602   3.410   5.795  11.145  0.0449  0.5265 -0.0024
  112OSM    O1411603   3.248   5.744  10.965  0.3346  0.0230  0.2791
  112OSM    O1111604   3.444   5.897  10.909 -0.6414 -0.1605 -0.6876
  112OSM    O1211605   3.261   5.970  11.075  0.2568  0.2017 -0.0211
  112OSM    C1S11606   3.498   5.805  10.813  0.3633 -0.2989  0.1693
  112OSM    H1S11607   3.465   5.699  10.822 -0.6750 -0.0750 -0.7547
  112OSM    H1T11608   3.609   5.810  10.812  0.3198  1.0564 -1.5333
  112OSM     NF11609   3.511   5.757  10.562 -0.2401 -0.0050 -0.3798
  112OSM    HNF11610   3.604   5.766  10.529  0.1139 -2.1388 -0.1013
  112OSM    C2S11611   3.465   5.854  10.669 -0.0715  0.0826  0.5795
  112OSM    H2S11612   3.354   5.852  10.665 -0.0492 -0.5614 -2.1392
  112OSM    C3S11613   3.521   5.996  10.644 -0.1381  0.6978  0.0598
  112OSM    H3S11614   3.632   5.990  10.639 -0.1226  1.6669 -1.2926
  112OSM     O311615   3.495   6.093  10.741  0.5005  0.3009 -0.1784
  112OSM    HO311616   3.453   6.041  10.810 -0.4130  0.1976 -0.7978
  112OSM    C4S11617   3.483   6.043  10.506 -0.6607 -0.0279 -0.1632
  112OSM    H4S11618   3.547   6.001  10.427  0.3254  1.4390 -0.1764
  112OSM    C5S11619   3.371   6.113  10.481 -0.8459 -0.0863 -0.0521
  112OSM    H5S11620   3.299   6.113  10.564  0.5946 -0.7356  1.2425
  112OSM    C6S11621   3.316   6.159  10.346  0.1698 -0.5464 -0.8322
  112OSM    H6S11622   3.305   6.270  10.353 -1.3052 -0.5952 -1.7807
  112OSM    H6T11623   3.211   6.125  10.336  0.2296 -0.6400 -1.1458
  112OSM    C7S11624   3.395   6.138  10.215  0.7043  0.1477  0.2273
  112OSM    H7S11625   3.477   6.064  10.226  0.9512  0.3460 -0.2619
  112OSM    H7T11626   3.443   6.232  10.181  0.6645  0.6163  1.3954
  112OSM    C8S11627   3.317   6.081  10.093  0.5060  0.4742 -0.5237
  112OSM    H8S11628   3.233   6.151  10.071  2.9829  2.9999 -2.7015
  112OSM    H8T11629   3.294   5.974  10.117 -1.0126  1.0995  1.0269
  112OSM    C9S11630   3.407   6.083   9.965 -0.0571  0.6647 -1.1269
  112OSM    H9S11631   3.491   6.010   9.965  0.8453  1.6578 -2.1250
  112OSM    H9T11632   3.459   6.181   9.962  0.6103  0.3434 -0.4787
  112OSM   C10S11633   3.322   6.070   9.838 -0.4569 -0.2687 -0.3374
  112OSM   H10S11634   3.226   6.125   9.848  0.4017  1.3720 -0.6986
  112OSM   H10T11635   3.292   5.963   9.833 -0.6576 -0.1675 -1.6018
  112OSM   C11S11636   3.389   6.105   9.702  0.5033 -0.3986 -0.2778
  112OSM   H11S11637   3.477   6.038   9.693 -0.8843 -2.5301  1.0544
  112OSM   H11T11638   3.411   6.213   9.696 -3.8129  0.5751 -1.7696
  112OSM   C12S11639   3.292   6.076   9.591  0.4769  0.0101  0.3934
  112OSM   H12S11640   3.205   6.135   9.626  1.7371  1.6404  0.9207
  112OSM   H12T11641   3.265   5.968   9.592 -1.8885  0.5313 -1.3141
  112OSM   C13S11642   3.340   6.114   9.454  0.3802  0.8584 -0.6139
  112OSM   H13S11643   3.450   6.096   9.455  0.8158  3.1687 -1.6518
  112OSM   H13T11644   3.335   6.222   9.429 -1.1117  0.2436 -3.4651
  112OSM   C14S11645   3.283   6.039   9.330  0.0450  0.6209  0.3232
  112OSM   H14S11646   3.173   6.052   9.322 -0.1026 -0.3379  0.6523
  112OSM   H14T11647   3.321   5.935   9.344  1.2907  1.1098  0.7229
  112OSM   C15S11648   3.357   6.078   9.203 -0.6538  0.2048  0.5188
  112OSM   H15S11649   3.465   6.104   9.211 -0.2606 -1.1913  0.0562
  112OSM   H15T11650   3.309   6.172   9.166 -0.2906  0.6741  1.2258
  112OSM   C16S11651   3.365   5.963   9.104 -0.2724 -0.6499 -0.0443
  112OSM   H16S11652   3.274   5.900   9.099 -1.0468  0.5260 -1.9081
  112OSM   H16T11653   3.454   5.899   9.123  0.3506  0.5339  1.2013
  112OSM   C17S11654   3.362   6.023   8.958  0.2853 -0.4529  0.0535
  112OSM   H17S11655   3.452   6.088   8.959 -0.0144 -0.0348  0.1342
  112OSM   H17T11656   3.268   6.082   8.947 -0.3981 -1.5542 -0.1658
  112OSM   C18S11657   3.373   5.921   8.840 -0.4177 -1.1867  0.2220
  112OSM   H18S11658   3.311   5.833   8.868 -1.3261 -0.1394  1.6572
  112OSM   H18T11659   3.476   5.882   8.831 -1.0313 -2.5735 -1.2816
  112OSM   H18U11660   3.329   5.961   8.746  0.6064 -1.8045 -0.5447
  112OSM    C1F11661   3.446   5.645  10.529  1.0511  0.6010  0.0796
  112OSM     OF11662   3.344   5.608  10.585 -0.5951 -0.3322 -0.7969
  112OSM    C2F11663   3.504   5.565  10.421 -0.0630 -0.4255 -0.5681
  112OSM    H2F11664   3.530   5.463  10.457 -0.8476 -1.5549 -2.9783
  112OSM    H2G11665   3.601   5.602  10.382 -0.6173 -0.0270 -1.5896
  112OSM    C3F11666   3.413   5.556  10.296 -0.1691  0.4856  0.5617
  112OSM    H3F11667   3.315   5.517  10.332 -0.4209  1.0697  0.5170
  112OSM    H3G11668   3.440   5.478  10.222 -0.8718  0.6213  0.1561
  112OSM    C4F11669   3.402   5.686  10.222 -0.0932  0.2151 -0.3121
  112OSM    H4F11670   3.437   5.766  10.290 -0.5686 -1.9443  2.6583
  112OSM    H4G11671   3.297   5.705  10.189  0.0919 -2.2222 -2.6257
  112OSM    C5F11672   3.475   5.707  10.086 -0.2777  0.0159 -0.6179
  112OSM    H5F11673   3.574   5.657  10.097 -0.5877 -0.4879 -0.1079
  112OSM    H5G11674   3.491   5.817  10.078  1.7546 -0.1117  0.8505
  112OSM    C6F11675   3.415   5.651   9.959 -0.2163  0.2451 -0.1448
  112OSM    H6F11676   3.323   5.708   9.939  0.8706  2.0187 -0.2882
  112OSM    H6G11677   3.380   5.550   9.990  3.1632 -1.3367 -0.9512
  112OSM    C7F11678   3.511   5.634   9.845 -0.3944 -0.1782 -0.0159
  112OSM    H7F11679   3.481   5.535   9.803  0.3853 -1.2787  1.8757
  112OSM    H7G11680   3.618   5.628   9.876 -0.6186  1.9160  1.3417
  112OSM    C8F11681   3.494   5.745   9.736 -0.3759 -0.3646 -0.0766
  112OSM    H8F11682   3.492   5.843   9.788  1.8927  0.7607 -1.9581
  112OSM    H8G11683   3.394   5.719   9.696 -2.2458  3.0252  1.8965
  112OSM    C9F11684   3.604   5.745   9.626 -0.3719 -0.0921 -0.2935
  112OSM    H9F11685   3.701   5.767   9.672 -0.9832  0.0788  0.9280
  112OSM   C10F11686   3.592   5.734   9.495 -0.0397 -0.3449 -0.3329
  112OSM   H10F11687   3.686   5.728   9.439  0.6017 -2.7269  0.8831
  112OSM   C11F11688   3.465   5.710   9.419 -0.0865  0.4067  0.7741
  112OSM   H11F11689   3.469   5.780   9.333 -1.9610 -0.5350 -0.1493
  112OSM   H11G11690   3.373   5.734   9.477 -0.0850  1.8631  0.2263
  112OSM   C12F11691   3.438   5.566   9.370  0.1027 -1.0060 -0.4604
  112OSM   H12F11692   3.328   5.549   9.365 -0.4610  1.7319  0.9213
  112OSM   H12G11693   3.482   5.488   9.436 -0.8292  0.3513  1.8752
  112OSM   C13F11694   3.488   5.548   9.224 -0.2751 -0.2230 -0.0763
  112OSM   H13F11695   3.598   5.556   9.231 -0.5103  3.6666  1.7226
  112OSM   H13G11696   3.448   5.643   9.181 -0.1177 -0.0883  0.0733
  112OSM   C14F11697   3.417   5.425   9.150 -0.4866 -0.5294  0.0390
  112OSM   H14F11698   3.308   5.446   9.138 -0.2664  1.7537  1.4439
  112OSM   H14G11699   3.433   5.338   9.218 -1.5393  0.1442  1.1967
  112OSM   C15F11700   3.475   5.400   9.005 -0.0118  1.1133 -0.2130
  112OSM   H15F11701   3.582   5.379   9.024 -1.1687 -3.1220  2.8777
  112OSM   H15G11702   3.455   5.498   8.955 -1.3584  1.7094  1.3973
  112OSM   C16F11703   3.416   5.285   8.922  0.7224 -0.2252  0.4507
  112OSM   H16F11704   3.439   5.187   8.969  1.1780 -0.6698 -0.6641
  112OSM   H16G11705   3.469   5.280   8.825  1.3956  2.3981  0.6254
  112OSM   C17F11706   3.265   5.297   8.894 -0.2217 -0.5526 -0.4213
  112OSM   H17F11707   3.260   5.401   8.855  0.8579 -0.8924 -1.5583
  112OSM   H17G11708   3.213   5.288   8.991 -0.0115  1.5275 -0.0722
  112OSM   C18F11709   3.218   5.192   8.794 -0.1679  0.2993  0.2741
  112OSM   H18F11710   3.273   5.097   8.812  1.9977  1.2046 -1.1357
  112OSM   H18G11711   3.254   5.211   8.691  1.9842 -1.8399  0.5223
  112OSM   H18H11712   3.108   5.186   8.799 -0.2024 -1.3097 -1.5490
  113OSM      N11713   0.740   2.157  11.226 -0.1354 -0.0699  0.4921
  113OSM    C1511714   0.590   2.163  11.198  0.9385 -0.4425 -0.1376
  113OSM   H15A11715   0.560   2.117  11.105 -1.3938 -2.9647  1.6819
  113OSM   H15B11716   0.552   2.264  11.191 -0.9046 -0.9671  1.4171
  113OSM   H15C11717   0.528   2.116  11.273  0.5129 -0.0015 -0.2132
  113OSM    C1411718   0.773   2.236  11.345 -0.6862 -0.5744 -0.2081
  113OSM   H14A11719   0.879   2.241  11.366 -0.9107  1.7824  0.6322
  113OSM   H14B11720   0.728   2.196  11.434  2.0792 -2.1679  0.5931
  113OSM   H14C11721   0.753   2.342  11.336 -0.4169 -0.1867  2.8007
  113OSM    C1311722   0.790   2.018  11.249  0.0973  0.2268 -0.4617
  113OSM   H13A11723   0.790   2.008  11.356  1.5302 -1.4725 -0.5648
  113OSM   H13B11724   0.884   1.997  11.200 -0.2954 -2.9879 -0.0514
  113OSM   H13C11725   0.731   1.940  11.204 -0.2650  1.1582 -1.6661
  113OSM    C1211726   0.802   2.211  11.100  0.3266 -0.2184 -0.5672
  113OSM   H12A11727   0.908   2.227  11.112  0.0664  0.6493  0.7695
  113OSM   H12B11728   0.749   2.304  11.080 -0.2074  0.0756  1.8673
  113OSM    C1111729   0.781   2.130  10.965 -0.0543  0.1689 -0.1604
  113OSM   H11A11730   0.817   2.025  10.965  3.5523  1.2364  1.7782
  113OSM   H11B11731   0.851   2.183  10.896 -0.3302 -0.0948 -0.6431
  113OSM      P11732   0.589   2.244  10.822 -0.1829  0.1151  0.7164
  113OSM    O1311733   0.469   2.189  10.758 -0.8156 -0.0489 -0.7082
  113OSM    O1411734   0.570   2.371  10.893 -0.4463 -1.0850  0.0691
  113OSM    O1111735   0.694   2.258  10.709  0.5527 -0.9482  0.2225
  113OSM    O1211736   0.647   2.133  10.923 -0.4273 -0.2423  0.4780
  113OSM    C1S11737   0.740   2.166  10.615  0.1330 -0.2350  0.2152
  113OSM    H1S11738   0.668   2.086  10.588  0.7059  0.2172 -3.1034
  113OSM    H1T11739   0.837   2.116  10.635  1.5323  2.9951  2.1585
  113OSM     NF11740   0.792   2.152  10.375 -0.1293  0.1769 -0.6024
  113OSM    HNF11741   0.886   2.131  10.350  0.8471  1.6540  1.4588
  113OSM    C2S11742   0.753   2.249  10.479 -0.4233 -0.2969 -0.2967
  113OSM    H2S11743   0.663   2.304  10.446  1.4471  1.6938 -2.4705
  113OSM    C3S11744   0.872   2.356  10.493  0.1145  1.1753 -0.3875
  113OSM    H3S11745   0.968   2.308  10.522  0.1554 -0.5128 -3.0433
  113OSM     O311746   0.851   2.442  10.602  0.3079  0.0501  0.2877
  113OSM    HO311747   0.797   2.394  10.665  0.0664 -0.4169 -0.2636
  113OSM    C4S11748   0.887   2.431  10.359  0.5130 -0.1144 -0.0349
  113OSM    H4S11749   0.958   2.375  10.297 -0.0996 -1.3231  0.3180
  113OSM    C5S11750   0.827   2.541  10.322 -0.1887 -0.6420  0.6550
  113OSM    H5S11751   0.757   2.586  10.394  0.4381  1.1444  0.2247
  113OSM    C6S11752   0.839   2.605  10.182 -0.0692 -1.1057  0.0130
  113OSM    H6S11753   0.928   2.671  10.192 -1.2968  0.4406  1.0771
  113OSM    H6T11754   0.751   2.664  10.149  0.6742 -0.3598 -0.6734
  113OSM    C7S11755   0.868   2.505  10.070 -1.0766  0.1632  0.0255
  113OSM    H7S11756   0.793   2.424  10.075 -2.4960  1.3765 -0.8167
  113OSM    H7T11757   0.978   2.489  10.074 -0.7435  2.3828  3.2689
  113OSM    C8S11758   0.838   2.573   9.939  0.0534 -0.0014 -0.4206
  113OSM    H8S11759   0.886   2.673   9.939  2.1986 -0.9810 -0.1509
  113OSM    H8T11760   0.730   2.589   9.916  0.0192 -0.8106 -0.8784
  113OSM    C9S11761   0.901   2.492   9.827 -0.2763  0.4277 -0.7903
  113OSM    H9S11762   0.827   2.419   9.788 -0.6794  0.3362  0.1054
  113OSM    H9T11763   0.993   2.442   9.866 -0.6963  1.1585  1.2804
  113OSM   C10S11764   0.952   2.580   9.710 -0.4807 -0.8281  0.0507
  113OSM   H10S11765   1.059   2.564   9.688  0.1548  1.1882  1.3169
  113OSM   H10T11766   0.935   2.684   9.746 -0.4611 -0.9923  0.5357
  113OSM   C11S11767   0.878   2.562   9.570 -0.5842  0.0527  0.1488
  113OSM   H11S11768   0.928   2.616   9.486 -2.8107  0.2055 -1.1860
  113OSM   H11T11769   0.778   2.611   9.577 -1.4960 -1.4152 -1.6406
  113OSM   C12S11770   0.846   2.417   9.533  0.6757 -0.1186 -0.4615
  113OSM   H12S11771   0.769   2.375   9.600  2.0489 -1.3474  0.4031
  113OSM   H12T11772   0.939   2.360   9.552  1.0604 -0.0544 -1.9819
  113OSM   C13S11773   0.794   2.402   9.391 -0.4108 -0.0430  0.2200
  113OSM   H13S11774   0.866   2.453   9.324 -0.4250 -1.0521 -0.5944
  113OSM   H13T11775   0.701   2.462   9.378  0.0205  0.3376 -1.1989
  113OSM   C14S11776   0.797   2.255   9.347  0.6752  0.1326 -0.1759
  113OSM   H14S11777   0.731   2.197   9.414  2.7832 -2.8517 -0.4774
  113OSM   H14T11778   0.899   2.215   9.366  0.8308  1.4088  1.9589
  113OSM   C15S11779   0.747   2.233   9.204 -0.2291 -0.5486  0.1848
  113OSM   H15S11780   0.649   2.286   9.201 -0.1745 -0.3061  1.9299
  113OSM   H15T11781   0.721   2.125   9.201 -1.2962 -0.2985 -0.4255
  113OSM   C16S11782   0.840   2.264   9.089 -0.3535 -1.1758 -0.7638
  113OSM   H16S11783   0.927   2.195   9.085  0.1866 -0.6097  0.6703
  113OSM   H16T11784   0.863   2.371   9.106  0.3836 -1.4519  0.0100
  113OSM   C17S11785   0.771   2.255   8.949 -0.2917  0.4898  1.4495
  113OSM   H17S11786   0.699   2.339   8.938 -0.1878  0.2279 -2.6638
  113OSM   H17T11787   0.719   2.158   8.938 -0.5435  0.7950 -0.2117
  113OSM   C18S11788   0.883   2.260   8.843 -0.3216 -0.1817  0.4856
  113OSM   H18S11789   0.934   2.162   8.833 -0.2093 -0.1869  1.0837
  113OSM   H18T11790   0.963   2.336   8.854  0.1064 -0.6166  0.3842
  113OSM   H18U11791   0.833   2.282   8.746 -0.9454 -0.6867  0.6893
  113OSM    C1F11792   0.697   2.071  10.326  0.1219  0.7270  0.1716
  113OSM     OF11793   0.580   2.103  10.331 -0.5005  0.4792  0.2725
  113OSM    C2F11794   0.741   1.952  10.252 -0.0740  0.0816  0.4478
  113OSM    H2F11795   0.694   1.859  10.292  0.1172 -0.5078 -0.6635
  113OSM    H2G11796   0.852   1.938  10.252  0.2070  1.7343 -2.3795
  113OSM    C3F11797   0.707   1.959  10.103 -0.0553 -0.1009 -0.0037
  113OSM    H3F11798   0.599   1.980  10.094  0.2756  1.2111 -1.1594
  113OSM    H3G11799   0.725   1.862  10.053  1.0611 -0.1209  0.4012
  113OSM    C4F11800   0.781   2.072  10.029  0.3187  0.3814  0.4649
  113OSM    H4F11801   0.890   2.054  10.025 -0.1216 -3.1304  0.8112
  113OSM    H4G11802   0.759   2.163  10.089  0.1296  1.3115 -0.9707
  113OSM    C5F11803   0.729   2.089   9.880  0.3688  0.1925 -0.6105
  113OSM    H5F11804   0.768   2.187   9.846  1.6353 -0.2531 -0.5108
  113OSM    H5G11805   0.618   2.093   9.881  0.2533 -1.3394  1.9513
  113OSM    C6F11806   0.783   1.981   9.783  0.8510 -0.1794 -0.2915
  113OSM    H6F11807   0.719   1.892   9.804 -1.0051  1.5057  1.5668
  113OSM    H6G11808   0.892   1.960   9.789  0.5832 -1.7431 -0.2318
  113OSM    C7F11809   0.744   2.016   9.633  0.5624  0.0395  0.4412
  113OSM    H7F11810   0.792   2.100   9.579  0.3360 -0.2596 -0.2394
  113OSM    H7G11811   0.637   2.039   9.648  0.5905 -0.0890  0.8586
  113OSM    C8F11812   0.766   1.901   9.537  0.3614  0.0606 -0.4907
  113OSM    H8F11813   0.705   1.928   9.448  1.1031  2.2029 -0.4206
  113OSM    H8G11814   0.715   1.813   9.580  0.0835  0.5393  0.1882
  113OSM    C9F11815   0.916   1.870   9.510  0.5682  0.0323  0.2237
  113OSM    H9F11816   0.978   1.839   9.595 -0.2862 -1.3866  0.3533
  113OSM   C10F11817   0.987   1.878   9.393  0.2494  0.4277  0.8855
  113OSM   H10F11818   1.090   1.839   9.394 -0.7158 -2.3677 -0.7161
  113OSM   C11F11819   0.929   1.934   9.272 -0.2119 -0.1768  0.3108
  113OSM   H11F11820   0.986   2.021   9.233  1.1036 -1.3914 -0.5945
  113OSM   H11G11821   0.825   1.963   9.299 -0.6713 -0.1465 -1.3820
  113OSM   C12F11822   0.916   1.836   9.150  0.5696 -0.3713  0.2045
  113OSM   H12F11823   0.860   1.880   9.065 -0.0751  0.5430  1.0714
  113OSM   H12G11824   0.850   1.751   9.178 -2.2900  0.9226 -2.1000
  113OSM   C13F11825   1.051   1.792   9.094 -0.1732 -0.1975  0.2283
  113OSM   H13F11826   1.108   1.726   9.163 -0.8841  0.3063  1.3335
  113OSM   H13G11827   1.113   1.883   9.075 -0.2929  1.1161  4.8773
  113OSM   C14F11828   1.012   1.709   8.968 -0.1589  0.6824  0.7110
  113OSM   H14F11829   1.062   1.758   8.882 -0.7490  0.0600 -0.0039
  113OSM   H14G11830   0.901   1.708   8.956 -0.0413 -0.6003 -0.5734
  113OSM   C15F11831   1.074   1.563   8.961 -0.0022 -0.4891  0.0814
  113OSM   H15F11832   1.039   1.517   9.055  0.5686 -0.2055  0.4393
  113OSM   H15G11833   1.183   1.582   8.972  0.2386 -0.7493 -1.5688
  113OSM   C16F11834   1.033   1.482   8.838 -1.0203  0.1909 -0.0851
  113OSM   H16F11835   0.925   1.455   8.832 -0.7624 -0.9732  0.3866
  113OSM   H16G11836   1.095   1.391   8.833 -3.4690 -1.5771  0.1522
  113OSM   C17F11837   1.085   1.559   8.709 -1.1901  0.6034 -0.5054
  113OSM   H17F11838   1.192   1.577   8.734 -0.3118 -1.7030 -2.2612
  113OSM   H17G11839   1.032   1.657   8.712 -0.4073  1.0860 -1.6890
  113OSM   C18F11840   1.053   1.490   8.579  0.1988 -0.0270  0.0074
  113OSM   H18F11841   1.112   1.398   8.560 -0.1205 -0.3700  0.6674
  113OSM   H18G11842   1.042   1.563   8.496 -2.2011  0.6551  0.8627
  113OSM   H18H11843   0.954   1.441   8.592  0.5190 -0.8719 -0.6265
  114OSM      N11844   1.111   5.115  10.989 -0.1123 -0.3014  0.5650
  114OSM    C1511845   1.009   5.209  11.042 -1.0160 -0.2113 -0.8132
  114OSM   H15A11846   0.936   5.234  10.966 -1.9397  0.0509  0.1235
  114OSM   H15B11847   1.050   5.301  11.079  0.1380 -0.5464 -1.2248
  114OSM   H15C11848   0.956   5.150  11.116  0.1506 -1.1672 -0.7122
  114OSM    C1411849   1.213   5.081  11.095 -0.1722 -0.5607 -0.2178
  114OSM   H14A11850   1.303   5.034  11.058 -1.1672 -1.6410 -1.3684
  114OSM   H14B11851   1.177   5.017  11.175 -0.0742  0.6071  0.7881
  114OSM   H14C11852   1.241   5.174  11.141 -1.3018 -0.0783 -0.4732
  114OSM    C1311853   1.047   4.993  10.934  0.1003  0.2838  0.0568
  114OSM   H13A11854   1.132   4.930  10.912  0.7482  1.3480 -0.5368
  114OSM   H13B11855   0.989   5.011  10.844 -1.8513  0.6454  1.3287
  114OSM   H13C11856   0.985   4.939  11.004  1.3472  1.5591  2.2280
  114OSM    C1211857   1.182   5.172  10.870  0.1061  0.3750 -0.6531
  114OSM   H12A11858   1.108   5.169  10.791 -1.0801 -0.1728  0.4544
  114OSM   H12B11859   1.245   5.087  10.848 -1.4423 -0.1724 -3.6014
  114OSM    C1111860   1.260   5.304  10.879 -0.3550 -0.2166  0.3623
  114OSM   H11A11861   1.197   5.381  10.929 -1.2414 -0.4002 -0.4577
  114OSM   H11B11862   1.268   5.354  10.780 -0.9050  2.4451  1.5689
  114OSM      P11863   1.515   5.240  10.878 -0.3464 -0.0379  0.1897
  114OSM    O1311864   1.587   5.359  10.833 -0.0765 -0.9202 -0.2424
  114OSM    O1411865   1.580   5.150  10.975 -0.4155  0.3735 -0.8198
  114OSM    O1111866   1.464   5.156  10.750 -0.1479  0.5674 -0.4866
  114OSM    O1211867   1.384   5.292  10.948 -0.6366 -0.5277 -0.5280
  114OSM    C1S11868   1.509   5.205  10.626 -0.1109 -0.2060  1.0308
  114OSM    H1S11869   1.619   5.223  10.626  0.5241 -3.4662  0.3836
  114OSM    H1T11870   1.463   5.306  10.616 -2.8387 -1.4421  0.3584
  114OSM     NF11871   1.497   5.201  10.388  0.4254  0.6039 -0.2902
  114OSM    HNF11872   1.417   5.210  10.330 -1.3426 -2.8418  1.3013
  114OSM    C2S11873   1.473   5.121  10.506 -0.1263  0.0374  0.7000
  114OSM    H2S11874   1.547   5.039  10.508 -1.1115 -0.8513  1.5224
  114OSM    C3S11875   1.333   5.056  10.528 -0.3864  0.2889  0.2925
  114OSM    H3S11876   1.263   5.141  10.543  0.0077  1.0703 -1.8455
  114OSM     O311877   1.327   4.965  10.638  0.1769  0.1147  0.5647
  114OSM    HO311878   1.405   4.992  10.686  0.6133  2.5400 -1.3225
  114OSM    C4S11879   1.295   4.984  10.398 -0.2363 -0.0932  0.0684
  114OSM    H4S11880   1.247   5.059  10.333  0.2232 -1.1311 -1.5281
  114OSM    C5S11881   1.288   4.855  10.363 -0.2453  0.2225 -0.2819
  114OSM    H5S11882   1.322   4.785  10.440 -0.0411  0.4597 -0.1565
  114OSM    C6S11883   1.249   4.816  10.219 -0.2342 -0.4221 -0.0529
  114OSM    H6S11884   1.146   4.775  10.211 -1.0510  1.7246 -1.5731
  114OSM    H6T11885   1.326   4.745  10.180 -0.2098  1.1346 -3.1373
  114OSM    C7S11886   1.268   4.920  10.100 -0.2029  0.2080  0.7613
  114OSM    H7S11887   1.372   4.959  10.095  0.6622 -2.0513 -0.0731
  114OSM    H7T11888   1.204   5.009  10.114 -0.9289 -0.1814  0.0226
  114OSM    C8S11889   1.225   4.849   9.969  0.8762  0.1328  0.1588
  114OSM    H8S11890   1.122   4.810   9.985  0.9316 -0.2834 -0.4362
  114OSM    H8T11891   1.292   4.761   9.956  0.4008 -0.3343  0.8504
  114OSM    C9S11892   1.239   4.935   9.845 -0.1098  0.2291 -0.2207
  114OSM    H9S11893   1.347   4.956   9.833 -0.3440  1.5839 -0.1530
  114OSM    H9T11894   1.179   5.026   9.870 -1.5022 -1.1544  1.7674
  114OSM   C10S11895   1.186   4.868   9.715 -0.8000 -0.7858  0.0622
  114OSM   H10S11896   1.076   4.866   9.729 -0.5931 -0.5166  1.9388
  114OSM   H10T11897   1.234   4.767   9.716 -0.4406 -0.6356 -0.8387
  114OSM   C11S11898   1.224   4.952   9.595  0.3285 -0.2040 -0.3795
  114OSM   H11S11899   1.332   4.977   9.601  0.5863 -1.5780  1.7903
  114OSM   H11T11900   1.155   5.039   9.591 -0.7311 -0.9641  0.7107
  114OSM   C12S11901   1.205   4.881   9.457 -0.2910 -0.0172  0.0014
  114OSM   H12S11902   1.097   4.885   9.434 -0.1063  2.5112 -0.6940
  114OSM   H12T11903   1.239   4.775   9.464 -0.9018 -0.3305 -1.5044
  114OSM   C13S11904   1.282   4.944   9.344  0.3919  0.4284 -0.4060
  114OSM   H13S11905   1.384   4.963   9.382 -0.4169  1.0196  1.5993
  114OSM   H13T11906   1.235   5.044   9.332 -0.6810  0.2365  1.7570
  114OSM   C14S11907   1.279   4.868   9.205 -0.2560 -1.0434  0.4904
  114OSM   H14S11908   1.295   4.758   9.212  0.6507 -1.2053 -2.7364
  114OSM   H14T11909   1.367   4.901   9.146 -1.0647  1.2361  0.4636
  114OSM   C15S11910   1.161   4.898   9.112 -0.0965  0.1435 -0.0744
  114OSM   H15S11911   1.145   5.008   9.118  0.4298  0.2845 -1.0350
  114OSM   H15T11912   1.074   4.848   9.159  1.0314 -0.3215  1.6216
  114OSM   C16S11913   1.190   4.847   8.966 -0.6534  0.5941  0.2779
  114OSM   H16S11914   1.263   4.919   8.924 -1.4860  0.9632 -0.5678
  114OSM   H16T11915   1.095   4.851   8.908 -0.9672  0.5510  0.7803
  114OSM   C17S11916   1.246   4.700   8.953 -0.4134  0.0189 -0.6315
  114OSM   H17S11917   1.183   4.623   9.001  0.5011  0.9322  2.2059
  114OSM   H17T11918   1.342   4.700   9.009 -1.1029 -0.0387  0.5690
  114OSM   C18S11919   1.275   4.652   8.808 -0.1127 -0.3908 -0.0300
  114OSM   H18S11920   1.183   4.653   8.747 -0.8877 -0.6154  1.1153
  114OSM   H18T11921   1.319   4.550   8.811  0.6740 -0.3058 -3.8782
  114OSM   H18U11922   1.353   4.716   8.761 -0.0583  0.1572  0.7665
  114OSM    C1F11923   1.612   5.244  10.351 -0.0091 -0.1395 -0.5796
  114OSM     OF11924   1.719   5.203  10.391  0.2970  0.5070 -0.0267
  114OSM    C2F11925   1.620   5.351  10.236 -0.2666  0.5574 -0.2142
  114OSM    H2F11926   1.726   5.384  10.235 -0.3075  0.8173  1.2314
  114OSM    H2G11927   1.548   5.428  10.271 -2.8893 -1.0627 -1.7100
  114OSM    C3F11928   1.573   5.306  10.094  0.7147  0.2682  0.4082
  114OSM    H3F11929   1.569   5.398  10.031  0.8789  0.9015  1.2940
  114OSM    H3G11930   1.470   5.267  10.098  0.4951  0.8957  1.8290
  114OSM    C4F11931   1.664   5.202  10.033  0.3136  0.0095 -0.5199
  114OSM    H4F11932   1.686   5.119  10.103  0.8964 -0.4758 -1.2632
  114OSM    H4G11933   1.765   5.243  10.008  0.8388 -0.2033  1.1312
  114OSM    C5F11934   1.596   5.132   9.911  0.8039  0.0713  0.2392
  114OSM    H5F11935   1.491   5.120   9.943  0.9234  1.1927  1.0943
  114OSM    H5G11936   1.643   5.034   9.887 -1.1529 -0.6493 -0.8584
  114OSM    C6F11937   1.603   5.224   9.787 -0.2669  0.0366  0.7675
  114OSM    H6F11938   1.710   5.249   9.772  0.3569 -1.9405  1.6585
  114OSM    H6G11939   1.545   5.315   9.815 -0.6529  0.7834 -2.0765
  114OSM    C7F11940   1.549   5.153   9.660  0.5827  0.6513 -0.0722
  114OSM    H7F11941   1.439   5.148   9.678  0.2478  3.2486 -0.9481
  114OSM    H7G11942   1.576   5.046   9.667 -1.4596  0.1676  1.2079
  114OSM    C8F11943   1.572   5.221   9.532  0.5126 -0.0663  0.4938
  114OSM    H8F11944   1.548   5.329   9.547 -0.1901 -0.1745  0.1825
  114OSM    H8G11945   1.509   5.197   9.444  0.0396  1.2916  0.4399
  114OSM    C9F11946   1.717   5.217   9.495  0.4893 -0.0286  0.4731
  114OSM    H9F11947   1.784   5.276   9.559  0.4048 -0.2066  0.7267
  114OSM   C10F11948   1.771   5.169   9.386 -0.1690 -0.0718 -0.3185
  114OSM   H10F11949   1.879   5.181   9.373 -0.0351 -1.8441 -1.2320
  114OSM   C11F11950   1.710   5.104   9.267 -0.4934 -0.3844  0.3198
  114OSM   H11F11951   1.609   5.064   9.287  0.2458 -2.7248 -0.3121
  114OSM   H11G11952   1.773   5.020   9.233 -0.3322  0.1449 -0.7347
  114OSM   C12F11953   1.695   5.196   9.139  0.1466  0.4679 -0.5595
  114OSM   H12F11954   1.647   5.130   9.064  0.7123 -0.3904 -0.1891
  114OSM   H12G11955   1.796   5.223   9.103 -0.4167  0.9122 -1.8396
  114OSM   C13F11956   1.604   5.326   9.158 -0.9116  0.2011  0.2854
  114OSM   H13F11957   1.665   5.388   9.227 -0.8202  1.7201 -1.0816
  114OSM   H13G11958   1.508   5.297   9.208 -0.7308 -1.5540 -0.3221
  114OSM   C14F11959   1.565   5.409   9.027 -0.1714 -0.2814 -1.0270
  114OSM   H14F11960   1.653   5.409   8.958  1.0095  1.6829  0.3667
  114OSM   H14G11961   1.530   5.512   9.047  0.2587  0.5812 -4.1626
  114OSM   C15F11962   1.441   5.349   8.964  0.3450 -0.2484 -0.3905
  114OSM   H15F11963   1.361   5.348   9.041 -0.1672  0.2410 -0.9084
  114OSM   H15G11964   1.458   5.247   8.924 -0.0099  0.6686 -3.1326
  114OSM   C16F11965   1.377   5.435   8.846 -0.1743 -0.4674  0.1088
  114OSM   H16F11966   1.444   5.439   8.758  0.0621  2.5777  0.2884
  114OSM   H16G11967   1.370   5.542   8.878  1.4608 -0.6721  1.2910
  114OSM   C17F11968   1.239   5.374   8.811  0.2149  0.1271 -0.1429
  114OSM   H17F11969   1.171   5.378   8.899 -0.1534  0.7425 -0.4465
  114OSM   H17G11970   1.257   5.271   8.773  1.6545 -0.2985  1.5474
  114OSM   C18F11971   1.168   5.464   8.709 -0.6507 -0.2004 -0.8161
  114OSM   H18F11972   1.224   5.470   8.613 -2.8798  1.1003 -2.1288
  114OSM   H18G11973   1.165   5.565   8.756 -0.9446 -0.2613 -0.7049
  114OSM   H18H11974   1.064   5.433   8.686 -0.6381 -0.6348 -0.2968
  115OSM      N11975   4.777   3.992  11.160 -0.5197 -0.0820  0.9924
  115OSM    C1511976   4.881   4.068  11.234 -0.9864 -0.1703 -0.4830
  115OSM   H15A11977   4.965   4.009  11.269  0.3658  1.9739  0.0800
  115OSM   H15B11978   4.843   4.124  11.318  0.2457 -0.8603  0.5800
  115OSM   H15C11979   4.919   4.153  11.179  0.8442  0.5312  1.7079
  115OSM    C1411980   4.712   3.902  11.257 -0.6567  0.7952  0.1185
  115OSM   H14A11981   4.670   3.964  11.335 -0.1732 -0.3761  1.3300
  115OSM   H14B11982   4.789   3.839  11.297 -1.3148 -0.2040 -0.1411
  115OSM   H14C11983   4.637   3.841  11.208  1.7594 -1.0505 -1.5420
  115OSM    C1311984   4.669   4.098  11.120 -0.0017 -0.2950  0.0715
  115OSM   H13A11985   4.577   4.051  11.089 -0.6949  0.3168  1.1622
  115OSM   H13B11986   4.694   4.177  11.050  0.0323 -0.5775 -0.2372
  115OSM   H13C11987   4.641   4.151  11.210 -2.1202  1.4199 -1.4866
  115OSM    C1211988   4.836   3.913  11.046 -0.0540 -0.4304  0.4586
  115OSM   H12A11989   4.760   3.843  11.016  0.5396 -1.0102  0.2930
  115OSM   H12B11990   4.923   3.861  11.084  1.5273  1.3690 -0.4607
  115OSM    C1111991   4.887   3.989  10.918 -0.2026 -0.2087 -0.6364
  115OSM   H11A11992   4.796   4.040  10.879 -0.3743 -0.0941 -0.0943
  115OSM   H11B11993   4.917   3.914  10.841 -0.2489  0.4544 -1.3125
  115OSM      P11994   5.135   4.055  10.948  0.1019 -0.3677 -0.1216
  115OSM    O1311995   5.205   4.183  10.924  0.0872  0.9877 -0.3096
  115OSM    O1411996   5.171   3.984  11.070  0.0715  0.2833 -0.5802
  115OSM    O1111997   5.154   3.960  10.823 -0.3690 -0.1764  0.2532
  115OSM    O1211998   4.980   4.092  10.949  0.5510  0.1140 -0.2722
  115OSM    C1S11999   5.172   4.021  10.692  0.1238 -0.0786 -0.1517
  115OSM    H1S12000   5.243   4.106  10.692  0.2910 -0.1858 -1.5923
  115OSM    H1T12001   5.072   4.057  10.659 -0.6548  0.1917  2.3338
  115OSM     NF12002   5.208   3.990  10.443 -0.9413  0.3056 -0.1126
  115OSM    HNF12003   5.119   3.988  10.397 -0.4337  0.2125 -1.1108
  115OSM    C2S12004   5.216   3.922  10.577 -0.2168 -0.7536 -0.5550
  115OSM    H2S12005   5.318   3.880  10.584  0.1143  0.0719 -0.3014
  115OSM    C3S12006   5.117   3.798  10.583 -0.2253  0.0456  0.2447
  115OSM    H3S12007   5.013   3.831  10.563 -0.4464 -1.9573 -2.5283
  115OSM     O312008   5.139   3.725  10.702  0.2392 -0.1056  0.0588
  115OSM    HO312009   5.187   3.786  10.758 -0.9667  0.4039  0.5833
  115OSM    C4S12010   5.140   3.704  10.463 -0.7112 -0.8318  0.3896
  115OSM    H4S12011   5.074   3.740  10.384 -0.0325 -1.5968 -0.5499
  115OSM    C5S12012   5.217   3.599  10.452 -0.4866  0.1231  0.3642
  115OSM    H5S12013   5.260   3.552  10.542 -0.1492 -0.4687 -0.0932
  115OSM    C6S12014   5.243   3.524  10.331  0.1513 -0.3695 -0.1247
  115OSM    H6S12015   5.144   3.479  10.305 -0.3784  1.8828 -2.4480
  115OSM    H6T12016   5.318   3.443  10.347 -0.5784 -0.9921  0.2407
  115OSM    C7S12017   5.294   3.591  10.198  0.3282  0.5686  0.0042
  115OSM    H7S12018   5.390   3.642  10.219  0.2593  0.2209  1.2595
  115OSM    H7T12019   5.226   3.679  10.186 -1.0899 -0.5605 -0.4995
  115OSM    C8S12020   5.300   3.496  10.075 -0.2703  0.2939 -0.0115
  115OSM    H8S12021   5.215   3.424  10.071  0.3199 -0.4404  0.4788
  115OSM    H8T12022   5.387   3.427  10.086  0.8197  1.6356  0.0513
  115OSM    C9S12023   5.299   3.567   9.938 -0.0548  0.1199 -0.4885
  115OSM    H9S12024   5.392   3.628   9.935  1.7045 -2.4434 -0.9334
  115OSM    H9T12025   5.207   3.629   9.936 -0.0806  0.0936 -0.1206
  115OSM   C10S12026   5.303   3.479   9.812  0.3513 -0.4903  0.2647
  115OSM   H10S12027   5.197   3.445   9.815 -0.3436  1.4873 -0.2871
  115OSM   H10T12028   5.369   3.390   9.817  0.5271 -0.3467  0.5213
  115OSM   C11S12029   5.324   3.555   9.677  0.1910  0.5442  0.9547
  115OSM   H11S12030   5.427   3.596   9.667 -0.3834  1.5201 -1.7304
  115OSM   H11T12031   5.253   3.641   9.674  0.6951  0.9361 -0.7883
  115OSM   C12S12032   5.299   3.464   9.554 -0.3202 -0.3472 -0.5012
  115OSM   H12S12033   5.189   3.456   9.539 -1.1309  5.2740  0.5235
  115OSM   H12T12034   5.346   3.363   9.561  1.6589  0.6495  2.4772
  115OSM   C13S12035   5.342   3.535   9.423 -0.7125  0.0049 -0.5614
  115OSM   H13S12036   5.451   3.554   9.424 -0.4288 -1.4481 -1.7756
  115OSM   H13T12037   5.287   3.632   9.427 -0.2072  0.3049 -0.9483
  115OSM   C14S12038   5.308   3.455   9.304  0.0488 -0.0805 -0.3925
  115OSM   H14S12039   5.197   3.461   9.306 -0.0758 -1.7356  1.8692
  115OSM   H14T12040   5.334   3.347   9.300 -0.7920 -0.3172  0.1723
  115OSM   C15S12041   5.356   3.521   9.169 -0.2781 -0.7254 -0.9161
  115OSM   H15S12042   5.467   3.516   9.172 -0.2236  0.3911 -0.9116
  115OSM   H15T12043   5.336   3.630   9.163 -2.1893 -0.8160  1.9269
  115OSM   C16S12044   5.307   3.447   9.043 -0.3349  0.1731 -0.9462
  115OSM   H16S12045   5.289   3.340   9.067  0.9739  0.2580  0.5218
  115OSM   H16T12046   5.387   3.451   8.965  0.8304 -0.8914  0.1558
  115OSM   C17S12047   5.179   3.510   8.989 -0.1998 -0.7508 -0.1590
  115OSM   H17S12048   5.191   3.620   8.984 -1.1557 -0.6693 -0.9689
  115OSM   H17T12049   5.099   3.486   9.062  0.4404 -0.7970  0.5344
  115OSM   C18S12050   5.139   3.450   8.851 -0.3233  0.5311 -0.2220
  115OSM   H18S12051   5.053   3.505   8.806 -1.2239 -1.0178 -0.4430
  115OSM   H18T12052   5.120   3.344   8.877  2.5886  0.4711  2.2887
  115OSM   H18U12053   5.226   3.452   8.783  0.5586 -2.1350  0.7029
  115OSM    C1F12054   5.294   4.086  10.399  0.1693 -0.5239  0.8258
  115OSM     OF12055   5.392   4.128  10.467  0.7888  0.1508  0.5502
  115OSM    C2F12056   5.254   4.147  10.263  0.2025  0.5182  0.2241
  115OSM    H2F12057   5.289   4.250  10.240  1.1565  0.2939  0.6392
  115OSM    H2G12058   5.143   4.157  10.257  0.2261  1.0355  0.5718
  115OSM    C3F12059   5.302   4.058  10.149  1.1161 -0.2668  0.0407
  115OSM    H3F12060   5.285   3.951  10.174  1.6042 -0.1415  0.9755
  115OSM    H3G12061   5.413   4.053  10.142  1.1979 -2.8093  1.6275
  115OSM    C4F12062   5.247   4.092  10.004  0.3872  0.7947 -0.7981
  115OSM    H4F12063   5.244   4.203   9.998 -3.2225  0.7503 -3.3879
  115OSM    H4G12064   5.138   4.071  10.006  0.9260 -3.0078 -2.6450
  115OSM    C5F12065   5.310   4.018   9.892  0.0813  0.3390  0.1087
  115OSM    H5F12066   5.304   3.910   9.917 -3.9655  0.4126 -0.0094
  115OSM    H5G12067   5.417   4.041   9.869 -0.0711  0.4012 -0.5549
  115OSM    C6F12068   5.232   4.021   9.761  0.1651 -0.2572  0.8333
  115OSM    H6F12069   5.242   4.128   9.733  1.6722 -0.8019 -0.9113
  115OSM    H6G12070   5.124   3.998   9.770 -1.1370  3.1644 -2.7667
  115OSM    C7F12071   5.298   3.934   9.655 -1.0249  0.1014  0.2455
  115OSM    H7F12072   5.305   3.829   9.692  0.2016 -0.6037 -1.8215
  115OSM    H7G12073   5.401   3.971   9.638 -0.6721 -0.1805  1.6845
  115OSM    C8F12074   5.227   3.940   9.515  0.1779  0.5309  0.3050
  115OSM    H8F12075   5.120   3.910   9.516  0.3533 -0.4948 -2.7014
  115OSM    H8G12076   5.287   3.861   9.466  0.8338  0.6029  0.9644
  115OSM    C9F12077   5.235   4.074   9.447  0.0300  0.6317 -0.3572
  115OSM    H9F12078   5.238   4.158   9.518 -1.1689 -0.1304  0.6376
  115OSM   C10F12079   5.230   4.092   9.319  0.0680 -0.0309  0.1591
  115OSM   H10F12080   5.249   4.191   9.275  1.1305 -0.5079 -0.4980
  115OSM   C11F12081   5.215   3.992   9.209 -0.1926  0.2849  0.2872
  115OSM   H11F12082   5.114   3.993   9.163  1.0022 -0.1708 -2.5599
  115OSM   H11G12083   5.211   3.887   9.245 -0.4756 -0.4730 -1.8305
  115OSM   C12F12084   5.323   4.002   9.100  0.1074 -0.2787  0.3536
  115OSM   H12F12085   5.312   3.915   9.032 -1.4810  0.3144 -0.2067
  115OSM   H12G12086   5.423   3.984   9.144  1.1067  3.4366 -0.1110
  115OSM   C13F12087   5.323   4.134   9.017 -0.6670  0.0759 -0.5783
  115OSM   H13F12088   5.340   4.223   9.082  0.9888  1.5082 -2.8211
  115OSM   H13G12089   5.218   4.149   8.985 -1.4115 -2.9054  0.1449
  115OSM   C14F12090   5.425   4.134   8.896  0.6731 -0.0392 -0.3876
  115OSM   H14F12091   5.389   4.050   8.833  0.7422 -0.6479  0.3829
  115OSM   H14G12092   5.528   4.093   8.906  1.7885  1.2363 -4.5002
  115OSM   C15F12093   5.420   4.264   8.814 -0.5064 -0.5242 -0.2106
  115OSM   H15F12094   5.441   4.360   8.868  0.5149  1.7782 -4.2396
  115OSM   H15G12095   5.319   4.268   8.770 -1.0255 -2.1863  0.7572
  115OSM   C16F12096   5.507   4.255   8.687 -0.9875  0.1541  0.0506
  115OSM   H16F12097   5.481   4.165   8.627 -0.8388  0.8979 -1.1727
  115OSM   H16G12098   5.611   4.254   8.725 -1.1227 -1.7708  0.4547
  115OSM   C17F12099   5.501   4.372   8.592  0.8143 -0.7865 -0.5643
  115OSM   H17F12100   5.519   4.470   8.640 -2.1960  0.3248 -1.4478
  115OSM   H17G12101   5.394   4.371   8.559  1.3606  1.5629 -2.7235
  115OSM   C18F12102   5.580   4.353   8.463  0.5322 -0.3164  0.2296
  115OSM   H18F12103   5.521   4.289   8.393 -2.0805  1.4634  0.6880
  115OSM   H18G12104   5.680   4.305   8.479  0.4607 -0.5590 -0.0347
  115OSM   H18H12105   5.606   4.444   8.405 -0.6028 -0.2326 -0.1724
  116OSM      N12106   4.990   0.072  10.972  0.1776 -0.1987  0.1256
  116OSM    C1512107   5.114   0.139  11.015 -1.0021 -0.0481  0.1386
  116OSM   H15A12108   5.113   0.195  11.107  0.7617 -1.5686  1.1489
  116OSM   H15B12109   5.144   0.196  10.928 -0.2000 -2.4694 -1.2738
  116OSM   H15C12110   5.183   0.056  11.024 -0.7965  0.2080  1.0471
  116OSM    C1412111   4.934  -0.026  11.072  0.7143  0.3610  0.1085
  116OSM   H14A12112   4.840  -0.067  11.039  0.6999 -1.0354  1.7093
  116OSM   H14B12113   4.914   0.009  11.172  1.2146 -1.4158  0.8671
  116OSM   H14C12114   4.999  -0.111  11.088 -0.3276 -0.4121  0.3439
  116OSM    C1312115   4.891   0.179  10.957 -0.0363 -0.7720  0.3139
  116OSM   H13A12116   4.930   0.259  10.897  1.7764  0.2681  2.7154
  116OSM   H13B12117   4.867   0.215  11.056 -0.4309 -1.1518  0.3624
  116OSM   H13C12118   4.797   0.146  10.914  1.3952 -0.5377 -3.3918
  116OSM    C1212119   5.000   0.009  10.839  0.2627 -0.4083 -0.1685
  116OSM   H12A12120   5.060  -0.081  10.847 -1.4223 -1.4798  1.1599
  116OSM   H12B12121   5.058   0.071  10.772  1.9308  0.1813  1.7389
  116OSM    C1112122   4.873  -0.029  10.758  0.8619  0.2251 -0.3147
  116OSM   H11A12123   4.908  -0.080  10.666  0.8484 -0.3597 -0.0011
  116OSM   H11B12124   4.844   0.072  10.723 -0.7698 -0.1492 -0.1404
  116OSM      P12125   4.627  -0.050  10.849  0.0560 -0.3255 -0.2592
  116OSM    O1312126   4.534  -0.166  10.851 -0.2796  0.0006 -0.0977
  116OSM    O1412127   4.609   0.046  10.959  0.2291 -0.2113 -0.5055
  116OSM    O1112128   4.599   0.026  10.715 -0.1055  0.5232  0.1809
  116OSM    O1212129   4.776  -0.100  10.843 -0.1813  0.5375 -0.0982
  116OSM    C1S12130   4.606  -0.033  10.588  0.3828  0.0924 -0.7602
  116OSM    H1S12131   4.691  -0.104  10.583  1.1653  0.9363  0.0931
  116OSM    H1T12132   4.634   0.046  10.515  2.0067 -1.0514 -1.4402
  116OSM     NF12133   4.513  -0.161  10.394  0.0614 -0.2490  0.2956
  116OSM    HNF12134   4.482  -0.111  10.313 -2.5111 -2.4610 -0.2229
  116OSM    C2S12135   4.479  -0.097  10.519  0.4770  0.0814  0.4571
  116OSM    H2S12136   4.438  -0.179  10.582  2.3726 -0.3331  1.2079
  116OSM    C3S12137   4.376   0.021  10.508 -0.2965  0.7545  0.0858
  116OSM    H3S12138   4.425   0.099  10.446 -1.1521  2.0677  0.9911
  116OSM     O312139   4.358   0.103  10.631 -0.2276  0.0511  0.4704
  116OSM    HO312140   4.428   0.065  10.685 -0.2954  1.9916  2.0422
  116OSM    C4S12141   4.253  -0.029  10.438 -0.7498  0.7967  0.3770
  116OSM    H4S12142   4.260  -0.031  10.328 -1.3810 -1.7118  0.3340
  116OSM    C5S12143   4.133  -0.077  10.488 -0.4711 -0.5750 -0.4186
  116OSM    H5S12144   4.118  -0.069  10.596 -0.9359  3.2952 -0.6208
  116OSM    C6S12145   4.020  -0.123  10.396  0.1727 -0.4115 -0.3052
  116OSM    H6S12146   3.954  -0.033  10.393  1.0185  0.2073 -0.6486
  116OSM    H6T12147   3.967  -0.198  10.457  0.7943 -0.3003  0.3850
  116OSM    C7S12148   4.049  -0.175  10.244  0.4347  0.1906 -0.9199
  116OSM    H7S12149   4.118  -0.261  10.255  1.3797  0.8357 -1.7175
  116OSM    H7T12150   4.091  -0.093  10.181  0.6911 -0.3818 -1.5053
  116OSM    C8S12151   3.919  -0.220  10.173  0.0526 -0.4562  1.1630
  116OSM    H8S12152   3.957  -0.249  10.072 -0.8385 -1.8104  1.1827
  116OSM    H8T12153   3.850  -0.136  10.151 -1.4223 -1.2405  2.6185
  116OSM    C9S12154   3.837  -0.328  10.239 -0.3553 -0.0066  0.0359
  116OSM    H9S12155   3.755  -0.275  10.293 -0.1398  0.3855 -0.0138
  116OSM    H9T12156   3.899  -0.384  10.312  0.5426  0.1734 -0.5791
  116OSM   C10S12157   3.767  -0.426  10.139  0.4208 -0.1481 -0.3174
  116OSM   H10S12158   3.693  -0.490  10.191  0.7351  0.9027  1.5380
  116OSM   H10T12159   3.847  -0.484  10.088  0.1826 -1.5913  0.8982
  116OSM   C11S12160   3.690  -0.344  10.031  0.0943  0.0839  0.8448
  116OSM   H11S12161   3.740  -0.250   9.998 -1.1480 -0.0107 -1.5523
  116OSM   H11T12162   3.602  -0.301  10.082  1.9483  1.6377  2.9203
  116OSM   C12S12163   3.664  -0.422   9.904 -0.2126 -0.4826  0.7634
  116OSM   H12S12164   3.573  -0.384   9.852  0.3148  0.2408  0.3482
  116OSM   H12T12165   3.648  -0.529   9.928 -1.7259 -0.0957  1.5907
  116OSM   C13S12166   3.778  -0.412   9.801 -0.3622  0.3265  1.6002
  116OSM   H13S12167   3.857  -0.467   9.857  0.7502  1.9337  1.6793
  116OSM   H13T12168   3.818  -0.312   9.773 -3.1022  1.0427 -0.0940
  116OSM   C14S12169   3.750  -0.488   9.666  0.4615 -0.2092 -0.7148
  116OSM   H14S12170   3.681  -0.429   9.602  1.5904  3.0131  0.8228
  116OSM   H14T12171   3.699  -0.580   9.702 -1.1253  0.2048 -1.8032
  116OSM   C15S12172   3.876  -0.519   9.588  0.1851 -0.3202 -0.3376
  116OSM   H15S12173   3.953  -0.568   9.650  0.5375  1.6759  0.8745
  116OSM   H15T12174   3.924  -0.422   9.564 -1.6449  0.7995  0.3418
  116OSM   C16S12175   3.847  -0.589   9.446  0.6092  0.2259  0.6634
  116OSM   H16S12176   3.936  -0.579   9.379 -0.8285  1.2743 -1.1954
  116OSM   H16T12177   3.761  -0.540   9.396 -1.3583 -3.4974  0.0389
  116OSM   C17S12178   3.808  -0.741   9.451  0.3371 -0.1405  0.5748
  116OSM   H17S12179   3.799  -0.776   9.346  1.7874 -2.1997  1.0857
  116OSM   H17T12180   3.715  -0.773   9.504 -0.1304 -0.8345 -0.6103
  116OSM   C18S12181   3.922  -0.823   9.515 -0.1299 -0.0317  0.2833
  116OSM   H18S12182   3.903  -0.930   9.491  2.7698 -0.6134  0.1780
  116OSM   H18T12183   3.922  -0.811   9.626  0.6223 -1.2696  0.4262
  116OSM   H18U12184   4.018  -0.788   9.472 -0.2361 -0.0950 -0.0096
  116OSM    C1F12185   4.584  -0.273  10.378  0.4476  0.1849  0.0921
  116OSM     OF12186   4.632  -0.340  10.472 -0.5354 -0.0543 -0.5416
  116OSM    C2F12187   4.605  -0.315  10.235 -0.1997  0.5196 -0.7084
  116OSM    H2F12188   4.686  -0.256  10.187  3.2139 -2.0151  1.3990
  116OSM    H2G12189   4.511  -0.291  10.182 -1.8505  2.3384  2.7664
  116OSM    C3F12190   4.642  -0.461  10.222  0.3273  0.0913  0.1681
  116OSM    H3F12191   4.585  -0.525  10.292 -0.1297 -0.7581 -0.9373
  116OSM    H3G12192   4.750  -0.468  10.249  0.1811  1.2646  1.1580
  116OSM    C4F12193   4.607  -0.513  10.084  0.5587  0.0924  0.2481
  116OSM    H4F12194   4.500  -0.490  10.063 -0.1087 -0.9153  2.2021
  116OSM    H4G12195   4.599  -0.624  10.090 -1.4458 -0.1128 -3.2734
  116OSM    C5F12196   4.709  -0.483   9.972  1.2782  0.0169 -0.2168
  116OSM    H5F12197   4.815  -0.492  10.004  1.6927  2.6380 -0.6417
  116OSM    H5G12198   4.687  -0.384   9.927 -0.5463 -1.3865 -2.6154
  116OSM    C6F12199   4.681  -0.582   9.857 -0.2061 -0.0851 -0.1161
  116OSM    H6F12200   4.574  -0.595   9.832  0.3195 -0.2629 -2.5149
  116OSM    H6G12201   4.713  -0.681   9.894  0.4014  0.1508  0.0117
  116OSM    C7F12202   4.753  -0.531   9.732  0.0569  0.2181  0.4939
  116OSM    H7F12203   4.863  -0.532   9.752  0.3909 -2.1400 -0.9825
  116OSM    H7G12204   4.706  -0.433   9.715 -3.1595 -0.9719  1.7553
  116OSM    C8F12205   4.729  -0.609   9.601 -0.1186  0.2634 -0.1923
  116OSM    H8F12206   4.777  -0.555   9.516  0.8874 -1.7793 -1.0073
  116OSM    H8G12207   4.619  -0.593   9.594 -0.0699  3.1425  3.3400
  116OSM    C9F12208   4.764  -0.759   9.590 -0.2897 -0.1197 -0.0271
  116OSM    H9F12209   4.764  -0.810   9.688 -1.3982  1.0339  0.6033
  116OSM   C10F12210   4.780  -0.819   9.469  0.4630  0.2496 -0.3062
  116OSM   H10F12211   4.797  -0.928   9.466  0.2452  0.1916  0.4415
  116OSM   C11F12212   4.773  -0.759   9.334  0.8134  0.5046  0.2806
  116OSM   H11F12213   4.679  -0.700   9.323  1.0902  0.8147 -0.4517
  116OSM   H11G12214   4.755  -0.840   9.260 -1.3894 -0.1410  1.4320
  116OSM   C12F12215   4.899  -0.680   9.286  0.2737 -0.5242  0.3967
  116OSM   H12F12216   4.985  -0.751   9.289  0.4449 -0.4149 -1.1502
  116OSM   H12G12217   4.925  -0.597   9.355 -1.5635 -0.4531  1.0572
  116OSM   C13F12218   4.883  -0.609   9.153  0.1456  0.2465 -0.0791
  116OSM   H13F12219   4.953  -0.523   9.158  1.6621 -0.9488 -0.0539
  116OSM   H13G12220   4.780  -0.569   9.144 -0.0614 -0.6250 -2.1101
  116OSM   C14F12221   4.937  -0.694   9.032  0.4673 -0.7472 -0.6389
  116OSM   H14F12222   4.861  -0.764   8.992  0.4715 -0.8209 -0.5161
  116OSM   H14G12223   5.031  -0.748   9.055  0.0520 -1.3200 -0.2856
  116OSM   C15F12224   4.978  -0.605   8.911 -0.1909  0.3694  0.4330
  116OSM   H15F12225   5.063  -0.543   8.947  0.5331 -0.6997  0.5901
  116OSM   H15G12226   4.886  -0.554   8.874 -0.3197 -0.1836 -0.0267
  116OSM   C16F12227   5.029  -0.686   8.787 -0.1237  0.1191  0.4505
  116OSM   H16F12228   4.967  -0.775   8.763  1.4677 -0.5773 -1.2983
  116OSM   H16G12229   5.129  -0.729   8.812 -0.0114 -0.3871 -0.8222
  116OSM   C17F12230   5.047  -0.603   8.654  0.6424 -0.0014 -0.9230
  116OSM   H17F12231   4.948  -0.555   8.639  0.0139  0.1190  2.6700
  116OSM   H17G12232   5.055  -0.677   8.571 -1.6325 -0.8352 -0.4536
  116OSM   C18F12233   5.160  -0.501   8.666  1.1917 -0.0882  0.0732
  116OSM   H18F12234   5.258  -0.553   8.661  1.0442 -0.3424 -0.1827
  116OSM   H18G12235   5.150  -0.445   8.761  0.6524 -4.4808  2.8502
  116OSM   H18H12236   5.164  -0.435   8.576 -1.2133 -1.9500 -1.5153
  117OSM      N12237   1.690   0.925  11.016  1.1322  0.7496 -0.1055
  117OSM    C1512238   1.834   0.929  11.053  0.2939 -0.4139 -0.1608
  117OSM   H15A12239   1.875   1.027  11.037  3.0354 -1.6174 -1.2588
  117OSM   H15B12240   1.897   0.873  10.986  1.6014  2.1629 -1.2174
  117OSM   H15C12241   1.860   0.907  11.156  1.3450  0.9326 -0.1196
  117OSM    C1412242   1.657   0.776  11.030 -0.0320  0.1411  0.0073
  117OSM   H14A12243   1.670   0.748  11.133  1.7080  1.4729  0.2050
  117OSM   H14B12244   1.727   0.719  10.971  1.2457  0.9454  0.7012
  117OSM   H14C12245   1.555   0.757  10.999 -0.6373 -0.3942  2.1933
  117OSM    C1312246   1.615   1.013  11.119  0.4956 -0.2588  0.1968
  117OSM   H13A12247   1.511   1.021  11.090  0.5070  3.5967  0.6565
  117OSM   H13B12248   1.672   1.105  11.120 -1.6603  1.1846  1.8819
  117OSM   H13C12249   1.627   0.981  11.222 -1.2167 -0.0749  0.4890
  117OSM    C1212250   1.652   0.967  10.874 -0.5511 -0.4235  0.1738
  117OSM   H12A12251   1.714   0.915  10.803 -0.7014 -0.8630  0.3633
  117OSM   H12B12252   1.677   1.072  10.866  3.2588 -1.3084 -1.3605
  117OSM    C1112253   1.502   0.941  10.827 -0.4816  0.6085 -0.1546
  117OSM   H11A12254   1.491   1.009  10.740  1.0270 -0.5050 -1.2966
  117OSM   H11B12255   1.429   0.980  10.900 -1.8508  1.9474 -2.1291
  117OSM      P12256   1.393   0.774  10.664 -0.0208  0.0532 -0.0843
  117OSM    O1312257   1.395   0.629  10.637 -0.0573  0.2492  0.2209
  117OSM    O1412258   1.257   0.841  10.671  0.0912  0.0072 -0.3448
  117OSM    O1112259   1.477   0.852  10.548 -0.4009  0.3180  0.3359
  117OSM    O1212260   1.479   0.802  10.791 -0.4295  0.1427  0.0714
  117OSM    C1S12261   1.608   0.811  10.511  0.3099 -0.1427  1.0817
  117OSM    H1S12262   1.615   0.701  10.521 -0.7244 -0.3958 -0.5724
  117OSM    H1T12263   1.678   0.874  10.570 -2.3073  2.1014  2.0528
  117OSM     NF12264   1.741   0.757  10.308 -0.5763 -0.4903 -0.2544
  117OSM    HNF12265   1.816   0.814  10.277 -1.1211  0.3859 -0.0175
  117OSM    C2S12266   1.632   0.837  10.359 -0.2849  0.1933  0.7538
  117OSM    H2S12267   1.545   0.804  10.299  0.4677 -1.2498  0.3968
  117OSM    C3S12268   1.655   0.989  10.331  0.5550  0.4845  0.4301
  117OSM    H3S12269   1.747   1.019  10.386  0.2104  0.1506  1.1965
  117OSM     O312270   1.547   1.067  10.391  0.2365  0.2537  0.0500
  117OSM    HO312271   1.541   1.029  10.479  0.1973 -0.9982 -0.4702
  117OSM    C4S12272   1.662   1.024  10.183  0.3382 -0.6582 -0.5918
  117OSM    H4S12273   1.764   1.014  10.145  0.6385  0.7296 -0.2047
  117OSM    C5S12274   1.564   1.083  10.108  0.4342  0.0848 -0.2609
  117OSM    H5S12275   1.469   1.105  10.158 -0.9306 -0.4808 -2.4850
  117OSM    C6S12276   1.567   1.128   9.964 -0.2759  0.1727  0.1237
  117OSM    H6S12277   1.566   1.239   9.962  0.8077  0.1871 -1.0906
  117OSM    H6T12278   1.470   1.110   9.914 -1.2899  4.0235  0.3610
  117OSM    C7S12279   1.690   1.083   9.877  0.2208  0.0918  0.4825
  117OSM    H7S12280   1.669   0.979   9.845 -1.2014  1.1215 -2.1829
  117OSM    H7T12281   1.784   1.099   9.934 -0.5224  0.9187  1.5084
  117OSM    C8S12282   1.720   1.162   9.748 -0.1954  0.5342 -0.4794
  117OSM    H8S12283   1.749   1.267   9.767  1.4440 -0.3315  2.4133
  117OSM    H8T12284   1.628   1.149   9.687  0.6878 -2.2963 -1.3819
  117OSM    C9S12285   1.816   1.082   9.651 -0.4051 -1.0072  0.2906
  117OSM    H9S12286   1.775   0.979   9.659  0.8642 -1.6677 -1.1593
  117OSM    H9T12287   1.925   1.079   9.672 -0.6328 -0.8941  1.5464
  117OSM   C10S12288   1.814   1.114   9.498  0.0866  0.1574 -0.6518
  117OSM   H10S12289   1.850   1.216   9.473  0.9481  0.3560  1.2477
  117OSM   H10T12290   1.709   1.116   9.463 -0.3557  1.2944  0.6473
  117OSM   C11S12291   1.889   1.015   9.407 -0.3040 -0.0935  0.1937
  117OSM   H11S12292   1.853   1.032   9.303 -0.9628 -0.5562  0.3392
  117OSM   H11T12293   1.857   0.910   9.426  1.4991 -0.5281  1.0426
  117OSM   C12S12294   2.043   1.031   9.400 -0.5207 -0.2471  0.1066
  117OSM   H12S12295   2.076   1.013   9.505  0.4457 -1.4147 -0.3781
  117OSM   H12T12296   2.075   1.133   9.372 -0.5369 -0.2531  0.0666
  117OSM   C13S12297   2.102   0.930   9.295 -0.2533  0.2603 -1.1409
  117OSM   H13S12298   2.114   0.992   9.205 -0.6633 -2.0418 -2.8806
  117OSM   H13T12299   2.021   0.858   9.269 -0.2881 -0.0947 -0.1203
  117OSM   C14S12300   2.220   0.844   9.344  0.0589 -0.4135  0.1004
  117OSM   H14S12301   2.175   0.797   9.434  0.3766 -1.0555 -0.0782
  117OSM   H14T12302   2.306   0.908   9.375  0.1837  0.1288 -1.2941
  117OSM   C15S12303   2.256   0.733   9.245  0.0774 -0.2012 -0.1421
  117OSM   H15S12304   2.171   0.663   9.233 -1.0662  0.9399  0.9447
  117OSM   H15T12305   2.354   0.692   9.276 -1.1282 -3.0460  0.1919
  117OSM   C16S12306   2.275   0.772   9.097 -1.0249  0.4048 -0.3655
  117OSM   H16S12307   2.190   0.836   9.065 -1.2467  0.2353 -0.1201
  117OSM   H16T12308   2.273   0.675   9.043 -1.5641 -0.0487  0.4522
  117OSM   C17S12309   2.405   0.853   9.065  0.9204 -0.1038  0.1055
  117OSM   H17S12310   2.495   0.806   9.111  0.6979 -2.7873 -1.9487
  117OSM   H17T12311   2.376   0.947   9.116 -1.6821 -0.8853  0.1841
  117OSM   C18S12312   2.427   0.859   8.916 -0.6732  0.0407  0.1137
  117OSM   H18S12313   2.441   0.759   8.871 -0.2219  0.2219 -0.1553
  117OSM   H18T12314   2.500   0.935   8.879 -1.4090 -0.2525 -2.1203
  117OSM   H18U12315   2.334   0.905   8.876 -0.0987  0.8369 -0.3504
  117OSM    C1F12316   1.746   0.628  10.301 -0.2675 -0.5438  0.3103
  117OSM     OF12317   1.660   0.558  10.357 -1.0017 -0.0741 -0.0319
  117OSM    C2F12318   1.857   0.573  10.222  0.4657 -0.0818 -0.2730
  117OSM    H2F12319   1.896   0.477  10.263  0.1614  0.7603  2.0983
  117OSM    H2G12320   1.943   0.643  10.216  1.3564 -1.0209  0.9857
  117OSM    C3F12321   1.807   0.547  10.078  0.1816  0.1627  0.0067
  117OSM    H3F12322   1.749   0.452  10.080 -1.4224  0.9775 -2.2992
  117OSM    H3G12323   1.892   0.532  10.008  0.7957 -0.5649  0.8919
  117OSM    C4F12324   1.729   0.662  10.006  0.0193  0.0365 -0.1017
  117OSM    H4F12325   1.780   0.757  10.036 -1.2726  0.7733 -0.1795
  117OSM    H4G12326   1.625   0.669  10.044 -0.4974 -2.0209 -1.0199
  117OSM    C5F12327   1.731   0.643   9.853  0.1093  0.5279  0.1247
  117OSM    H5F12328   1.666   0.728   9.824 -1.2794 -0.1962  1.0395
  117OSM    H5G12329   1.681   0.551   9.817 -0.7150  2.1789 -3.3761
  117OSM    C6F12330   1.858   0.663   9.787 -0.7616  0.5022  0.5247
  117OSM    H6F12331   1.923   0.579   9.820 -0.2497  0.2032 -1.1089
  117OSM    H6G12332   1.924   0.751   9.801  1.6827 -0.7131 -2.1685
  117OSM    C7F12333   1.841   0.634   9.633 -0.2305 -0.5691 -0.7634
  117OSM    H7F12334   1.798   0.727   9.588  1.0785  0.6523  0.3976
  117OSM    H7G12335   1.777   0.548   9.604  0.2859 -2.1293  2.3273
  117OSM    C8F12336   1.974   0.622   9.558  0.2215  0.4027 -0.3491
  117OSM    H8F12337   2.028   0.710   9.597 -1.1668  1.0639  0.1439
  117OSM    H8G12338   1.951   0.636   9.450  2.1414  2.1638 -0.5889
  117OSM    C9F12339   2.050   0.497   9.595  0.0453  0.3668  0.3745
  117OSM    H9F12340   2.094   0.488   9.695 -0.2606 -0.7390  0.4294
  117OSM   C10F12341   2.077   0.395   9.510 -0.0977 -0.5027 -0.4054
  117OSM   H10F12342   2.132   0.308   9.550 -2.3457 -2.2820 -0.9380
  117OSM   C11F12343   2.045   0.390   9.363  0.2662 -0.1878 -0.6851
  117OSM   H11F12344   1.987   0.482   9.341 -1.4340 -0.6592  1.4257
  117OSM   H11G12345   1.981   0.299   9.356 -2.8870  1.8410 -0.1798
  117OSM   C12F12346   2.175   0.377   9.286 -0.7499  0.0168  0.2337
  117OSM   H12F12347   2.215   0.276   9.312  0.4985  0.4868  0.1952
  117OSM   H12G12348   2.255   0.448   9.316  0.3803 -1.0009 -0.2997
  117OSM   C13F12349   2.155   0.392   9.139 -0.2626 -0.6577 -0.5935
  117OSM   H13F12350   2.108   0.487   9.104  3.8333  1.2705 -1.3900
  117OSM   H13G12351   2.099   0.304   9.100  2.1921 -0.7007 -4.5932
  117OSM   C14F12352   2.293   0.382   9.069  0.3533  0.0572  0.3754
  117OSM   H14F12353   2.350   0.298   9.116  1.6655 -1.6419 -3.7789
  117OSM   H14G12354   2.348   0.476   9.092 -0.5937  0.2560  1.9963
  117OSM   C15F12355   2.268   0.368   8.919  0.1368  0.1640  0.3631
  117OSM   H15F12356   2.235   0.454   8.858  1.2829  0.6679  0.4330
  117OSM   H15G12357   2.195   0.287   8.896  3.2291 -2.3636 -1.2420
  117OSM   C16F12358   2.395   0.309   8.847 -0.2665 -0.9462  0.1830
  117OSM   H16F12359   2.400   0.199   8.866 -1.3999 -1.0691 -0.1887
  117OSM   H16G12360   2.490   0.351   8.889 -0.8417 -0.9828  1.5761
  117OSM   C17F12361   2.386   0.337   8.698  0.6511  0.1593  1.4076
  117OSM   H17F12362   2.381   0.447   8.686  2.6248  0.1457 -0.1189
  117OSM   H17G12363   2.294   0.303   8.646  3.0688  0.8850 -3.9937
  117OSM   C18F12364   2.504   0.283   8.612 -0.1032  0.2432  0.3942
  117OSM   H18F12365   2.487   0.315   8.507  0.3921 -1.3534 -0.2065
  117OSM   H18G12366   2.521   0.173   8.606  1.4457  0.4496  0.5124
  117OSM   H18H12367   2.590   0.332   8.663  0.4014 -1.3675  1.1500
  118OSM      N12368   1.318   2.748  11.058  0.2734  0.0317 -0.0065
  118OSM    C1512369   1.199   2.770  11.147 -0.1654  0.3372 -0.0229
  118OSM   H15A12370   1.151   2.854  11.099  1.5224 -1.5187 -5.7797
  118OSM   H15B12371   1.226   2.784  11.251 -0.1581  3.2459 -0.3228
  118OSM   H15C12372   1.125   2.693  11.132 -0.4883  0.6588 -0.1009
  118OSM    C1412373   1.381   2.617  11.082  0.4271  0.6249 -0.3335
  118OSM   H14A12374   1.402   2.597  11.186  0.1976 -0.8318 -0.5444
  118OSM   H14B12375   1.469   2.603  11.022  0.9323 -0.6467  0.6554
  118OSM   H14C12376   1.311   2.546  11.040  0.9196  1.1326 -2.0768
  118OSM    C1312377   1.266   2.755  10.920  0.5493  0.0762  0.0908
  118OSM   H13A12378   1.233   2.855  10.898  0.1556 -0.4044 -1.7044
  118OSM   H13B12379   1.194   2.680  10.889  0.5761  0.7860 -1.8207
  118OSM   H13C12380   1.342   2.743  10.843 -2.7903  1.5115 -3.7990
  118OSM    C1212381   1.414   2.856  11.083 -0.0470 -0.1962 -0.4418
  118OSM   H12A12382   1.454   2.841  11.182  0.4923  0.1403 -0.6012
  118OSM   H12B12383   1.356   2.947  11.089 -2.4343 -1.3556 -3.3586
  118OSM    C1112384   1.531   2.893  10.990 -0.0518  1.0052  0.3243
  118OSM   H11A12385   1.599   2.806  10.977 -0.7492  0.8786 -3.7931
  118OSM   H11B12386   1.593   2.970  11.041  2.4123  0.2590 -1.3498
  118OSM      P12387   1.462   3.081  10.818 -0.1078  0.0889  0.1389
  118OSM    O1312388   1.341   3.131  10.895 -0.4847  0.4952  0.2798
  118OSM    O1412389   1.589   3.153  10.815 -0.7557 -0.2746  0.1947
  118OSM    O1112390   1.414   3.045  10.674 -0.3329  0.3853  0.2355
  118OSM    O1212391   1.484   2.926  10.865  0.5944 -0.3872  0.3222
  118OSM    C1S12392   1.428   3.137  10.563 -0.1824 -0.0320  0.0747
  118OSM    H1S12393   1.506   3.216  10.571 -1.1458  0.9894 -0.2989
  118OSM    H1T12394   1.336   3.197  10.544 -1.8035 -2.4155 -0.0922
  118OSM     NF12395   1.489   3.147  10.322 -0.2690 -0.1102  0.1973
  118OSM    HNF12396   1.420   3.148  10.250  1.6964  1.0405 -1.8037
  118OSM    C2S12397   1.456   3.059  10.433  0.0085 -0.0412  0.1715
  118OSM    H2S12398   1.544   2.997  10.462 -1.0121 -0.5784  2.3762
  118OSM    C3S12399   1.341   2.960  10.404 -0.3478 -0.9059 -0.7876
  118OSM    H3S12400   1.259   3.034  10.394 -0.1407 -0.8031 -1.7832
  118OSM     O312401   1.298   2.876  10.508  0.0624 -0.0884  0.3976
  118OSM    HO312402   1.348   2.907  10.584  0.3333 -1.4420  0.7878
  118OSM    C4S12403   1.348   2.889  10.278 -0.5999  0.1898 -0.3610
  118OSM    H4S12404   1.332   2.966  10.200  0.7350  1.0185  0.1527
  118OSM    C5S12405   1.385   2.761  10.246  0.3320  0.1052 -0.6400
  118OSM    H5S12406   1.415   2.696  10.330 -1.7298  1.0674  0.9403
  118OSM    C6S12407   1.381   2.704  10.105  0.0364 -0.7000 -0.1059
  118OSM    H6S12408   1.347   2.599  10.100  0.8583 -1.0796  1.6325
  118OSM    H6T12409   1.488   2.699  10.076  0.3332  0.2003  0.7767
  118OSM    C7S12410   1.323   2.782   9.986 -0.1611 -0.7228 -0.4743
  118OSM    H7S12411   1.343   2.891   9.980 -1.0919 -0.5806 -1.3513
  118OSM    H7T12412   1.212   2.770   9.987 -0.1755 -0.6144  0.8973
  118OSM    C8S12413   1.371   2.717   9.856  0.3453 -0.6980  0.5603
  118OSM    H8S12414   1.390   2.610   9.875 -0.8248 -1.2859 -1.3347
  118OSM    H8T12415   1.464   2.769   9.824 -0.8611  1.2226 -0.0499
  118OSM    C9S12416   1.265   2.750   9.750  0.4026 -0.4154 -0.6337
  118OSM    H9S12417   1.276   2.857   9.721 -0.5947 -0.3526 -0.8309
  118OSM    H9T12418   1.159   2.733   9.781  0.0269  0.7686 -1.1901
  118OSM   C10S12419   1.290   2.668   9.617  0.7167  0.4733  0.2895
  118OSM   H10S12420   1.284   2.557   9.630  2.8729  0.5160  2.5440
  118OSM   H10T12421   1.397   2.687   9.595  0.4728  0.9020 -0.5612
  118OSM   C11S12422   1.202   2.717   9.500  0.0225  1.1893 -0.9208
  118OSM   H11S12423   1.228   2.821   9.473 -0.5377  1.3294 -0.9384
  118OSM   H11T12424   1.096   2.731   9.531 -0.3508  0.3502 -1.7757
  118OSM   C12S12425   1.216   2.616   9.381  0.1997 -0.2011 -0.8362
  118OSM   H12S12426   1.191   2.512   9.414  0.0482  0.1568  0.2315
  118OSM   H12T12427   1.320   2.600   9.346  1.1169 -4.0677  2.7261
  118OSM   C13S12428   1.126   2.662   9.269  0.0375 -0.5882 -0.0363
  118OSM   H13S12429   1.145   2.771   9.266 -2.7069 -0.0680 -1.3502
  118OSM   H13T12430   1.019   2.655   9.297  0.0129 -2.5144 -0.4021
  118OSM   C14S12431   1.145   2.576   9.147 -0.3593  0.1610  0.0255
  118OSM   H14S12432   1.118   2.470   9.167 -0.9913  0.1547 -0.8281
  118OSM   H14T12433   1.250   2.583   9.113 -0.1246  1.3191  0.9375
  118OSM   C15S12434   1.055   2.630   9.037 -0.0119 -0.0082 -0.2604
  118OSM   H15S12435   0.950   2.650   9.065  0.2488  0.3730  0.5002
  118OSM   H15T12436   1.055   2.556   8.955  1.3591  0.6877 -0.9224
  118OSM   C16S12437   1.111   2.761   8.973  0.2222  0.6298 -0.4587
  118OSM   H16S12438   1.166   2.821   9.050  0.3731 -0.2297  0.1183
  118OSM   H16T12439   1.026   2.818   8.931 -0.5146 -0.2002 -0.1093
  118OSM   C17S12440   1.209   2.734   8.860 -0.4157  0.3496  0.0410
  118OSM   H17S12441   1.286   2.662   8.896 -0.2338  0.8138  0.5976
  118OSM   H17T12442   1.257   2.829   8.826  1.8323 -0.1418  1.6136
  118OSM   C18S12443   1.143   2.669   8.731  0.2417 -0.3308 -0.0763
  118OSM   H18S12444   1.214   2.658   8.646 -1.8141 -0.3022 -1.8947
  118OSM   H18T12445   1.063   2.739   8.697 -1.1252 -1.3762  0.8553
  118OSM   H18U12446   1.099   2.569   8.752 -0.3839 -0.3182 -1.2054
  118OSM    C1F12447   1.596   3.227  10.316  0.5274 -0.4950  0.3435
  118OSM     OF12448   1.677   3.227  10.409  0.5434 -0.2688  0.1101
  118OSM    C2F12449   1.614   3.326  10.206 -0.0640 -0.0335  0.6665
  118OSM    H2F12450   1.523   3.323  10.142  0.9402  1.3666 -0.9138
  118OSM    H2G12451   1.696   3.291  10.140  1.0858  1.2980  1.3224
  118OSM    C3F12452   1.633   3.457  10.271  0.2004 -1.2637 -0.6063
  118OSM    H3F12453   1.738   3.470  10.304  0.1098  1.2797 -1.0686
  118OSM    H3G12454   1.575   3.479  10.363  2.3077 -0.5287  0.6189
  118OSM    C4F12455   1.618   3.575  10.171 -0.4675  0.2439 -0.2448
  118OSM    H4F12456   1.629   3.666  10.234  0.1862 -0.7500  1.1260
  118OSM    H4G12457   1.516   3.585  10.126  0.4399  4.0733 -1.8943
  118OSM    C5F12458   1.721   3.585  10.058  0.4107 -0.3196  0.0115
  118OSM    H5F12459   1.818   3.561  10.106  0.6759 -0.0402 -0.3748
  118OSM    H5G12460   1.728   3.693  10.032  1.3131 -0.6108 -0.9858
  118OSM    C6F12461   1.709   3.511   9.932 -0.0832  0.0878  0.5296
  118OSM    H6F12462   1.710   3.400   9.943 -1.3575  0.1911  2.1670
  118OSM    H6G12463   1.797   3.548   9.876 -0.3974 -0.2904 -0.2270
  118OSM    C7F12464   1.572   3.544   9.860  0.4693 -0.2395  0.0956
  118OSM    H7F12465   1.565   3.655   9.868  1.5703 -0.0245 -1.4630
  118OSM    H7G12466   1.490   3.503   9.922 -0.3081  0.7283 -0.2609
  118OSM    C8F12467   1.567   3.490   9.715  0.7000 -0.1827 -0.6970
  118OSM    H8F12468   1.469   3.512   9.667  0.8727 -0.3039 -1.1096
  118OSM    H8G12469   1.554   3.383   9.740  0.5003 -0.2204 -0.9590
  118OSM    C9F12470   1.682   3.495   9.622  0.2162 -1.2135 -0.1349
  118OSM    H9F12471   1.783   3.474   9.660  0.8390  1.3030 -0.2446
  118OSM   C10F12472   1.665   3.534   9.499 -0.7969  0.0553 -0.4226
  118OSM   H10F12473   1.758   3.548   9.443 -0.0951 -1.3862  0.3475
  118OSM   C11F12474   1.535   3.554   9.419 -0.5415 -0.3264 -0.9048
  118OSM   H11F12475   1.523   3.664   9.415  3.1845  0.2062 -1.6894
  118OSM   H11G12476   1.439   3.510   9.451 -0.1947 -0.7322 -0.3969
  118OSM   C12F12477   1.542   3.504   9.271 -0.7016  0.2847 -0.5349
  118OSM   H12F12478   1.436   3.504   9.237 -0.3397  1.8483 -1.8318
  118OSM   H12G12479   1.596   3.407   9.265 -0.3531  0.4147  0.4547
  118OSM   C13F12480   1.623   3.610   9.191  0.1245 -0.4516  0.3153
  118OSM   H13F12481   1.731   3.593   9.212  0.5060  2.0201  0.5642
  118OSM   H13G12482   1.609   3.715   9.223  1.6434  0.4262 -1.7310
  118OSM   C14F12483   1.585   3.618   9.037 -0.1682 -0.3188 -0.3873
  118OSM   H14F12484   1.486   3.668   9.030  0.5076  0.8254 -2.5965
  118OSM   H14G12485   1.573   3.514   8.999 -2.5100  0.4482 -1.9419
  118OSM   C15F12486   1.687   3.702   8.956  0.4279  0.3820  0.1376
  118OSM   H15F12487   1.640   3.704   8.855 -0.2069  1.8876  0.4384
  118OSM   H15G12488   1.784   3.647   8.954  0.8352  1.0249 -2.9332
  118OSM   C16F12489   1.726   3.848   9.000 -0.1443 -0.0069 -0.5265
  118OSM   H16F12490   1.800   3.895   8.932 -1.7062  2.8886 -0.4061
  118OSM   H16G12491   1.781   3.838   9.097 -0.4967 -2.6593 -0.5307
  118OSM   C17F12492   1.603   3.946   9.009 -0.0460  0.2584 -0.3448
  118OSM   H17F12493   1.535   3.918   9.092  1.0596  0.7475  0.7650
  118OSM   H17G12494   1.538   3.950   8.919  1.7074  1.5083 -1.6308
  118OSM   C18F12495   1.641   4.091   9.039 -0.0484 -0.1271 -0.5131
  118OSM   H18F12496   1.660   4.096   9.148 -1.3214 -0.1839 -0.2724
  118OSM   H18G12497   1.561   4.166   9.025  0.6029  0.5784 -0.5493
  118OSM   H18H12498   1.730   4.128   8.984  0.6393 -1.9313 -0.7134
  119OSM      N12499   2.088   2.327  11.133  0.3945 -0.0984 -0.5081
  119OSM    C1512500   2.063   2.452  11.216 -0.8004  0.8323  0.0564
  119OSM   H15A12501   2.024   2.529  11.151 -0.9367 -0.6855 -1.7509
  119OSM   H15B12502   2.153   2.494  11.258  0.7263  1.0673 -3.1068
  119OSM   H15C12503   1.996   2.428  11.297  0.1814 -1.4167  0.2743
  119OSM    C1412504   2.134   2.222  11.231 -0.0252 -0.0092  0.2995
  119OSM   H14A12505   2.067   2.199  11.313  0.4337  0.3168  0.7690
  119OSM   H14B12506   2.235   2.243  11.264  1.1478 -1.6720 -1.9213
  119OSM   H14C12507   2.139   2.133  11.170  0.8835 -1.0174  1.7810
  119OSM    C1312508   1.952   2.293  11.074 -0.7010  0.1357 -0.2977
  119OSM   H13A12509   1.926   2.371  11.005 -0.6512  1.2269  0.8796
  119OSM   H13B12510   1.877   2.285  11.151 -1.6702  1.4979 -1.0725
  119OSM   H13C12511   1.950   2.204  11.013  0.0519  1.0056 -1.6449
  119OSM    C1212512   2.192   2.353  11.024 -0.5279 -0.1226 -0.0558
  119OSM   H12A12513   2.284   2.390  11.065 -1.6409  1.2816  1.2660
  119OSM   H12B12514   2.154   2.430  10.958 -1.3381  0.0387  0.5949
  119OSM    C1112515   2.229   2.230  10.930  0.2080 -0.0620  0.0708
  119OSM   H11A12516   2.301   2.271  10.857 -1.6530 -0.3189 -2.0065
  119OSM   H11B12517   2.139   2.195  10.875  0.8805 -1.8996  0.0509
  119OSM      P12518   2.434   2.063  10.987  0.1203  0.2780 -0.0333
  119OSM    O1312519   2.531   2.167  11.031 -0.1763 -0.7671  0.0107
  119OSM    O1412520   2.441   1.927  11.050  0.1764 -0.5692  0.0769
  119OSM    O1112521   2.441   2.036  10.827  0.3975  0.2226  0.0792
  119OSM    O1212522   2.297   2.136  11.019  0.5715  0.2358  0.6230
  119OSM    C1S12523   2.332   1.974  10.760  0.2498  0.1155  0.4584
  119OSM    H1S12524   2.238   2.026  10.789  0.3542 -0.8543  2.7273
  119OSM    H1T12525   2.331   1.865  10.783 -0.8789 -0.1183 -0.5676
  119OSM     NF12526   2.216   1.922  10.548  0.2404 -0.6771 -0.0958
  119OSM    HNF12527   2.227   1.839  10.494 -0.5080 -1.3941  0.8327
  119OSM    C2S12528   2.342   1.979  10.601 -0.1683  0.3156 -0.8114
  119OSM    H2S12529   2.354   2.085  10.572  1.8556  1.0761  2.3320
  119OSM    C3S12530   2.472   1.910  10.562  0.3420 -0.2309 -0.0723
  119OSM    H3S12531   2.462   1.803  10.589 -0.1036  0.0825  1.0877
  119OSM     O312532   2.589   1.975  10.614 -1.4526 -0.1922 -0.2006
  119OSM    HO312533   2.554   2.033  10.682 -3.1162 -0.8325 -0.4669
  119OSM    C4S12534   2.478   1.920  10.407  0.4396  0.1162 -0.1465
  119OSM    H4S12535   2.514   2.017  10.371 -1.5284  1.3671  1.0779
  119OSM    C5S12536   2.457   1.821  10.317  0.0850 -0.5567  0.6144
  119OSM    H5S12537   2.425   1.723  10.354  1.4826 -0.6527  1.6371
  119OSM    C6S12538   2.475   1.845  10.169  0.1854 -0.3881  0.4546
  119OSM    H6S12539   2.394   1.780  10.128 -1.1357 -0.3939  2.9147
  119OSM    H6T12540   2.569   1.809  10.122 -0.5122 -0.2396 -1.1279
  119OSM    C7S12541   2.472   1.996  10.121 -0.0432  0.1070  0.4743
  119OSM    H7S12542   2.571   2.034  10.155  0.6265 -0.2623 -1.0006
  119OSM    H7T12543   2.389   2.054  10.166  0.2700  0.2833  0.8270
  119OSM    C8S12544   2.482   1.998   9.971  0.4553  0.0482  0.2635
  119OSM    H8S12545   2.384   1.969   9.927  1.0988 -0.4878 -0.8750
  119OSM    H8T12546   2.549   1.919   9.930  1.2577  0.2752  1.1075
  119OSM    C9S12547   2.509   2.136   9.913 -0.2622 -0.0117 -1.1059
  119OSM    H9S12548   2.614   2.164   9.935 -0.3163 -0.1047 -0.7207
  119OSM    H9T12549   2.430   2.190   9.969  1.9628  1.4221  0.8111
  119OSM   C10S12550   2.486   2.143   9.764  0.3944 -0.0128  0.4986
  119OSM   H10S12551   2.438   2.239   9.737  1.0256  0.2338  0.2394
  119OSM   H10T12552   2.404   2.070   9.745 -0.6340  0.7804  1.7160
  119OSM   C11S12553   2.609   2.134   9.674 -0.1178 -0.2117  0.9192
  119OSM   H11S12554   2.647   2.030   9.686 -1.5672 -0.8064  0.5324
  119OSM   H11T12555   2.678   2.216   9.703  0.1532 -0.8398  2.1087
  119OSM   C12S12556   2.599   2.147   9.511  0.0265 -0.0599 -0.4686
  119OSM   H12S12557   2.702   2.181   9.486  0.3418 -0.2333  0.5639
  119OSM   H12T12558   2.529   2.223   9.472  0.3567  0.7461  0.4865
  119OSM   C13S12559   2.579   2.012   9.441  0.3856 -0.3086  0.5505
  119OSM   H13S12560   2.490   1.958   9.478 -2.0912  2.9931 -0.1227
  119OSM   H13T12561   2.671   1.954   9.465  1.2906  1.0463  0.5163
  119OSM   C14S12562   2.571   2.018   9.285  1.0578 -0.3294  0.0615
  119OSM   H14S12563   2.469   2.056   9.262 -0.7469 -4.5582  0.0239
  119OSM   H14T12564   2.576   1.915   9.243  0.4412 -0.6504  0.7362
  119OSM   C15S12565   2.671   2.114   9.221  0.2344 -0.2802 -0.3482
  119OSM   H15S12566   2.768   2.102   9.273  0.2721  1.6633  0.1133
  119OSM   H15T12567   2.638   2.219   9.239  0.7233  0.0708 -1.4134
  119OSM   C16S12568   2.690   2.085   9.076  0.4015  0.0642  0.0451
  119OSM   H16S12569   2.737   1.985   9.067 -0.1115 -0.3687  1.7298
  119OSM   H16T12570   2.765   2.152   9.030 -0.3152  0.5255 -0.4682
  119OSM   C17S12571   2.559   2.080   8.995  0.6814  0.3373 -0.0683
  119OSM   H17S12572   2.519   2.184   8.992 -2.3278 -0.6348  1.9026
  119OSM   H17T12573   2.488   2.013   9.048  1.2682  1.2883  2.0493
  119OSM   C18S12574   2.578   2.036   8.852 -1.0670 -0.4671  0.0216
  119OSM   H18S12575   2.487   2.024   8.789  0.0345 -0.3231 -1.6712
  119OSM   H18T12576   2.645   1.948   8.853 -1.5320 -0.8230  0.8389
  119OSM   H18U12577   2.639   2.117   8.806 -0.1462 -0.3447  1.3941
  119OSM    C1F12578   2.095   1.976  10.559 -0.1140  0.6404 -0.3958
  119OSM     OF12579   2.081   2.089  10.604 -0.8079 -0.0843 -0.0880
  119OSM    C2F12580   1.969   1.896  10.519  0.1016 -0.1351  0.3656
  119OSM    H2F12581   1.919   1.862  10.612  0.7943 -0.4057  0.6508
  119OSM    H2G12582   1.992   1.807  10.456 -2.4894 -0.0713 -0.8000
  119OSM    C3F12583   1.880   1.985  10.426  0.0414 -0.5819 -0.4237
  119OSM    H3F12584   1.860   2.076  10.487  0.2729 -0.3168 -0.7414
  119OSM    H3G12585   1.789   1.929  10.395 -0.5009 -0.4927  0.9316
  119OSM    C4F12586   1.943   2.029  10.291 -0.2866 -0.3583 -0.7899
  119OSM    H4F12587   2.018   2.109  10.301  0.8124 -1.4164 -0.3493
  119OSM    H4G12588   1.861   2.053  10.219 -0.7567 -3.1853 -1.3422
  119OSM    C5F12589   2.019   1.910  10.217 -0.3777  0.2750  0.7409
  119OSM    H5F12590   1.953   1.821  10.208 -0.8014  0.6866 -0.4443
  119OSM    H5G12591   2.105   1.876  10.279  1.3765  1.8216 -0.7167
  119OSM    C6F12592   2.047   1.933  10.063 -0.0272  0.0939 -1.3711
  119OSM    H6F12593   2.111   2.024  10.064 -1.4394  1.2096  1.9451
  119OSM    H6G12594   1.949   1.948  10.013 -1.6188 -0.7482  1.2983
  119OSM    C7F12595   2.114   1.810   9.997 -0.0887 -0.1371  0.3295
  119OSM    H7F12596   2.057   1.716  10.013 -1.0883  0.2053 -1.0320
  119OSM    H7G12597   2.210   1.802  10.053  0.0542  0.3979  0.1650
  119OSM    C8F12598   2.142   1.824   9.846 -0.0133 -0.7181 -0.5410
  119OSM    H8F12599   2.177   1.929   9.845 -0.2746 -0.5248  2.3040
  119OSM    H8G12600   2.051   1.818   9.782  0.5911  0.3097 -1.5296
  119OSM    C9F12601   2.256   1.745   9.797  0.3571  0.1656 -0.2420
  119OSM    H9F12602   2.329   1.707   9.869 -1.0448 -0.7472  0.7525
  119OSM   C10F12603   2.275   1.714   9.665 -0.4365 -0.1118 -0.2594
  119OSM   H10F12604   2.365   1.656   9.638 -0.5485 -0.8649  0.8950
  119OSM   C11F12605   2.185   1.751   9.555  0.0435 -0.3377  0.0070
  119OSM   H11F12606   2.121   1.841   9.571 -0.9866 -0.8293 -1.1734
  119OSM   H11G12607   2.116   1.666   9.537 -0.5779 -0.3116  2.0480
  119OSM   C12F12608   2.263   1.774   9.427  0.2850  0.1666  0.0658
  119OSM   H12F12609   2.333   1.692   9.403  1.6224  0.3437  2.9907
  119OSM   H12G12610   2.321   1.869   9.430  0.2045  0.2566 -0.8571
  119OSM   C13F12611   2.171   1.791   9.302 -0.6486 -0.6145 -0.4825
  119OSM   H13F12612   2.118   1.885   9.327 -0.0935 -0.7498  1.3546
  119OSM   H13G12613   2.106   1.700   9.300  1.3049 -2.6386  5.5745
  119OSM   C14F12614   2.244   1.811   9.170  0.2817 -0.2475  0.4592
  119OSM   H14F12615   2.330   1.880   9.178  2.6037 -2.9542  0.4753
  119OSM   H14G12616   2.169   1.844   9.096 -0.9915 -0.3025  1.6850
  119OSM   C15F12617   2.300   1.680   9.106  0.0164 -0.6098  1.1863
  119OSM   H15F12618   2.224   1.602   9.084 -2.2193  1.6316  0.5660
  119OSM   H15G12619   2.377   1.638   9.174  1.9576  0.2411 -0.3816
  119OSM   C16F12620   2.374   1.711   8.965  0.1616 -0.2986 -0.9286
  119OSM   H16F12621   2.416   1.614   8.931  0.2352 -0.4165 -0.4990
  119OSM   H16G12622   2.464   1.775   8.970 -0.0658  0.0677 -1.4300
  119OSM   C17F12623   2.288   1.762   8.852  0.4062 -0.6248 -0.5245
  119OSM   H17F12624   2.290   1.873   8.851 -1.5371 -0.4719  1.8352
  119OSM   H17G12625   2.186   1.727   8.879  0.9154 -3.0019 -1.3751
  119OSM   C18F12626   2.320   1.719   8.710 -0.1899 -0.0179 -0.0217
  119OSM   H18F12627   2.251   1.771   8.640 -1.4055 -1.4411  0.0839
  119OSM   H18G12628   2.338   1.612   8.688  1.2233  0.1823  0.0376
  119OSM   H18H12629   2.418   1.768   8.690 -0.7374  1.3236  0.5076
  120OSM      N12630   6.642   5.269  10.992  0.2589  0.0271  0.2608
  120OSM    C1512631   6.691   5.388  11.068 -0.8595  0.0754  0.6136
  120OSM   H15A12632   6.753   5.449  11.003 -1.0323 -2.0409 -1.6862
  120OSM   H15B12633   6.736   5.356  11.161 -1.0100  0.5798  0.8639
  120OSM   H15C12634   6.619   5.466  11.088  0.4436  1.0093  1.8902
  120OSM    C1412635   6.544   5.198  11.085  0.0421 -0.3334  0.6816
  120OSM   H14A12636   6.584   5.168  11.181 -1.6032 -0.2170  1.4414
  120OSM   H14B12637   6.496   5.112  11.039  2.2173 -1.9586  1.2629
  120OSM   H14C12638   6.458   5.255  11.116 -2.0595 -2.9467  0.0945
  120OSM    C1312639   6.575   5.311  10.872  0.1217 -0.7382  0.2120
  120OSM   H13A12640   6.529   5.224  10.827  1.1135 -1.0642 -0.2129
  120OSM   H13B12641   6.651   5.338  10.801  1.4407 -1.1776  1.4063
  120OSM   H13C12642   6.506   5.393  10.884  2.6437  1.4506  0.6715
  120OSM    C1212643   6.755   5.173  10.954 -1.1221  0.6696 -0.1698
  120OSM   H12A12644   6.794   5.143  11.050  1.8129  0.4262 -1.3292
  120OSM   H12B12645   6.836   5.220  10.900  0.8819 -2.3125 -0.0288
  120OSM    C1112646   6.718   5.044  10.869  0.0736  0.8394 -0.2266
  120OSM   H11A12647   6.628   4.990  10.905 -0.2903 -0.8147 -3.2840
  120OSM   H11B12648   6.808   4.980  10.876  1.2969  2.5964  0.8291
  120OSM      P12649   6.598   4.972  10.646  0.0034 -0.1206  0.1423
  120OSM    O1312650   6.590   4.840  10.716  0.4568  0.1962 -0.2128
  120OSM    O1412651   6.467   5.044  10.630 -0.5030 -0.3105  0.0190
  120OSM    O1112652   6.668   4.961  10.502  0.2900  0.1649 -0.4146
  120OSM    O1212653   6.694   5.069  10.729  0.1904 -0.2802  0.4200
  120OSM    C1S12654   6.803   4.934  10.482  0.4364 -0.0425 -0.0209
  120OSM    H1S12655   6.831   4.835  10.525 -0.6012 -0.3427 -0.0008
  120OSM    H1T12656   6.863   5.010  10.536  1.7046 -1.7874  1.1537
  120OSM     NF12657   6.967   4.902  10.310 -0.9033  0.9609  1.0419
  120OSM    HNF12658   7.028   4.977  10.285  1.3618 -0.8500  0.8496
  120OSM    C2S12659   6.825   4.929  10.333 -0.0323 -0.2696  1.6622
  120OSM    H2S12660   6.778   4.837  10.292  1.8739 -0.8525  0.6261
  120OSM    C3S12661   6.784   5.055  10.252  0.1666 -0.7798  0.5399
  120OSM    H3S12662   6.865   5.129  10.272  0.8169 -1.0880 -0.8093
  120OSM     O312663   6.656   5.121  10.282 -0.0867  0.2576 -0.2901
  120OSM    HO312664   6.629   5.064  10.355  0.7746 -0.1526 -0.2713
  120OSM    C4S12665   6.804   5.017  10.110  0.1567  0.7236 -0.6606
  120OSM    H4S12666   6.909   5.025  10.078  1.6560 -0.3571  3.3531
  120OSM    C5S12667   6.711   4.982  10.013 -0.0406 -0.9861  0.1227
  120OSM    H5S12668   6.604   4.968  10.035 -0.0690  0.0930  0.7873
  120OSM    C6S12669   6.768   4.944   9.878  0.2338 -0.3745  0.2453
  120OSM    H6S12670   6.706   4.858   9.844 -0.2115 -1.0807  2.6317
  120OSM    H6T12671   6.870   4.902   9.889  0.5626 -0.1412 -1.6230
  120OSM    C7S12672   6.770   5.060   9.774 -0.4277 -0.1648  0.5373
  120OSM    H7S12673   6.861   5.121   9.791 -0.8991  1.0125 -0.9949
  120OSM    H7T12674   6.687   5.133   9.783 -0.7111 -0.2721 -0.9948
  120OSM    C8S12675   6.777   4.999   9.638 -0.3121  0.4383  0.5365
  120OSM    H8S12676   6.690   4.931   9.623  0.6834 -1.4397  2.6914
  120OSM    H8T12677   6.871   4.939   9.634 -0.3115  0.4475  0.3910
  120OSM    C9S12678   6.782   5.090   9.512  0.3072  0.4356 -0.2822
  120OSM    H9S12679   6.864   5.165   9.523  1.6612 -1.0775  0.4472
  120OSM    H9T12680   6.687   5.148   9.515 -0.5165 -0.9375  1.1451
  120OSM   C10S12681   6.807   4.999   9.388 -0.0565  0.3060  0.1571
  120OSM   H10S12682   6.741   4.910   9.390  0.8691 -0.5823 -3.1075
  120OSM   H10T12683   6.912   4.963   9.384 -0.6419 -1.3648 -1.3032
  120OSM   C11S12684   6.788   5.080   9.257  0.3317  1.2425 -0.2736
  120OSM   H11S12685   6.862   5.163   9.256 -0.1015  1.7857  2.9581
  120OSM   H11T12686   6.687   5.125   9.263  0.6660  2.7860 -3.6868
  120OSM   C12S12687   6.797   4.978   9.135 -0.6965  0.2578  0.3805
  120OSM   H12S12688   6.723   4.895   9.143 -0.7296  0.4646  3.2317
  120OSM   H12T12689   6.893   4.923   9.139 -3.1616 -4.7572 -0.9603
  120OSM   C13S12690   6.796   5.039   8.993 -0.2738  1.1958 -0.0741
  120OSM   H13S12691   6.819   4.958   8.920  0.7990  0.8934  0.5762
  120OSM   H13T12692   6.882   5.109   8.992  2.0774 -1.4905  0.3427
  120OSM   C14S12693   6.668   5.097   8.945  0.0075  0.0493 -0.0119
  120OSM   H14S12694   6.633   5.165   9.025 -0.5460 -0.2037 -0.0387
  120OSM   H14T12695   6.587   5.022   8.936  0.2669 -0.0476 -1.9069
  120OSM   C15S12696   6.675   5.178   8.810  0.4593 -0.4023 -0.0692
  120OSM   H15S12697   6.721   5.276   8.834 -0.6456  0.6565 -1.9966
  120OSM   H15T12698   6.572   5.200   8.775  0.4192 -1.4302 -0.6407
  120OSM   C16S12699   6.749   5.113   8.693  0.2536  0.5503 -0.6078
  120OSM   H16S12700   6.706   5.012   8.678  2.1496 -0.2682 -0.7080
  120OSM   H16T12701   6.855   5.103   8.724 -0.3051  1.6777  1.9775
  120OSM   C17S12702   6.741   5.190   8.563  0.2289 -0.4499  0.6214
  120OSM   H17S12703   6.641   5.200   8.516  1.1162  1.9219 -0.9672
  120OSM   H17T12704   6.791   5.132   8.483  0.9414  2.1182 -0.9246
  120OSM   C18S12705   6.811   5.329   8.567  0.3515  0.5541 -0.0836
  120OSM   H18S12706   6.830   5.370   8.466 -2.4562  1.3356 -0.3749
  120OSM   H18T12707   6.912   5.310   8.609  0.0394  0.7752  0.8048
  120OSM   H18U12708   6.745   5.391   8.631  0.0784 -0.6264  0.8227
  120OSM    C1F12709   7.017   4.779  10.327  0.2454  0.4917 -0.6170
  120OSM     OF12710   6.938   4.688  10.355 -0.5822 -0.2346 -0.1437
  120OSM    C2F12711   7.169   4.744  10.311 -0.1772 -0.0785  0.8964
  120OSM    H2F12712   7.190   4.638  10.288  1.9004  0.4601  0.1416
  120OSM    H2G12713   7.211   4.772  10.410  0.9568  0.8332  0.1839
  120OSM    C3F12714   7.228   4.843  10.207 -0.1663 -0.3741 -0.2922
  120OSM    H3F12715   7.339   4.838  10.220 -0.2996  0.1867  1.2662
  120OSM    H3G12716   7.196   4.947  10.228 -0.3891 -0.1589 -1.6078
  120OSM    C4F12717   7.187   4.797  10.068  0.0742  0.0407  0.1196
  120OSM    H4F12718   7.080   4.772  10.055  0.1772 -0.8278  0.8868
  120OSM    H4G12719   7.245   4.705  10.043 -0.0158  0.0224 -0.0222
  120OSM    C5F12720   7.239   4.891   9.958  0.0724  0.1903  0.2331
  120OSM    H5F12721   7.350   4.902   9.962  0.3045 -1.8303  0.3282
  120OSM    H5G12722   7.190   4.990   9.955  1.1429  0.7189 -0.7804
  120OSM    C6F12723   7.216   4.828   9.819  0.4007 -0.1078  0.9384
  120OSM    H6F12724   7.115   4.783   9.822 -0.5337  1.9316  3.1925
  120OSM    H6G12725   7.296   4.751   9.808 -0.4194 -0.6723 -1.8557
  120OSM    C7F12726   7.206   4.925   9.701 -0.0165  0.0981  0.2571
  120OSM    H7F12727   7.305   4.975   9.690  0.0846 -0.4615 -1.7665
  120OSM    H7G12728   7.139   5.009   9.730 -0.2645  0.1113 -0.3554
  120OSM    C8F12729   7.161   4.859   9.577 -0.2856 -0.6187 -0.5814
  120OSM    H8F12730   7.107   4.937   9.519  1.1726 -0.0610 -1.2347
  120OSM    H8G12731   7.083   4.783   9.598 -0.6371 -0.0316  0.2905
  120OSM    C9F12732   7.266   4.797   9.490  0.2009  0.1522  0.1958
  120OSM    H9F12733   7.309   4.705   9.533  1.2725  1.8625  3.0573
  120OSM   C10F12734   7.296   4.829   9.361  0.0812  0.1498 -0.0029
  120OSM   H10F12735   7.372   4.766   9.313  1.7728  2.1044 -0.0222
  120OSM   C11F12736   7.237   4.940   9.276 -0.4367 -0.4512 -0.8557
  120OSM   H11F12737   7.310   5.024   9.281 -0.2001 -0.7059  1.1746
  120OSM   H11G12738   7.146   4.981   9.325  0.9870  1.6176  0.2193
  120OSM   C12F12739   7.218   4.889   9.132 -0.0248  0.9440  0.5351
  120OSM   H12F12740   7.133   4.819   9.120  1.8561 -1.1642 -1.1720
  120OSM   H12G12741   7.307   4.827   9.111  0.0209  1.2371 -0.1339
  120OSM   C13F12742   7.220   5.001   9.021 -0.7029 -0.1996  0.2474
  120OSM   H13F12743   7.323   5.042   9.018 -0.3090 -1.2279 -0.8300
  120OSM   H13G12744   7.144   5.079   9.044 -0.7031 -0.0221 -0.3600
  120OSM   C14F12745   7.190   4.946   8.882 -0.4343  0.4628  0.0146
  120OSM   H14F12746   7.091   4.896   8.886 -0.9312  1.4698  0.7739
  120OSM   H14G12747   7.269   4.872   8.854  0.9307  1.2647  1.5767
  120OSM   C15F12748   7.178   5.064   8.774 -0.4247  0.0216  0.2530
  120OSM   H15F12749   7.099   5.133   8.811 -2.2937 -1.1202 -1.3622
  120OSM   H15G12750   7.143   5.021   8.677 -0.4635  1.3715 -0.3559
  120OSM   C16F12751   7.307   5.143   8.753 -0.3271  0.0178 -0.2020
  120OSM   H16F12752   7.385   5.071   8.721 -1.1688 -1.3081  0.6519
  120OSM   H16G12753   7.345   5.180   8.851 -2.9974 -1.7305  1.6101
  120OSM   C17F12754   7.297   5.257   8.652  0.2944 -0.1491  0.3577
  120OSM   H17F12755   7.388   5.320   8.658  0.6379 -0.4764 -1.0969
  120OSM   H17G12756   7.211   5.318   8.686 -0.7030 -0.1633 -1.9526
  120OSM   C18F12757   7.273   5.205   8.504  0.2687 -0.2956 -0.8930
  120OSM   H18F12758   7.190   5.131   8.506  0.3062 -0.3999 -2.1213
  120OSM   H18G12759   7.365   5.159   8.461  0.4717 -0.7373 -0.0202
  120OSM   H18H12760   7.245   5.289   8.438  4.1451  1.5772 -0.4659
  121OSM      N12761   0.561   0.993  10.973 -1.3978 -0.0753  0.0440
  121OSM    C1512762   0.567   0.980  11.126 -1.0821  0.5249 -0.3094
  121OSM   H15A12763   0.485   0.920  11.163  0.7181 -1.0143  1.4767
  121OSM   H15B12764   0.588   1.077  11.169  0.1215 -0.6793  2.0127
  121OSM   H15C12765   0.649   0.913  11.148 -0.4500  0.8218 -1.6874
  121OSM    C1412766   0.447   1.086  10.956  0.3407 -0.4876  0.1716
  121OSM   H14A12767   0.465   1.173  11.018  0.9785  0.3497 -1.1441
  121OSM   H14B12768   0.357   1.032  10.983  0.4365 -0.3048  0.8769
  121OSM   H14C12769   0.430   1.116  10.854 -2.8940 -0.4218  0.6139
  121OSM    C1312770   0.692   1.052  10.924 -0.3735 -0.2182  0.8827
  121OSM   H13A12771   0.773   0.985  10.948 -0.3585 -0.5890 -0.1840
  121OSM   H13B12772   0.713   1.141  10.981  0.5529 -0.7758  1.4367
  121OSM   H13C12773   0.698   1.072  10.818  3.2494 -1.6538  0.6750
  121OSM    C1212774   0.529   0.862  10.905  0.6672 -0.4972  0.0966
  121OSM   H12A12775   0.618   0.801  10.903  1.6161  0.8351 -2.0936
  121OSM   H12B12776   0.503   0.881  10.802 -0.7045  0.9630  0.6694
  121OSM    C1112777   0.409   0.785  10.961 -0.1819  0.4689 -0.6104
  121OSM   H11A12778   0.411   0.759  11.069  0.0957 -0.5463 -0.8520
  121OSM   H11B12779   0.418   0.693  10.899  1.0064 -0.0171  0.2583
  121OSM      P12780   0.154   0.807  10.898 -0.0678 -0.2458 -0.1382
  121OSM    O1312781   0.178   0.683  10.817  0.5412 -0.8930  0.6099
  121OSM    O1412782   0.069   0.798  11.019 -0.6263  0.2321 -0.3755
  121OSM    O1112783   0.091   0.917  10.803  0.1109 -0.6319 -0.4323
  121OSM    O1212784   0.290   0.856  10.942  0.1182 -0.0559  0.3042
  121OSM    C1S12785   0.183   0.974  10.709  0.1942  0.0269 -0.0037
  121OSM    H1S12786   0.246   0.891  10.669 -1.6766 -1.5673  0.2033
  121OSM    H1T12787   0.252   1.049  10.753  1.2048 -0.1883 -1.1663
  121OSM     NF12788   0.214   1.084  10.486 -0.2552  0.1021  0.1002
  121OSM    HNF12789   0.207   1.174  10.444  0.3046  0.2769  0.3826
  121OSM    C2S12790   0.115   1.041  10.589  0.0537  0.2185  0.4134
  121OSM    H2S12791   0.050   0.964  10.542  0.0521 -0.0470  0.8508
  121OSM    C3S12792   0.019   1.160  10.628 -0.2899  0.1454 -0.0067
  121OSM    H3S12793   0.082   1.242  10.670 -1.7065  0.8927  0.7180
  121OSM     O312794  -0.069   1.119  10.731 -0.1975 -0.3100 -0.1637
  121OSM    HO312795  -0.053   1.029  10.760 -1.6679 -0.5055  0.1359
  121OSM    C4S12796  -0.069   1.212  10.524 -0.2233  0.0696  0.3890
  121OSM    H4S12797  -0.137   1.135  10.482  1.2310 -1.2118  0.3112
  121OSM    C5S12798  -0.074   1.341  10.479  0.3646  0.2139  0.0953
  121OSM    H5S12799  -0.007   1.417  10.523  0.6552 -0.7950  1.4644
  121OSM    C6S12800  -0.172   1.389  10.375 -0.0925  0.1103  0.0674
  121OSM    H6S12801  -0.241   1.465  10.417 -0.2668 -0.1290  0.2174
  121OSM    H6T12802  -0.240   1.306  10.347 -0.1502  0.0348  0.4200
  121OSM    C7S12803  -0.103   1.446  10.248 -0.0536 -0.4743 -0.4509
  121OSM    H7S12804  -0.031   1.526  10.273  1.5187 -1.0127 -2.9349
  121OSM    H7T12805  -0.194   1.497  10.209 -0.1517  0.6286  1.1164
  121OSM    C8S12806  -0.042   1.343  10.152  0.2940  0.7462  0.4456
  121OSM    H8S12807  -0.119   1.265  10.136  0.1910  0.0804  3.4927
  121OSM    H8T12808   0.037   1.287  10.206  1.2307  1.7651  0.1560
  121OSM    C9S12809   0.007   1.409  10.023 -0.6168 -0.5254 -0.0353
  121OSM    H9S12810   0.090   1.477  10.053 -0.0209 -1.5358  0.6613
  121OSM    H9T12811  -0.076   1.471   9.983 -0.4189  2.1775  3.2209
  121OSM   C10S12812   0.065   1.321   9.914  0.7334  0.1834 -0.1787
  121OSM   H10S12813  -0.011   1.247   9.881 -0.7247  2.1502 -1.4623
  121OSM   H10T12814   0.152   1.263   9.952  0.6753  0.2484  0.0509
  121OSM   C11S12815   0.103   1.395   9.783  0.1839  0.3557  0.9530
  121OSM   H11S12816   0.172   1.479   9.804 -2.1225  2.5244  0.3560
  121OSM   H11T12817   0.013   1.438   9.734  0.3277  0.7313  1.0155
  121OSM   C12S12818   0.177   1.309   9.677 -0.0969  0.4255 -0.0671
  121OSM   H12S12819   0.271   1.278   9.728 -0.1220  0.7888  0.2033
  121OSM   H12T12820   0.212   1.370   9.591  0.5327 -0.9957 -0.8540
  121OSM   C13S12821   0.097   1.195   9.622  0.3472  0.3260 -0.2235
  121OSM   H13S12822   0.062   1.127   9.703  0.5683  1.9849  1.3269
  121OSM   H13T12823   0.174   1.140   9.564  1.2844  1.7236 -0.3511
  121OSM   C14S12824  -0.018   1.240   9.525 -0.7219  0.7298 -0.1149
  121OSM   H14S12825  -0.103   1.295   9.573 -0.6227  0.0452  0.8749
  121OSM   H14T12826  -0.062   1.148   9.481 -0.2330 -0.5097  1.8707
  121OSM   C15S12827   0.032   1.329   9.406  0.4494 -0.1404 -0.2396
  121OSM   H15S12828   0.137   1.309   9.377 -0.1914 -0.3081 -2.6378
  121OSM   H15T12829   0.023   1.427   9.457  3.3457  0.3472 -0.5436
  121OSM   C16S12830  -0.063   1.316   9.287 -0.6391  0.2212  0.0158
  121OSM   H16S12831  -0.168   1.309   9.321 -0.0229 -0.8161  1.8403
  121OSM   H16T12832  -0.047   1.216   9.242  0.6689 -0.3188  1.5780
  121OSM   C17S12833  -0.058   1.418   9.181  0.5022  0.0775  0.7483
  121OSM   H17S12834   0.051   1.427   9.161  1.2813 -3.3677  2.6153
  121OSM   H17T12835  -0.094   1.522   9.187  0.1767 -0.0235  0.5522
  121OSM   C18S12836  -0.114   1.365   9.047 -0.7907 -0.2353 -0.5264
  121OSM   H18S12837  -0.223   1.354   9.059 -0.5509 -1.6350  0.8050
  121OSM   H18T12838  -0.073   1.263   9.028 -0.1060  0.2596 -1.7875
  121OSM   H18U12839  -0.088   1.424   8.957  1.2212 -2.1248 -1.2760
  121OSM    C1F12840   0.283   0.999  10.405 -0.0750  0.1720 -0.6049
  121OSM     OF12841   0.267   0.879  10.410  0.1214 -0.0546  0.0457
  121OSM    C2F12842   0.360   1.058  10.295  0.1425  0.1195 -0.4533
  121OSM    H2F12843   0.471   1.050  10.306  0.2593 -1.0022 -1.9965
  121OSM    H2G12844   0.331   1.165  10.289 -1.6522 -0.2649  0.7906
  121OSM    C3F12845   0.324   0.991  10.164  0.6949  0.2452  0.4947
  121OSM    H3F12846   0.214   0.985  10.148  0.4382  0.9150  1.8813
  121OSM    H3G12847   0.358   0.886  10.174  1.8356  0.7077  1.7575
  121OSM    C4F12848   0.394   1.056  10.044  0.2231 -0.1922  0.1514
  121OSM    H4F12849   0.505   1.053  10.057  0.3402  3.6889  1.2359
  121OSM    H4G12850   0.363   1.161  10.025  2.0003  0.1902 -0.9493
  121OSM    C5F12851   0.362   0.984   9.910  0.1171  0.7169  0.6784
  121OSM    H5F12852   0.256   0.987   9.879 -0.2992 -0.3298  1.8815
  121OSM    H5G12853   0.386   0.876   9.918  0.9999  0.7868 -0.8049
  121OSM    C6F12854   0.443   1.050   9.791 -0.1552  0.2865 -0.4091
  121OSM    H6F12855   0.550   1.044   9.822 -0.2854  1.7804  0.4200
  121OSM    H6G12856   0.414   1.157   9.789 -1.7318 -0.1082  0.2070
  121OSM    C7F12857   0.409   0.991   9.654  0.4717  0.3051  0.3914
  121OSM    H7F12858   0.305   1.001   9.617  0.5090  0.8504  0.4187
  121OSM    H7G12859   0.431   0.882   9.648  0.5829  0.3462  0.0287
  121OSM    C8F12860   0.499   1.070   9.555 -0.3189 -0.2590  0.5682
  121OSM    H8F12861   0.599   1.067   9.604 -0.4011 -1.4819  0.6920
  121OSM    H8G12862   0.466   1.176   9.551 -1.6338 -0.7000 -0.8388
  121OSM    C9F12863   0.495   1.013   9.415  0.4457 -0.2753  0.2472
  121OSM    H9F12864   0.504   0.903   9.412  2.2186 -0.1370 -1.3985
  121OSM   C10F12865   0.483   1.082   9.297  0.0290 -0.0505  0.0424
  121OSM   H10F12866   0.501   1.022   9.207  0.8273 -0.6739  0.6065
  121OSM   C11F12867   0.468   1.233   9.283  0.3197  0.5754  0.2610
  121OSM   H11F12868   0.551   1.300   9.251  0.0003  0.2291 -1.3775
  121OSM   H11G12869   0.432   1.263   9.384 -0.3971 -1.7586  0.7480
  121OSM   C12F12870   0.349   1.268   9.187  0.0805  0.0581  0.3696
  121OSM   H12F12871   0.318   1.372   9.212 -0.0233  0.3654 -0.9862
  121OSM   H12G12872   0.264   1.198   9.201  2.0842 -2.5567  0.2630
  121OSM   C13F12873   0.390   1.245   9.043  0.1266 -0.0771 -0.1251
  121OSM   H13F12874   0.433   1.143   9.046 -1.6167 -0.8077  2.5471
  121OSM   H13G12875   0.461   1.323   9.007 -1.1460 -0.7629 -4.7602
  121OSM   C14F12876   0.274   1.253   8.946 -0.1439  0.9472  0.9685
  121OSM   H14F12877   0.231   1.355   8.937 -2.2881 -0.0590 -1.6274
  121OSM   H14G12878   0.193   1.185   8.977  0.3929 -1.5066 -2.4079
  121OSM   C15F12879   0.315   1.198   8.804  0.2930  0.3249 -0.3644
  121OSM   H15F12880   0.229   1.144   8.760  0.6276 -0.7418  0.2259
  121OSM   H15G12881   0.408   1.136   8.805  0.2631  0.2640 -0.8549
  121OSM   C16F12882   0.330   1.313   8.700 -0.7994 -0.6053  0.1283
  121OSM   H16F12883   0.435   1.332   8.670 -0.5645  0.6943  1.6823
  121OSM   H16G12884   0.289   1.411   8.730  0.0832  0.0693 -0.8174
  121OSM   C17F12885   0.263   1.291   8.569  0.4580  0.9069  0.2256
  121OSM   H17F12886   0.155   1.282   8.596  0.0117 -0.0963 -1.7323
  121OSM   H17G12887   0.297   1.191   8.534 -1.6989 -0.4632  1.7489
  121OSM   C18F12888   0.282   1.401   8.466 -0.2315  0.5037  0.1373
  121OSM   H18F12889   0.388   1.434   8.476 -1.0190  2.6950  2.1395
  121OSM   H18G12890   0.217   1.489   8.488 -2.5433 -0.2323 -3.0266
  121OSM   H18H12891   0.248   1.361   8.368  0.1539 -1.4851  0.7779
  122OSM      N12892   6.355   6.362  10.886  0.3839 -0.0178 -0.3090
  122OSM    C1512893   6.401   6.442  11.011  0.0871 -0.4966 -0.0939
  122OSM   H15A12894   6.407   6.548  10.994 -0.0066 -0.7888 -2.2268
  122OSM   H15B12895   6.501   6.411  11.040  0.4860  0.6669 -0.2042
  122OSM   H15C12896   6.334   6.413  11.091  0.3797 -0.9141  0.0042
  122OSM    C1412897   6.206   6.385  10.871 -0.4252 -0.1899 -0.3365
  122OSM   H14A12898   6.168   6.338  10.781  0.6664  0.1631 -0.9886
  122OSM   H14B12899   6.183   6.489  10.858 -3.1552 -0.9190 -2.3603
  122OSM   H14C12900   6.147   6.339  10.950 -1.2070  2.3016  0.6317
  122OSM    C1312901   6.429   6.429  10.773  0.4519  0.3153 -0.5194
  122OSM   H13A12902   6.426   6.535  10.791 -0.9805  0.2800 -0.4831
  122OSM   H13B12903   6.407   6.393  10.674 -0.4202  1.9147 -0.9372
  122OSM   H13C12904   6.530   6.394  10.790  0.0186 -0.8133 -0.1242
  122OSM    C1212905   6.375   6.206  10.906  0.4206 -0.8309 -0.1598
  122OSM   H12A12906   6.338   6.156  10.818 -1.5838  0.3317 -0.0500
  122OSM   H12B12907   6.306   6.177  10.983  2.3188 -2.5746  0.9604
  122OSM    C1112908   6.517   6.158  10.945 -0.3724 -0.3890 -0.0572
  122OSM   H11A12909   6.509   6.053  10.982 -2.9783  0.1845  1.2123
  122OSM   H11B12910   6.572   6.221  11.018  0.6496 -0.3925 -0.8136
  122OSM      P12911   6.681   6.033  10.774 -0.1738  0.2245  0.1007
  122OSM    O1312912   6.771   6.066  10.660 -0.1296 -0.3840  0.5375
  122OSM    O1412913   6.735   5.971  10.900  0.1816  0.7271  0.0192
  122OSM    O1112914   6.567   5.932  10.724  0.1831  0.0238  0.7677
  122OSM    O1212915   6.597   6.163  10.821  0.4771  0.4194  0.0145
  122OSM    C1S12916   6.477   5.986  10.628  0.2136 -0.1274 -0.5347
  122OSM    H1S12917   6.452   6.089  10.658 -0.2083 -0.5878  0.7454
  122OSM    H1T12918   6.390   5.916  10.623 -0.4212  0.6365 -0.2144
  122OSM     NF12919   6.451   6.065  10.392 -0.2970 -0.4164 -0.0079
  122OSM    HNF12920   6.387   6.016  10.334 -0.4130  0.5229 -0.6993
  122OSM    C2S12921   6.528   5.979  10.475 -0.0333  0.6771 -0.5655
  122OSM    H2S12922   6.633   6.016  10.472  0.5515 -0.9253 -1.4720
  122OSM    C3S12923   6.542   5.831  10.429  0.2453  0.2777 -0.1474
  122OSM    H3S12924   6.441   5.787  10.415  0.1584  0.8214 -1.3227
  122OSM     O312925   6.605   5.747  10.522  0.3038 -0.7171  0.5135
  122OSM    HO312926   6.593   5.803  10.599 -2.5641 -0.5508  0.0584
  122OSM    C4S12927   6.607   5.820  10.292 -0.2609 -0.2484 -0.8677
  122OSM    H4S12928   6.543   5.866  10.216 -0.4563  1.8614  0.5003
  122OSM    C5S12929   6.731   5.774  10.264 -0.2839  0.3059  0.2927
  122OSM    H5S12930   6.788   5.733  10.349 -1.6481  0.1013  1.1540
  122OSM    C6S12931   6.790   5.759  10.118 -0.0976 -0.1911  0.0324
  122OSM    H6S12932   6.797   5.651  10.091  2.1523  0.6468 -3.3144
  122OSM    H6T12933   6.895   5.792  10.110  0.4814 -1.9250  0.0289
  122OSM    C7S12934   6.702   5.807   9.997  0.1405  0.1052 -0.2071
  122OSM    H7S12935   6.704   5.916  10.021  0.0684 -0.4530  2.7440
  122OSM    H7T12936   6.596   5.775  10.004  0.1974 -0.4794 -1.7061
  122OSM    C8S12937   6.750   5.779   9.857 -0.0411 -0.6466  0.3939
  122OSM    H8S12938   6.724   5.678   9.817  1.6772 -0.4637 -1.3560
  122OSM    H8T12939   6.861   5.777   9.853 -0.0116  0.3496  0.5528
  122OSM    C9S12940   6.689   5.879   9.756 -0.0064  0.0519  0.0018
  122OSM    H9S12941   6.713   5.987   9.772  0.1491 -0.1470  1.2246
  122OSM    H9T12942   6.580   5.863   9.755 -0.0828  0.2216  1.8213
  122OSM   C10S12943   6.754   5.853   9.614 -0.3235  0.1648  0.2929
  122OSM   H10S12944   6.693   5.767   9.576 -1.4674  1.4295 -0.8550
  122OSM   H10T12945   6.859   5.818   9.607 -0.6323 -1.1419  1.5333
  122OSM   C11S12946   6.724   5.958   9.509 -0.5627  0.0978  0.2633
  122OSM   H11S12947   6.764   6.053   9.551  1.9261  0.7886 -3.1652
  122OSM   H11T12948   6.613   5.960   9.500 -0.4209  0.5529 -2.6137
  122OSM   C12S12949   6.786   5.933   9.365  0.6186 -0.2449  0.0472
  122OSM   H12S12950   6.733   5.848   9.318  0.1802 -0.0106  0.1106
  122OSM   H12T12951   6.895   5.912   9.371  1.0010  1.7977  1.3480
  122OSM   C13S12952   6.767   6.052   9.274 -0.2899 -0.1305 -0.2508
  122OSM   H13S12953   6.823   6.139   9.316 -2.5247  0.9650  0.6442
  122OSM   H13T12954   6.661   6.088   9.274  0.2878  1.7919  1.4694
  122OSM   C14S12955   6.797   6.011   9.126  0.2272 -0.1245 -0.2981
  122OSM   H14S12956   6.756   5.910   9.103 -0.6100 -0.1489  1.1540
  122OSM   H14T12957   6.906   5.991   9.136  0.3277 -0.3934 -1.7213
  122OSM   C15S12958   6.763   6.115   9.021 -0.4055 -0.0143 -0.2935
  122OSM   H15S12959   6.795   6.211   9.067  0.7796 -0.9887  1.0106
  122OSM   H15T12960   6.653   6.117   9.005 -0.6580 -2.5524  0.5775
  122OSM   C16S12961   6.830   6.097   8.882  0.0372 -0.0064  0.2178
  122OSM   H16S12962   6.775   6.006   8.849 -0.5872  1.1642 -2.2084
  122OSM   H16T12963   6.941   6.101   8.883  0.2082 -2.7684  0.2833
  122OSM   C17S12964   6.793   6.219   8.801  0.7288  0.7742 -0.5691
  122OSM   H17S12965   6.818   6.306   8.866 -0.2527 -0.3674  1.4259
  122OSM   H17T12966   6.682   6.220   8.797  0.6295  2.4278  1.1421
  122OSM   C18S12967   6.856   6.233   8.661  0.1148  0.1522 -0.2050
  122OSM   H18S12968   6.799   6.165   8.593  1.1620 -1.0796  0.1139
  122OSM   H18T12969   6.964   6.207   8.657 -0.3436 -2.4478  1.5926
  122OSM   H18U12970   6.850   6.335   8.617  2.1584 -0.2256 -1.5009
  122OSM    C1F12971   6.439   6.204  10.406  0.1983  0.1225 -0.3206
  122OSM     OF12972   6.519   6.260  10.469  0.0340 -0.2825 -0.1456
  122OSM    C2F12973   6.328   6.267  10.339  0.3676  0.3340  0.9935
  122OSM    H2F12974   6.245   6.274  10.412  0.1019 -0.0523  0.7362
  122OSM    H2G12975   6.300   6.213  10.246  0.8023  0.5215  0.7480
  122OSM    C3F12976   6.366   6.410  10.288  0.0108  0.1594 -0.1405
  122OSM    H3F12977   6.453   6.401  10.220  1.2367 -0.5476  1.4496
  122OSM    H3G12978   6.393   6.474  10.375  0.0357 -2.5635  1.9884
  122OSM    C4F12979   6.242   6.459  10.215 -0.4450 -0.1603  0.3213
  122OSM    H4F12980   6.155   6.455  10.284  1.0005 -2.6960  2.1819
  122OSM    H4G12981   6.213   6.388  10.134 -3.1758 -1.4883  2.3195
  122OSM    C5F12982   6.265   6.604  10.160  0.2180  0.0759 -0.0129
  122OSM    H5F12983   6.319   6.679  10.222  0.8733  0.1153 -0.6224
  122OSM    H5G12984   6.170   6.658  10.140 -0.1662 -1.3146 -2.1720
  122OSM    C6F12985   6.335   6.591  10.031 -0.1093  0.3682 -0.3462
  122OSM    H6F12986   6.290   6.509   9.970  1.0134 -2.4603  2.3454
  122OSM    H6G12987   6.436   6.553  10.054 -0.2884 -0.3621 -0.7462
  122OSM    C7F12988   6.339   6.720   9.950  0.2635 -0.5240  0.0102
  122OSM    H7F12989   6.367   6.808  10.013  1.2012 -0.6248 -0.2531
  122OSM    H7G12990   6.236   6.744   9.917 -0.1983  1.5726  2.5859
  122OSM    C8F12991   6.423   6.714   9.827  0.1829  0.1075 -0.3757
  122OSM    H8F12992   6.389   6.620   9.778 -0.7293 -1.0816  2.3113
  122OSM    H8G12993   6.527   6.699   9.863  0.1648 -0.7622 -0.6735
  122OSM    C9F12994   6.416   6.843   9.755  0.2137  0.3493  0.2666
  122OSM    H9F12995   6.440   6.934   9.812 -0.0967  0.7347 -0.2069
  122OSM   C10F12996   6.377   6.854   9.627 -0.7045 -0.1466  0.1708
  122OSM   H10F12997   6.373   6.952   9.576 -0.5696 -1.2572 -2.1080
  122OSM   C11F12998   6.353   6.738   9.531  0.2569  0.2225 -0.5986
  122OSM   H11F12999   6.424   6.656   9.555 -0.7462 -0.5150 -0.1006
  122OSM   H11G13000   6.376   6.771   9.427  1.1786  1.6867  0.0483
  122OSM   C12F13001   6.205   6.694   9.515 -0.2058 -0.6000  0.4718
  122OSM   H12F13002   6.172   6.737   9.418  0.3947 -1.6739 -0.2326
  122OSM   H12G13003   6.147   6.738   9.598 -0.7047 -0.5964  0.1286
  122OSM   C13F13004   6.180   6.544   9.496  0.7570  0.2053 -0.2566
  122OSM   H13F13005   6.248   6.484   9.560  0.7944 -0.8790 -1.2813
  122OSM   H13G13006   6.184   6.506   9.392  0.3913 -1.1620  0.1991
  122OSM   C14F13007   6.030   6.504   9.543  0.1329  0.3375 -0.2313
  122OSM   H14F13008   5.951   6.580   9.521 -2.5973 -1.5810  2.1779
  122OSM   H14G13009   6.024   6.503   9.654 -3.7042 -3.0293 -0.2240
  122OSM   C15F13010   5.983   6.371   9.483  1.0762 -0.4802 -0.0358
  122OSM   H15F13011   5.911   6.320   9.551  1.8242 -1.1921  0.2276
  122OSM   H15G13012   6.075   6.309   9.492  0.7750 -1.0170 -0.5867
  122OSM   C16F13013   5.929   6.377   9.341 -0.5659  0.3992  0.3913
  122OSM   H16F13014   5.931   6.484   9.310  3.1306  0.1922 -0.4924
  122OSM   H16G13015   5.825   6.338   9.339  0.3765 -2.3043 -0.4338
  122OSM   C17F13016   6.011   6.311   9.226 -0.3465  0.2619  0.7929
  122OSM   H17F13017   6.022   6.201   9.236  0.1081  0.2645  0.4103
  122OSM   H17G13018   6.114   6.354   9.229 -0.1862 -0.0389  0.0517
  122OSM   C18F13019   5.955   6.340   9.087 -0.1977  0.0663  0.0979
  122OSM   H18F13020   5.974   6.447   9.064  2.3361 -0.0675  1.2605
  122OSM   H18G13021   5.849   6.309   9.076 -0.3025  0.6014 -0.4197
  122OSM   H18H13022   6.004   6.281   9.006  1.4416  2.1060 -0.4662
  123OSM      N13023   3.823   4.796   6.158  0.2816  0.3264  0.0120
  123OSM    C1513024   3.967   4.764   6.132 -0.1857 -0.2488  0.2577
  123OSM   H15A13025   4.038   4.815   6.196  0.3414  0.9169 -1.1788
  123OSM   H15B13026   3.984   4.800   6.031 -1.0039 -0.2690  0.1081
  123OSM   H15C13027   3.991   4.659   6.124 -1.5142 -0.5170 -0.4470
  123OSM    C1413028   3.808   4.943   6.163  0.1787 -0.4042 -0.2630
  123OSM   H14A13029   3.703   4.968   6.160  0.4681  0.8106 -1.4151
  123OSM   H14B13030   3.857   4.974   6.072 -2.1136  2.1794 -0.7511
  123OSM   H14C13031   3.848   4.987   6.253 -3.1009  0.1875  1.0486
  123OSM    C1313032   3.737   4.744   6.054  0.4757  0.2792 -0.1023
  123OSM   H13A13033   3.634   4.762   6.084 -0.1774 -1.4611 -1.1579
  123OSM   H13B13034   3.756   4.638   6.049  2.3727  0.6205 -0.9151
  123OSM   H13C13035   3.754   4.789   5.957  3.2260 -0.6561 -0.1177
  123OSM    C1213036   3.776   4.729   6.291 -0.0200  0.1061  0.1658
  123OSM   H12A13037   3.853   4.740   6.366  0.1382  0.8392 -0.0940
  123OSM   H12B13038   3.757   4.623   6.288  0.8907 -0.1218  1.6056
  123OSM    C1113039   3.635   4.770   6.351 -0.3375  0.6216 -0.8231
  123OSM   H11A13040   3.610   4.879   6.354 -2.1259  0.2160  0.4150
  123OSM   H11B13041   3.636   4.743   6.458  1.2372 -0.4122 -1.0589
  123OSM      P13042   3.498   4.546   6.298 -0.2101 -0.1236  0.0762
  123OSM    O1313043   3.396   4.507   6.205 -0.6964 -0.0678  0.1680
  123OSM    O1413044   3.630   4.478   6.289  0.1896 -0.2009 -0.0027
  123OSM    O1113045   3.437   4.540   6.450  0.2916 -0.7128 -0.1470
  123OSM    O1213046   3.531   4.698   6.286 -0.9133  0.0204 -0.1149
  123OSM    C1S13047   3.349   4.643   6.493  0.1863  0.2229  0.1546
  123OSM    H1S13048   3.249   4.601   6.469  0.8700 -2.0867  1.0446
  123OSM    H1T13049   3.354   4.745   6.450 -0.7809 -0.3669 -1.4672
  123OSM     NF13050   3.243   4.762   6.676 -0.3421 -0.0175  0.8544
  123OSM    HNF13051   3.276   4.856   6.683  0.3743 -0.3522  2.3898
  123OSM    C2S13052   3.352   4.669   6.645  0.5768 -0.6476 -0.0695
  123OSM    H2S13053   3.325   4.574   6.695 -2.9596  0.8088  1.0892
  123OSM    C3S13054   3.486   4.715   6.705 -0.3075 -0.1205 -0.4213
  123OSM    H3S13055   3.513   4.817   6.673 -0.5905  0.4787  1.1410
  123OSM     O313056   3.597   4.634   6.664 -0.6958  0.1540 -0.2566
  123OSM    HO313057   3.558   4.554   6.629  0.7473 -1.3303  1.3559
  123OSM    C4S13058   3.485   4.716   6.853  0.7482 -0.4961 -0.2996
  123OSM    H4S13059   3.470   4.615   6.895  0.5475 -0.2309  0.2766
  123OSM    C5S13060   3.494   4.822   6.941  0.8029  0.4712  0.9605
  123OSM    H5S13061   3.487   4.927   6.908  0.4351  0.7785  1.9938
  123OSM    C6S13062   3.484   4.801   7.088  0.2762  0.4909  0.1559
  123OSM    H6S13063   3.529   4.881   7.151  0.5935 -1.3709  2.4038
  123OSM    H6T13064   3.531   4.703   7.110 -0.8915  0.1622  1.3117
  123OSM    C7S13065   3.336   4.795   7.138 -0.5422 -0.2963  0.0724
  123OSM    H7S13066   3.274   4.732   7.071 -1.4270  2.1494 -1.5425
  123OSM    H7T13067   3.287   4.895   7.129  0.3519  0.1131 -0.4308
  123OSM    C8S13068   3.320   4.754   7.280 -0.3288 -0.6094  0.0728
  123OSM    H8S13069   3.369   4.655   7.289 -1.9242 -1.3317  1.3561
  123OSM    H8T13070   3.218   4.741   7.321 -0.3837  2.4010  1.1696
  123OSM    C9S13071   3.380   4.850   7.384  0.0798 -0.2869 -0.5942
  123OSM    H9S13072   3.350   4.955   7.363 -0.1924 -0.2004  0.1860
  123OSM    H9T13073   3.490   4.845   7.370  0.0794 -1.4504 -0.2168
  123OSM   C10S13074   3.365   4.804   7.527  0.0194 -0.6440 -0.8120
  123OSM   H10S13075   3.430   4.716   7.546 -0.6194 -0.6813  1.4981
  123OSM   H10T13076   3.258   4.775   7.534 -0.1674  0.0505 -0.7200
  123OSM   C11S13077   3.396   4.913   7.626  0.2656 -0.3255 -0.0869
  123OSM   H11S13078   3.356   5.010   7.589  3.3149 -0.2012 -3.6740
  123OSM   H11T13079   3.505   4.934   7.631  0.0103  0.9233  0.8548
  123OSM   C12S13080   3.346   4.885   7.773  0.6772  0.4876  0.1110
  123OSM   H12S13081   3.383   4.791   7.819 -1.9353 -0.2340  0.9254
  123OSM   H12T13082   3.236   4.870   7.761  0.2004  1.0201  2.9434
  123OSM   C13S13083   3.367   5.007   7.878  0.2750  0.4255 -0.2527
  123OSM   H13S13084   3.361   5.102   7.821 -0.1735  0.1450 -0.6846
  123OSM   H13T13085   3.467   5.001   7.926  0.2175 -0.3359 -0.2063
  123OSM   C14S13086   3.251   5.009   7.981 -0.4317  0.1392  0.7258
  123OSM   H14S13087   3.155   5.018   7.926 -0.5547 -1.8557  0.5634
  123OSM   H14T13088   3.258   5.103   8.040  0.4318 -0.2778  1.2963
  123OSM   C15S13089   3.246   4.888   8.082 -0.1766 -0.0876  1.1056
  123OSM   H15S13090   3.220   4.792   8.033 -0.8309  1.5024 -1.9159
  123OSM   H15T13091   3.163   4.897   8.155 -0.4400 -0.1934  0.8231
  123OSM   C16S13092   3.374   4.862   8.168  0.2065 -0.4901  0.0565
  123OSM   H16S13093   3.466   4.864   8.105  0.1999  0.0323  0.0570
  123OSM   H16T13094   3.364   4.762   8.214 -0.6780 -0.1501  0.6421
  123OSM   C17S13095   3.395   4.958   8.287 -0.6045  0.3751  0.0300
  123OSM   H17S13096   3.420   5.058   8.247  2.1048 -0.5345 -0.7586
  123OSM   H17T13097   3.481   4.914   8.341 -0.9316 -1.6213 -0.9442
  123OSM   C18S13098   3.270   4.965   8.384  0.3659 -0.1058 -0.1669
  123OSM   H18S13099   3.221   4.866   8.393  0.4276 -0.1543 -0.3582
  123OSM   H18T13100   3.203   5.049   8.354  1.5001  1.9767  2.6416
  123OSM   H18U13101   3.301   4.999   8.485  0.4495 -0.3723 -0.1023
  123OSM    C1F13102   3.123   4.718   6.680  0.5801 -0.3174 -1.1896
  123OSM     OF13103   3.096   4.601   6.712  0.0863  0.2727  0.1717
  123OSM    C2F13104   3.001   4.810   6.651 -0.3123 -0.3901  0.2658
  123OSM    H2F13105   2.935   4.758   6.578 -0.1635  0.8022 -0.7349
  123OSM    H2G13106   3.046   4.903   6.610 -1.1095  0.4491  1.2381
  123OSM    C3F13107   2.929   4.842   6.786 -0.2612 -0.3597  0.2085
  123OSM    H3F13108   2.891   4.748   6.831 -0.0164 -0.1612  0.8373
  123OSM    H3G13109   2.849   4.912   6.751 -1.6688 -1.7785  0.4629
  123OSM    C4F13110   3.025   4.920   6.886  0.7363  0.1386  0.1917
  123OSM    H4F13111   3.080   4.998   6.829  1.1120 -1.7132 -2.1472
  123OSM    H4G13112   3.094   4.840   6.922 -0.0439 -1.5369 -1.7955
  123OSM    C5F13113   2.942   4.982   6.999  0.0087 -0.7000 -0.3434
  123OSM    H5F13114   2.845   4.929   7.004  1.0982 -2.7375  0.4951
  123OSM    H5G13115   2.904   5.082   6.969  1.6701  0.3010  0.7467
  123OSM    C6F13116   3.015   5.003   7.129  0.4630  0.5419  0.4653
  123OSM    H6F13117   3.106   5.060   7.098 -0.1182  0.6971 -1.0495
  123OSM    H6G13118   3.051   4.902   7.157 -0.5140  0.3958  1.2157
  123OSM    C7F13119   2.924   5.065   7.232 -0.1061  0.1103  0.4923
  123OSM    H7F13120   2.855   4.987   7.270 -0.2205 -0.8267 -1.5643
  123OSM    H7G13121   2.863   5.135   7.171 -0.5184 -0.6344  0.0490
  123OSM    C8F13122   2.992   5.145   7.344  0.8242 -0.0760  0.6989
  123OSM    H8F13123   2.920   5.216   7.389  0.1381 -1.3498  1.6989
  123OSM    H8G13124   3.067   5.215   7.302 -1.6622  1.1278 -2.0614
  123OSM    C9F13125   3.050   5.062   7.449  0.2720  0.3661  0.4245
  123OSM    H9F13126   3.130   4.996   7.412 -0.1663  1.4535 -2.7793
  123OSM   C10F13127   3.007   5.051   7.573  0.5095  1.1228  0.0197
  123OSM   H10F13128   3.053   4.975   7.638 -0.0586  0.5195 -0.2655
  123OSM   C11F13129   2.884   5.122   7.627  0.9600  0.2670  0.0769
  123OSM   H11F13130   2.835   5.048   7.695 -1.3311  1.5811 -0.0324
  123OSM   H11G13131   2.814   5.138   7.542  0.8521  1.8506  0.4288
  123OSM   C12F13132   2.915   5.255   7.697 -0.4271  0.4148  0.3870
  123OSM   H12F13133   2.819   5.293   7.739  0.6964  1.3110  2.2742
  123OSM   H12G13134   2.954   5.327   7.621  0.5529  0.1130  0.5915
  123OSM   C13F13135   3.019   5.230   7.810 -0.1848 -0.0973  0.4685
  123OSM   H13F13136   3.120   5.216   7.766 -0.1312 -0.4781  0.7104
  123OSM   H13G13137   3.006   5.131   7.858  0.5933  0.3796  1.7143
  123OSM   C14F13138   3.023   5.342   7.913 -0.1240 -0.1618 -0.0927
  123OSM   H14F13139   3.032   5.432   7.849 -0.5122  1.3506  1.8686
  123OSM   H14G13140   3.114   5.338   7.977 -0.7884  0.8602  0.9716
  123OSM   C15F13141   2.906   5.350   8.009 -0.1205 -0.6202  0.7128
  123OSM   H15F13142   2.887   5.244   8.036 -1.8819 -0.4215  0.3530
  123OSM   H15G13143   2.814   5.389   7.961 -0.3101 -1.4005  0.4308
  123OSM   C16F13144   2.942   5.434   8.129 -0.0584  0.0379  0.2208
  123OSM   H16F13145   2.849   5.475   8.175  1.7648  2.6031  1.9100
  123OSM   H16G13146   2.990   5.523   8.085 -0.3422 -1.3373 -3.1775
  123OSM   C17F13147   3.037   5.380   8.235  0.5433  0.3687 -0.1407
  123OSM   H17F13148   3.130   5.350   8.184  1.9513  1.4630  1.6591
  123OSM   H17G13149   2.981   5.294   8.279 -2.0946  0.5265 -2.8778
  123OSM   C18F13150   3.076   5.478   8.347  0.1087 -0.3084  0.1377
  123OSM   H18F13151   3.147   5.552   8.305  0.5508 -1.1258 -0.5816
  123OSM   H18G13152   3.122   5.423   8.432 -2.6082 -2.0748  0.6235
  123OSM   H18H13153   2.985   5.535   8.376  0.6864  0.4309  0.5161
  124OSM      N13154   6.338   6.366   6.061  0.0154 -0.1850 -0.0506
  124OSM    C1513155   6.461   6.289   6.091 -0.4518 -0.0709  0.0702
  124OSM   H15A13156   6.549   6.349   6.069 -0.2995 -0.2328  0.2414
  124OSM   H15B13157   6.469   6.201   6.030  0.3003  1.6084 -2.4376
  124OSM   H15C13158   6.468   6.260   6.195 -1.8760 -0.4074  0.0895
  124OSM    C1413159   6.316   6.381   5.917  0.9519  0.4654  0.1160
  124OSM   H14A13160   6.400   6.428   5.867 -0.1960  0.0854 -2.3198
  124OSM   H14B13161   6.231   6.446   5.907  0.1579 -0.1015  2.5336
  124OSM   H14C13162   6.288   6.286   5.873  2.7223 -0.5203  0.9996
  124OSM    C1313163   6.231   6.281   6.130 -0.4648  0.4803 -0.1736
  124OSM   H13A13164   6.130   6.317   6.118  0.4663  3.4126  0.1058
  124OSM   H13B13165   6.262   6.270   6.233 -2.2938 -0.3831  0.3359
  124OSM   H13C13166   6.239   6.179   6.094  2.1922  0.6121 -0.1463
  124OSM    C1213167   6.345   6.505   6.121 -0.0811  0.3986  0.2925
  124OSM   H12A13168   6.248   6.551   6.109  0.9524  2.6015 -0.2403
  124OSM   H12B13169   6.420   6.564   6.068 -0.0127  0.6623  0.6802
  124OSM    C1113170   6.371   6.510   6.278 -0.8973 -0.4894  0.4617
  124OSM   H11A13171   6.414   6.608   6.307  2.4972 -1.7388  0.1741
  124OSM   H11B13172   6.462   6.449   6.299  1.5957  2.9150  0.4502
  124OSM      P13173   6.128   6.555   6.361  0.2360  0.2822  0.1546
  124OSM    O1313174   6.120   6.637   6.235 -0.2763 -0.7530  0.0176
  124OSM    O1413175   6.010   6.471   6.394  0.2267  0.2209 -0.5704
  124OSM    O1113176   6.161   6.657   6.479 -0.3181 -0.0904  0.1884
  124OSM    O1213177   6.261   6.457   6.355  0.1657  0.8456 -0.0291
  124OSM    C1S13178   6.227   6.608   6.594  0.5520 -0.0612  1.0487
  124OSM    H1S13179   6.332   6.586   6.565  1.2461  3.2747  0.7396
  124OSM    H1T13180   6.170   6.523   6.639 -0.1128 -0.9764 -1.3705
  124OSM     NF13181   6.289   6.661   6.831  0.2445  0.1796 -0.2867
  124OSM    HNF13182   6.228   6.644   6.908 -2.1845 -2.8148 -2.6012
  124OSM    C2S13183   6.231   6.717   6.705  0.0766 -0.1275  0.4727
  124OSM    H2S13184   6.286   6.799   6.655  0.1722 -0.9709 -0.8762
  124OSM    C3S13185   6.090   6.794   6.736 -0.7151 -0.1731  0.0847
  124OSM    H3S13186   6.033   6.711   6.781 -1.6612  0.8743  0.8694
  124OSM     O313187   6.024   6.837   6.621  0.4118  0.1263  0.3303
  124OSM    HO313188   6.077   6.810   6.547  1.1360 -0.3447  1.0015
  124OSM    C4S13189   6.110   6.909   6.834  0.0553  0.1966 -0.2612
  124OSM    H4S13190   6.101   6.874   6.938 -0.9158 -1.1913 -0.7818
  124OSM    C5S13191   6.122   7.043   6.804  0.3726  0.2993  0.0238
  124OSM    H5S13192   6.123   7.063   6.696 -3.4712 -1.1414 -0.4430
  124OSM    C6S13193   6.147   7.159   6.899 -0.2591 -0.0474 -0.1171
  124OSM    H6S13194   6.059   7.227   6.905  1.2057  2.2218 -2.1917
  124OSM    H6T13195   6.230   7.216   6.852 -1.1838  1.7434  0.3166
  124OSM    C7S13196   6.205   7.110   7.039 -0.1323 -0.7122 -0.5346
  124OSM    H7S13197   6.267   7.195   7.072 -2.1787  1.4621 -1.9846
  124OSM    H7T13198   6.264   7.017   7.024  2.4695  0.6861  0.5015
  124OSM    C8S13199   6.104   7.092   7.149  0.5260 -0.4979  0.4621
  124OSM    H8S13200   6.026   7.029   7.102 -0.8634  1.5448 -0.1362
  124OSM    H8T13201   6.049   7.188   7.161 -0.8452 -1.1670 -0.2725
  124OSM    C9S13202   6.169   7.028   7.269 -0.0665 -0.7866 -0.1506
  124OSM    H9S13203   6.258   7.089   7.294 -1.3271 -0.0987  3.2577
  124OSM    H9T13204   6.200   6.927   7.237  0.9117 -1.2164  1.9743
  124OSM   C10S13205   6.078   7.009   7.392 -0.1614 -0.0680 -0.0260
  124OSM   H10S13206   5.976   6.966   7.380 -0.3405  0.0087  1.1352
  124OSM   H10T13207   6.073   7.102   7.451  0.9201  0.8501 -1.3203
  124OSM   C11S13208   6.148   6.907   7.487 -0.4438  0.2306 -0.0151
  124OSM   H11S13209   6.253   6.938   7.505  0.3957 -0.8089 -2.5995
  124OSM   H11T13210   6.143   6.819   7.419 -1.6746  1.1091 -1.1117
  124OSM   C12S13211   6.073   6.874   7.614 -0.0502 -0.1506 -0.5504
  124OSM   H12S13212   6.122   6.791   7.670  0.6604  1.6037  1.5622
  124OSM   H12T13213   5.969   6.837   7.598 -0.4420  0.1965  1.0080
  124OSM   C13S13214   6.054   6.993   7.713  0.1538 -1.1354  0.6971
  124OSM   H13S13215   5.991   7.069   7.662 -0.5477 -1.3054  1.2827
  124OSM   H13T13216   6.149   7.050   7.723  1.3288 -2.3590 -2.3580
  124OSM   C14S13217   5.980   6.965   7.841  0.3375 -0.4567 -0.3770
  124OSM   H14S13218   6.047   6.891   7.891  0.0878  0.0036  0.6604
  124OSM   H14T13219   5.884   6.915   7.814 -0.2014  0.1747  0.3248
  124OSM   C15S13220   5.959   7.083   7.938 -0.7557 -0.1529 -0.1944
  124OSM   H15S13221   5.896   7.146   7.872 -0.0676  2.2340  1.2949
  124OSM   H15T13222   6.054   7.126   7.976 -0.5634 -1.5163  0.9386
  124OSM   C16S13223   5.886   7.030   8.065  0.9493  0.3857 -0.0425
  124OSM   H16S13224   5.800   6.972   8.025  0.2573  1.5673 -0.2967
  124OSM   H16T13225   5.843   7.106   8.134 -1.3519 -1.0415  0.2205
  124OSM   C17S13226   5.962   6.916   8.140  0.1415  0.0532 -0.4797
  124OSM   H17S13227   6.068   6.944   8.153  0.0285  0.9391 -1.3532
  124OSM   H17T13228   5.960   6.821   8.082 -3.6017 -1.3293  1.5353
  124OSM   C18S13229   5.904   6.891   8.280  0.4681  0.0255  0.3124
  124OSM   H18S13230   5.800   6.858   8.258  0.7544 -0.4854 -0.3166
  124OSM   H18T13231   5.891   6.981   8.344 -1.0671 -0.3982  0.6447
  124OSM   H18U13232   5.951   6.803   8.329 -0.3572 -0.1387  0.8224
  124OSM    C1F13233   6.416   6.612   6.829  0.2406 -0.1589  0.0814
  124OSM     OF13234   6.501   6.666   6.759 -0.0947  0.0008 -0.9917
  124OSM    C2F13235   6.451   6.508   6.926 -0.5209 -0.2781  0.0126
  124OSM    H2F13236   6.364   6.465   6.981 -0.4473 -0.3630  0.0638
  124OSM    H2G13237   6.509   6.563   7.003  0.5932  0.0650 -1.0440
  124OSM    C3F13238   6.538   6.383   6.873 -0.5434  0.2167  0.3681
  124OSM    H3F13239   6.632   6.404   6.818 -0.6773 -0.7716 -0.2594
  124OSM    H3G13240   6.477   6.312   6.813  0.1130  0.5122 -0.6823
  124OSM    C4F13241   6.583   6.302   6.998  0.5005  0.4448  0.7669
  124OSM    H4F13242   6.620   6.200   6.973  0.1321  0.8006 -1.4010
  124OSM    H4G13243   6.491   6.279   7.057  0.6113 -0.5033  0.5829
  124OSM    C5F13244   6.693   6.366   7.079 -0.9172 -0.3200 -0.2252
  124OSM    H5F13245   6.674   6.470   7.116 -0.2332  0.1250 -1.0918
  124OSM    H5G13246   6.785   6.382   7.019 -1.1985  0.0755 -0.5594
  124OSM    C6F13247   6.758   6.285   7.195  0.7002 -0.3266  0.0825
  124OSM    H6F13248   6.853   6.331   7.229  1.3182 -2.5221  1.5265
  124OSM    H6G13249   6.784   6.180   7.171  0.6253 -0.6463  1.3480
  124OSM    C7F13250   6.665   6.288   7.314  0.0531  0.4727  0.1754
  124OSM    H7F13251   6.579   6.235   7.268  1.1776  0.0067 -1.4813
  124OSM    H7G13252   6.636   6.389   7.348  1.5725  0.6282  1.1396
  124OSM    C8F13253   6.709   6.193   7.427 -0.1734  0.2051 -0.3759
  124OSM    H8F13254   6.807   6.227   7.465  0.2573  0.2386 -1.4700
  124OSM    H8G13255   6.731   6.092   7.388 -1.4365 -0.1671 -0.1666
  124OSM    C9F13256   6.611   6.201   7.539 -0.1274  0.5412  0.0351
  124OSM    H9F13257   6.509   6.192   7.500 -0.2942  1.3974  0.2787
  124OSM   C10F13258   6.623   6.223   7.666 -0.5272  0.7532 -1.1448
  124OSM   H10F13259   6.540   6.208   7.737  1.2082  1.0554  1.0716
  124OSM   C11F13260   6.751   6.262   7.740 -0.0082 -0.1885 -1.0438
  124OSM   H11F13261   6.742   6.370   7.762  2.9811  0.1684 -1.2238
  124OSM   H11G13262   6.844   6.243   7.683  1.5084 -1.6594  1.7017
  124OSM   C12F13263   6.751   6.191   7.882  0.4565 -0.0831 -0.0450
  124OSM   H12F13264   6.851   6.208   7.927  0.2617 -0.6126  0.5989
  124OSM   H12G13265   6.751   6.081   7.869 -0.5999 -0.3239  1.6789
  124OSM   C13F13266   6.651   6.252   7.982 -0.6189  0.6775 -0.5092
  124OSM   H13F13267   6.549   6.211   7.970 -0.3397 -0.3982  0.5337
  124OSM   H13G13268   6.640   6.362   7.972  1.0770  1.0725  1.1283
  124OSM   C14F13269   6.679   6.208   8.125  0.1691 -0.2411 -0.5253
  124OSM   H14F13270   6.760   6.282   8.142  0.0414  0.0366 -1.1259
  124OSM   H14G13271   6.725   6.107   8.135 -2.1344 -1.3186 -0.1444
  124OSM   C15F13272   6.571   6.238   8.230  0.1577  0.2870  0.3335
  124OSM   H15F13273   6.490   6.163   8.218  1.6379 -1.0851 -1.6898
  124OSM   H15G13274   6.537   6.339   8.198  3.1719  0.6810 -2.1357
  124OSM   C16F13275   6.616   6.240   8.374  0.0658 -0.5702 -0.7777
  124OSM   H16F13276   6.706   6.304   8.384 -0.3202 -0.0945 -0.3270
  124OSM   H16G13277   6.647   6.138   8.405 -0.0060 -0.1828  0.6341
  124OSM   C17F13278   6.509   6.297   8.473 -0.6665  0.6683  0.2135
  124OSM   H17F13279   6.556   6.283   8.573 -1.3627 -0.3259  0.4153
  124OSM   H17G13280   6.420   6.231   8.482  0.3810 -0.9278 -0.5299
  124OSM   C18F13281   6.475   6.442   8.449  0.5464  0.0244 -0.5309
  124OSM   H18F13282   6.397   6.489   8.513 -0.4610  0.0888 -1.7855
  124OSM   H18G13283   6.450   6.457   8.342 -0.6433  3.1940  0.0664
  124OSM   H18H13284   6.575   6.492   8.456  1.1630 -1.3471  1.2974
  125OSM      N13285   3.597   3.200   6.130 -0.4733 -0.0369 -0.6359
  125OSM    C1513286   3.474   3.147   6.065  0.0213 -0.0899 -0.2823
  125OSM   H15A13287   3.506   3.072   5.994 -0.7341 -2.7459  2.0127
  125OSM   H15B13288   3.425   3.220   6.002  0.1827  0.8511  0.6520
  125OSM   H15C13289   3.397   3.108   6.131  0.4392  2.6253  1.9898
  125OSM    C1413290   3.662   3.098   6.221  0.2886 -0.1705  0.1576
  125OSM   H14A13291   3.752   3.143   6.260 -0.4975  3.6583 -1.9761
  125OSM   H14B13292   3.690   3.004   6.174  1.2137  0.0838  0.1921
  125OSM   H14C13293   3.602   3.089   6.310  0.7789  2.6339  0.8589
  125OSM    C1313294   3.700   3.234   6.030  0.5313 -0.3517  0.7913
  125OSM   H13A13295   3.677   3.334   5.996  0.6483 -0.8568 -0.8531
  125OSM   H13B13296   3.688   3.163   5.949  0.9984  0.2819  0.1560
  125OSM   H13C13297   3.802   3.226   6.066  0.4066  1.2077  1.5256
  125OSM    C1213298   3.556   3.328   6.217  0.1082  0.3194  0.6717
  125OSM   H12A13299   3.503   3.393   6.148 -0.0408  0.1024  0.5823
  125OSM   H12B13300   3.644   3.387   6.238  1.3384 -1.1833 -0.0573
  125OSM    C1113301   3.479   3.308   6.357  0.6414 -0.0135 -0.2666
  125OSM   H11A13302   3.387   3.251   6.330  0.2061  0.6675 -0.2537
  125OSM   H11B13303   3.449   3.407   6.398  3.2603 -0.6448  3.6818
  125OSM      P13304   3.687   3.323   6.492 -0.3240 -0.0349 -0.1580
  125OSM    O1313305   3.808   3.254   6.444 -0.2219  0.5708 -0.0508
  125OSM    O1413306   3.682   3.466   6.469 -0.6301 -0.0264  0.3356
  125OSM    O1113307   3.682   3.304   6.650  0.3236  0.2890  0.0266
  125OSM    O1213308   3.555   3.238   6.445 -0.5379 -0.0011  0.0345
  125OSM    C1S13309   3.558   3.348   6.710  0.1118  0.8295 -0.2198
  125OSM    H1S13310   3.468   3.302   6.664  0.3861  1.5716 -1.5461
  125OSM    H1T13311   3.549   3.458   6.713 -0.1293  0.7910  0.6401
  125OSM     NF13312   3.424   3.310   6.922 -0.4188  0.0272  0.1869
  125OSM    HNF13313   3.397   3.392   6.973  2.1714  0.8162  0.4409
  125OSM    C2S13314   3.559   3.307   6.863  0.1068 -0.1382 -0.4393
  125OSM    H2S13315   3.594   3.202   6.873  0.3051 -0.0762 -0.4894
  125OSM    C3S13316   3.658   3.396   6.938 -1.2003  0.1717 -0.3994
  125OSM    H3S13317   3.636   3.505   6.934 -0.2856  0.3187 -2.3549
  125OSM     O313318   3.800   3.392   6.901  0.4813  0.2842 -0.3726
  125OSM    HO313319   3.808   3.336   6.824  3.1120 -2.2826  1.5341
  125OSM    C4S13320   3.663   3.351   7.087  0.0927  0.3596  0.3228
  125OSM    H4S13321   3.734   3.272   7.115  0.2438  0.9642  1.7511
  125OSM    C5S13322   3.597   3.411   7.189 -0.8194 -0.0902 -0.4686
  125OSM    H5S13323   3.544   3.504   7.163 -0.0389 -0.3017 -3.1383
  125OSM    C6S13324   3.609   3.383   7.334 -0.5329 -0.2216  0.0575
  125OSM    H6S13325   3.624   3.474   7.396 -1.0251 -0.7472  0.9771
  125OSM    H6T13326   3.695   3.314   7.349  0.8810  1.1497 -1.3450
  125OSM    C7S13327   3.476   3.322   7.372 -0.0918 -0.0213  0.2962
  125OSM    H7S13328   3.453   3.236   7.306  0.4600 -0.1743  0.2957
  125OSM    H7T13329   3.400   3.402   7.364  0.8186  0.7349 -1.1385
  125OSM    C8S13330   3.487   3.277   7.518  0.5208 -0.1851 -0.8675
  125OSM    H8S13331   3.499   3.364   7.587  0.0543  0.2283 -1.2972
  125OSM    H8T13332   3.568   3.203   7.527 -0.3184 -1.2677 -1.8822
  125OSM    C9S13333   3.348   3.204   7.568 -0.4153 -0.1976 -0.1321
  125OSM    H9S13334   3.329   3.107   7.519  0.2210 -0.7812  0.7568
  125OSM    H9T13335   3.273   3.283   7.544  1.2110  1.2025 -0.8156
  125OSM   C10S13336   3.355   3.186   7.721  0.4737  0.0694  0.1793
  125OSM   H10S13337   3.390   3.282   7.765  3.2233  0.1735 -1.9037
  125OSM   H10T13338   3.427   3.103   7.740 -0.1933 -0.0988  2.1813
  125OSM   C11S13339   3.227   3.135   7.797  0.0377 -0.4197 -0.9114
  125OSM   H11S13340   3.190   3.038   7.759  0.8622 -2.1084  2.2721
  125OSM   H11T13341   3.145   3.209   7.789 -0.8448 -1.0112  1.8607
  125OSM   C12S13342   3.264   3.118   7.954  0.7486 -0.1625 -0.4903
  125OSM   H12S13343   3.185   3.161   8.018  0.7982  1.4280 -1.4393
  125OSM   H12T13344   3.364   3.159   7.979  1.5494 -1.3785 -1.5610
  125OSM   C13S13345   3.283   2.969   7.981  0.1907  0.5916 -0.8306
  125OSM   H13S13346   3.318   2.925   7.886  0.8022 -2.2270  0.5938
  125OSM   H13T13347   3.183   2.923   8.000  0.7190 -0.4209 -0.4349
  125OSM   C14S13348   3.374   2.940   8.109  0.6534 -0.3888  0.1613
  125OSM   H14S13349   3.477   2.976   8.089  0.2509  0.3042 -0.7421
  125OSM   H14T13350   3.386   2.831   8.123 -0.7552 -0.4623  0.9922
  125OSM   C15S13351   3.313   3.001   8.248 -0.0023 -0.0511  0.3450
  125OSM   H15S13352   3.221   2.944   8.271 -0.6520  1.1034  0.6763
  125OSM   H15T13353   3.285   3.107   8.231  0.9631 -0.0850 -1.8708
  125OSM   C16S13354   3.405   2.990   8.371 -0.2720  0.1408 -0.1543
  125OSM   H16S13355   3.493   3.054   8.347 -0.6775  0.7117 -0.1341
  125OSM   H16T13356   3.444   2.886   8.375 -0.6873 -0.0003  0.2503
  125OSM   C17S13357   3.351   3.024   8.506 -0.2860  0.0713 -0.3480
  125OSM   H17S13358   3.415   2.978   8.584 -0.6774  1.2005  0.6693
  125OSM   H17T13359   3.244   2.996   8.510 -0.6536  1.2404 -1.3565
  125OSM   C18S13360   3.340   3.174   8.511  0.1208  0.4174 -1.1465
  125OSM   H18S13361   3.288   3.218   8.599  0.3611  0.1561 -0.8724
  125OSM   H18T13362   3.268   3.215   8.437 -1.1849  1.8987  0.8327
  125OSM   H18U13363   3.441   3.217   8.495  1.2228 -1.0354  1.2956
  125OSM    C1F13364   3.340   3.218   6.886 -0.7203 -0.7526  0.2553
  125OSM     OF13365   3.361   3.125   6.812  0.3309  0.6050 -0.4098
  125OSM    C2F13366   3.215   3.235   6.957 -0.2005 -0.0695 -0.0649
  125OSM    H2F13367   3.155   3.313   6.905 -2.8305 -2.3350 -0.6691
  125OSM    H2G13368   3.235   3.272   7.060 -2.0140  1.4188 -0.2030
  125OSM    C3F13369   3.135   3.101   6.955  0.5411 -0.4113 -0.0668
  125OSM    H3F13370   3.115   3.061   6.853  0.6668 -3.7892  1.1141
  125OSM    H3G13371   3.030   3.120   6.986 -0.2479  2.4694 -3.7869
  125OSM    C4F13372   3.188   2.981   7.040 -0.7430  0.5022 -0.0848
  125OSM    H4F13373   3.284   2.943   6.999 -0.3531 -1.5454  2.4508
  125OSM    H4G13374   3.127   2.888   7.040 -1.6591  1.0149 -2.3844
  125OSM    C5F13375   3.213   3.006   7.192 -0.2828  0.1876 -0.2323
  125OSM    H5F13376   3.202   3.114   7.217 -0.0068  0.0730  0.3738
  125OSM    H5G13377   3.314   2.971   7.221 -0.3450 -0.2695 -0.5444
  125OSM    C6F13378   3.102   2.935   7.275  0.0035 -0.0429  0.2085
  125OSM    H6F13379   3.105   2.824   7.268 -3.0687 -0.1778 -0.6078
  125OSM    H6G13380   3.002   2.965   7.236 -0.5948  0.1101  1.7949
  125OSM    C7F13381   3.105   2.980   7.423  0.3144  0.7176 -0.3722
  125OSM    H7F13382   3.127   3.088   7.435 -1.9568  0.9636  3.3719
  125OSM    H7G13383   3.189   2.936   7.481 -1.0175  1.1359  2.0108
  125OSM    C8F13384   2.982   2.943   7.504 -0.0409 -0.1834  0.1289
  125OSM    H8F13385   3.024   2.938   7.607 -1.7379 -2.8008  0.7729
  125OSM    H8G13386   2.955   2.839   7.476 -0.1113 -0.4525  1.1550
  125OSM    C9F13387   2.873   3.052   7.488  0.1298 -1.3769 -0.8425
  125OSM    H9F13388   2.905   3.154   7.461 -2.3292  1.1652  4.3304
  125OSM   C10F13389   2.737   3.029   7.513 -0.5229  0.6377  0.0975
  125OSM   H10F13390   2.665   3.109   7.488 -0.8670  0.1920 -0.3729
  125OSM   C11F13391   2.667   2.904   7.558 -0.5443 -0.1354  0.2701
  125OSM   H11F13392   2.745   2.826   7.569  0.0193  0.6454  2.1357
  125OSM   H11G13393   2.593   2.874   7.480  0.0036 -3.0385  0.7424
  125OSM   C12F13394   2.583   2.913   7.688  0.2302 -0.3978 -0.6664
  125OSM   H12F13395   2.533   2.815   7.698  2.0999 -1.2499  0.9844
  125OSM   H12G13396   2.510   2.998   7.686  1.2507  0.6917  2.1924
  125OSM   C13F13397   2.664   2.930   7.817 -0.1407 -0.0535  0.0636
  125OSM   H13F13398   2.706   3.033   7.823  0.4111 -0.2700 -0.0126
  125OSM   H13G13399   2.750   2.860   7.813 -1.6828 -1.9778 -0.4634
  125OSM   C14F13400   2.601   2.913   7.958  0.1919  0.4709 -0.3453
  125OSM   H14F13401   2.581   2.804   7.965 -0.6342  0.6618  0.3485
  125OSM   H14G13402   2.500   2.959   7.964 -0.8322 -1.8687  1.7637
  125OSM   C15F13403   2.678   2.948   8.082  0.6918 -0.7675 -0.0399
  125OSM   H15F13404   2.628   2.919   8.177  3.4476  0.8371  2.0648
  125OSM   H15G13405   2.688   3.058   8.091 -0.0804 -0.7893  1.4215
  125OSM   C16F13406   2.816   2.888   8.081  0.3763  0.3244 -0.6367
  125OSM   H16F13407   2.870   2.927   7.992 -1.9910  2.8092 -1.1418
  125OSM   H16G13408   2.821   2.777   8.079 -2.7463 -0.0269  2.2544
  125OSM   C17F13409   2.887   2.938   8.208  0.1898  0.2794  0.5436
  125OSM   H17F13410   2.873   3.044   8.239  2.6729  0.9198 -0.3252
  125OSM   H17G13411   2.990   2.937   8.166 -0.3037 -2.2672 -0.8209
  125OSM   C18F13412   2.877   2.841   8.329 -0.6972  0.2486 -0.2801
  125OSM   H18F13413   2.905   2.884   8.427 -1.2507 -1.6543  0.7494
  125OSM   H18G13414   2.942   2.752   8.315  1.8174  2.1532 -1.7383
  125OSM   H18H13415   2.774   2.803   8.343 -1.2711  1.1782 -1.7362
  126OSM      N13416   4.671   3.244   6.458  0.5751 -0.1780 -0.6101
  126OSM    C1513417   4.803   3.186   6.410  0.7516  0.2085  0.4254
  126OSM   H15A13418   4.870   3.186   6.494  0.2218  3.2790  0.9556
  126OSM   H15B13419   4.855   3.250   6.341  2.6073 -2.0193 -0.3558
  126OSM   H15C13420   4.794   3.080   6.392 -0.3035  0.2116  0.8337
  126OSM    C1413421   4.634   3.157   6.579 -0.1807 -0.1947 -0.2537
  126OSM   H14A13422   4.701   3.154   6.663  0.8449 -2.2276 -1.0718
  126OSM   H14B13423   4.621   3.054   6.550  2.4152 -0.3279 -1.1519
  126OSM   H14C13424   4.538   3.188   6.617 -0.3926  0.8828 -1.5666
  126OSM    C1313425   4.698   3.383   6.509  0.1016 -0.0353  0.3707
  126OSM   H13A13426   4.759   3.373   6.597 -0.3192 -1.6839  0.5111
  126OSM   H13B13427   4.605   3.431   6.536 -1.8051 -2.1894 -1.7984
  126OSM   H13C13428   4.761   3.440   6.443  2.6487 -1.8459  1.0531
  126OSM    C1213429   4.563   3.240   6.358  0.4055 -0.3750 -0.5592
  126OSM   H12A13430   4.578   3.154   6.295  2.2410  1.4751 -2.8356
  126OSM   H12B13431   4.588   3.322   6.292 -0.6734  0.0311 -0.4807
  126OSM    C1113432   4.418   3.258   6.407 -0.0421  0.1905  0.1452
  126OSM   H11A13433   4.393   3.171   6.471 -0.9766  0.3366 -0.0113
  126OSM   H11B13434   4.358   3.261   6.314 -1.2822  3.0385  0.9325
  126OSM      P13435   4.311   3.498   6.430 -0.0329  0.2083 -0.1088
  126OSM    O1313436   4.340   3.625   6.504 -0.2997 -0.3461  0.4032
  126OSM    O1413437   4.314   3.496   6.282  0.2644 -0.1875 -0.9327
  126OSM    O1113438   4.174   3.451   6.488  0.2876 -0.2721 -0.2988
  126OSM    O1213439   4.410   3.383   6.481 -0.0719 -0.3610  0.0449
  126OSM    C1S13440   4.143   3.444   6.630 -0.5101  0.5577  0.6565
  126OSM    H1S13441   4.237   3.434   6.688 -1.2192  2.4783  2.2503
  126OSM    H1T13442   4.072   3.360   6.644 -0.2164  0.7008  3.4277
  126OSM     NF13443   4.038   3.546   6.821 -0.2101 -0.0187 -0.1479
  126OSM    HNF13444   3.953   3.498   6.839 -0.4581  0.4277 -0.1322
  126OSM    C2S13445   4.072   3.571   6.675  1.2335 -0.5923  0.2011
  126OSM    H2S13446   4.144   3.656   6.666  1.1988 -0.4082  1.5610
  126OSM    C3S13447   3.950   3.599   6.591 -0.5047  0.0370 -0.2489
  126OSM    H3S13448   3.889   3.507   6.582  1.2795 -1.0837 -1.4346
  126OSM     O313449   3.986   3.633   6.455  0.0892 -0.1834 -0.2549
  126OSM    HO313450   4.081   3.619   6.463 -0.3031 -2.2147  1.7271
  126OSM    C4S13451   3.881   3.715   6.652  0.0808 -0.5458 -0.2415
  126OSM    H4S13452   3.944   3.805   6.656 -0.8417  0.0877  0.3130
  126OSM    C5S13453   3.755   3.735   6.686  1.0167  0.2269 -0.2061
  126OSM    H5S13454   3.686   3.650   6.683  1.1184  0.0648  1.2136
  126OSM    C6S13455   3.704   3.866   6.746  0.5230 -0.3922  1.2945
  126OSM    H6S13456   3.625   3.902   6.677  1.2221  0.1023  0.7359
  126OSM    H6T13457   3.779   3.947   6.754  1.0205 -0.2456 -2.7642
  126OSM    C7S13458   3.641   3.862   6.883 -0.3986 -0.5281 -0.3013
  126OSM    H7S13459   3.560   3.787   6.894 -0.5188 -0.3633 -0.0417
  126OSM    H7T13460   3.595   3.959   6.913 -1.5644 -0.9418 -0.7111
  126OSM    C8S13461   3.740   3.824   6.992 -0.5738  0.0839  0.4534
  126OSM    H8S13462   3.823   3.898   6.992  0.4271 -1.0139  0.0354
  126OSM    H8T13463   3.789   3.728   6.966 -1.2136 -0.5280  1.4430
  126OSM    C9S13464   3.686   3.822   7.138  0.5365 -0.1782  0.3772
  126OSM    H9S13465   3.602   3.749   7.147 -0.7436  1.3717  1.5725
  126OSM    H9T13466   3.634   3.918   7.159 -0.5111 -0.4282 -0.9164
  126OSM   C10S13467   3.787   3.791   7.243  0.6369  0.0014  0.1613
  126OSM   H10S13468   3.885   3.838   7.220 -0.5276  2.3727 -0.2178
  126OSM   H10T13469   3.790   3.680   7.236  0.0318  0.0467 -1.1321
  126OSM   C11S13470   3.743   3.846   7.377  0.1144 -0.2810 -0.6805
  126OSM   H11S13471   3.633   3.851   7.390  0.4425  1.0930  2.5530
  126OSM   H11T13472   3.765   3.955   7.375 -1.3503  0.0728  0.5591
  126OSM   C12S13473   3.784   3.767   7.498  0.3852  0.0433  0.0171
  126OSM   H12S13474   3.894   3.754   7.491  0.6511  1.2211  1.5653
  126OSM   H12T13475   3.731   3.670   7.514  0.4107 -0.1977 -1.2729
  126OSM   C13S13476   3.762   3.849   7.624  0.5141 -0.4473 -0.2465
  126OSM   H13S13477   3.655   3.877   7.632  0.4589 -1.1094  1.7541
  126OSM   H13T13478   3.821   3.941   7.603  2.6613 -1.7175 -0.1171
  126OSM   C14S13479   3.801   3.780   7.756  0.6736 -0.0282  0.8170
  126OSM   H14S13480   3.909   3.755   7.745  0.6730  0.3715 -0.1443
  126OSM   H14T13481   3.742   3.686   7.767 -1.7647  1.5377  1.8472
  126OSM   C15S13482   3.781   3.874   7.881 -0.1046  0.3223  0.2895
  126OSM   H15S13483   3.676   3.860   7.912 -0.4322 -2.1314 -1.6695
  126OSM   H15T13484   3.787   3.983   7.857 -2.7548  0.4392 -0.0739
  126OSM   C16S13485   3.872   3.832   7.988 -0.3131  1.1136  0.0804
  126OSM   H16S13486   3.974   3.861   7.954  0.3087 -1.4021 -0.4031
  126OSM   H16T13487   3.865   3.722   7.998 -1.0142  0.8559 -2.5263
  126OSM   C17S13488   3.840   3.895   8.122 -0.3647  0.2445  0.4503
  126OSM   H17S13489   3.743   3.847   8.147  0.1595 -1.5184 -0.6767
  126OSM   H17T13490   3.812   4.001   8.106 -0.2048  0.1002 -0.9934
  126OSM   C18S13491   3.936   3.867   8.234 -0.0542  0.3658 -0.6727
  126OSM   H18S13492   4.028   3.929   8.224  0.5814 -0.6307 -1.1795
  126OSM   H18T13493   3.972   3.762   8.237 -1.7354 -0.2371 -0.3538
  126OSM   H18U13494   3.885   3.895   8.328  1.5560  0.7673  0.1201
  126OSM    C1F13495   4.128   3.550   6.922  0.8462  0.0476  0.3513
  126OSM     OF13496   4.252   3.544   6.903 -0.0191  0.0521  0.2298
  126OSM    C2F13497   4.068   3.562   7.058  0.3487  0.1632  0.8797
  126OSM    H2F13498   3.990   3.484   7.073 -0.7789  1.2059  0.5293
  126OSM    H2G13499   4.022   3.662   7.066  1.3978  0.5048  3.9414
  126OSM    C3F13500   4.171   3.552   7.178 -0.0802 -1.1687 -0.3949
  126OSM    H3F13501   4.260   3.611   7.146  0.8458 -2.3056  0.0375
  126OSM    H3G13502   4.211   3.453   7.208  1.0884 -0.6996 -0.3696
  126OSM    C4F13503   4.119   3.614   7.308 -0.7982  0.5949 -0.4376
  126OSM    H4F13504   4.011   3.590   7.318 -1.0508  1.9433  0.3165
  126OSM    H4G13505   4.135   3.724   7.307  0.1070  0.4682 -0.9806
  126OSM    C5F13506   4.201   3.560   7.427 -0.2369 -0.3911 -0.0891
  126OSM    H5F13507   4.306   3.582   7.399  0.5293 -2.9922  0.5317
  126OSM    H5G13508   4.197   3.449   7.430 -0.8173 -0.3668  0.2845
  126OSM    C6F13509   4.163   3.626   7.565 -0.1246 -0.1493  0.2780
  126OSM    H6F13510   4.052   3.620   7.564 -0.1086 -1.2230 -2.2236
  126OSM    H6G13511   4.175   3.737   7.557 -1.3442  0.0347  0.8575
  126OSM    C7F13512   4.254   3.580   7.682  0.3457 -0.4364 -0.6178
  126OSM    H7F13513   4.358   3.576   7.644  0.0943  0.6677 -1.4672
  126OSM    H7G13514   4.223   3.476   7.706 -2.7509  0.4397 -0.4420
  126OSM    C8F13515   4.239   3.661   7.811 -0.8276 -0.8120 -0.2417
  126OSM    H8F13516   4.140   3.636   7.856 -1.0532 -0.1650 -0.3708
  126OSM    H8G13517   4.245   3.770   7.790 -0.2264 -0.3374  2.1449
  126OSM    C9F13518   4.357   3.638   7.911 -0.5443  0.1571 -0.0588
  126OSM    H9F13519   4.459   3.658   7.874 -0.4386  0.3868  0.3524
  126OSM   C10F13520   4.345   3.611   8.043 -0.0558  0.0340  0.3096
  126OSM   H10F13521   4.432   3.579   8.102 -0.1317 -2.9041 -1.0078
  126OSM   C11F13522   4.218   3.601   8.119  0.0507  0.0363 -0.2194
  126OSM   H11F13523   4.133   3.579   8.051 -0.0245 -1.9162  0.4653
  126OSM   H11G13524   4.201   3.707   8.151 -0.3967  0.3706 -1.5091
  126OSM   C12F13525   4.223   3.504   8.242  0.1718 -0.0639  0.8269
  126OSM   H12F13526   4.147   3.531   8.319 -0.7788  1.5833 -0.6069
  126OSM   H12G13527   4.321   3.508   8.295  0.7620  1.4746 -0.2797
  126OSM   C13F13528   4.198   3.360   8.200 -1.2460  1.0896  0.2209
  126OSM   H13F13529   4.277   3.323   8.132 -4.4348 -2.0997 -2.1642
  126OSM   H13G13530   4.110   3.351   8.132 -1.8944 -0.8949  1.2338
  126OSM   C14F13531   4.197   3.269   8.320 -0.3936  0.1050 -0.2632
  126OSM   H14F13532   4.122   3.299   8.397 -0.9129 -1.5765 -0.0709
  126OSM   H14G13533   4.296   3.276   8.368 -0.1139 -0.1510 -0.7990
  126OSM   C15F13534   4.161   3.124   8.279 -0.2512  0.2335  0.1692
  126OSM   H15F13535   4.237   3.106   8.199  1.7326  3.5714  1.0980
  126OSM   H15G13536   4.054   3.120   8.252 -0.2282  4.4538 -1.2357
  126OSM   C16F13537   4.183   3.022   8.398  0.8039 -0.7246  0.1676
  126OSM   H16F13538   4.144   3.063   8.493 -0.2763  0.4543 -0.7523
  126OSM   H16G13539   4.290   3.011   8.426  0.3101  2.3110  4.0066
  126OSM   C17F13540   4.114   2.885   8.359  0.9377  0.0211  0.6959
  126OSM   H17F13541   4.015   2.897   8.310 -0.1430 -0.9910  2.4961
  126OSM   H17G13542   4.105   2.831   8.456 -1.1201 -2.2037 -0.6309
  126OSM   C18F13543   4.202   2.811   8.262 -0.3761  0.0751 -0.0913
  126OSM   H18F13544   4.250   2.876   8.186  1.1230 -0.7296  0.1357
  126OSM   H18G13545   4.145   2.735   8.205 -1.2714  0.4551  0.2770
  126OSM   H18H13546   4.285   2.771   8.323 -0.0750 -0.1799 -0.6639
  127OSM      N13547   4.321   1.999   5.853 -0.7512 -0.5358  0.5734
  127OSM    C1513548   4.424   2.112   5.830  0.2912 -0.4314 -0.1430
  127OSM   H15A13549   4.514   2.089   5.885  0.3544 -2.1344 -0.9007
  127OSM   H15B13550   4.386   2.205   5.872 -3.6492 -1.6045 -0.6616
  127OSM   H15C13551   4.451   2.128   5.727  0.8466 -0.2599  0.0272
  127OSM    C1413552   4.205   2.016   5.768 -0.1997 -0.1040  0.2268
  127OSM   H14A13553   4.229   2.013   5.663  2.9147  0.7121  0.8326
  127OSM   H14B13554   4.155   2.108   5.795 -0.6711  0.3279 -1.9908
  127OSM   H14C13555   4.136   1.936   5.792 -0.8370 -0.0899 -1.4659
  127OSM    C1313556   4.386   1.876   5.808 -0.1474  0.1459  0.0759
  127OSM   H13A13557   4.484   1.862   5.850 -0.9325 -1.9407  1.4354
  127OSM   H13B13558   4.391   1.875   5.700  1.0266  1.2551  0.1082
  127OSM   H13C13559   4.324   1.789   5.830 -1.5632  0.3614 -2.6820
  127OSM    C1213560   4.279   1.993   6.004 -0.0494  0.2416  0.6856
  127OSM   H12A13561   4.210   1.912   6.016  0.5970 -0.7676 -1.7327
  127OSM   H12B13562   4.234   2.090   6.021  0.7353  0.7074  0.2303
  127OSM    C1113563   4.390   1.966   6.115 -0.8135  0.5013  0.0739
  127OSM   H11A13564   4.345   1.995   6.212 -1.2024  1.4279 -0.3677
  127OSM   H11B13565   4.485   2.021   6.097 -0.3533  0.0509  1.0604
  127OSM      P13566   4.337   1.717   6.178  0.0105  0.5438  0.7456
  127OSM    O1313567   4.195   1.745   6.131 -0.2945  0.0883 -0.3284
  127OSM    O1413568   4.392   1.579   6.146  0.2599  0.0405 -0.6755
  127OSM    O1113569   4.348   1.730   6.334  0.2873  0.2952  0.1315
  127OSM    O1213570   4.429   1.828   6.107  0.0415 -0.0059  0.6523
  127OSM    C1S13571   4.472   1.766   6.390 -0.1344 -0.2796 -0.0352
  127OSM    H1S13572   4.489   1.876   6.394  1.1422 -0.4602  0.0314
  127OSM    H1T13573   4.555   1.729   6.325 -1.2864 -0.6047 -1.3734
  127OSM     NF13574   4.623   1.753   6.583  0.4874 -0.3149 -0.0406
  127OSM    HNF13575   4.701   1.691   6.573  1.4860  1.1922 -2.5453
  127OSM    C2S13576   4.485   1.712   6.530 -0.4590  0.0794 -0.3444
  127OSM    H2S13577   4.400   1.748   6.592 -1.5988 -1.0598 -1.1752
  127OSM    C3S13578   4.477   1.554   6.526 -0.0522 -0.0723  0.4969
  127OSM    H3S13579   4.557   1.512   6.462  0.5821 -0.0426  1.2520
  127OSM     O313580   4.353   1.504   6.473 -0.2719 -0.0721 -0.2289
  127OSM    HO313581   4.312   1.576   6.424 -0.0569  0.5813  0.5386
  127OSM    C4S13582   4.506   1.489   6.660  0.6853 -0.3572 -0.3626
  127OSM    H4S13583   4.607   1.447   6.674  0.0689 -2.4963 -1.9249
  127OSM    C5S13584   4.416   1.489   6.764  0.3967 -0.1785 -0.1505
  127OSM    H5S13585   4.315   1.525   6.739  0.0912 -1.7094 -1.2374
  127OSM    C6S13586   4.441   1.425   6.898 -0.3050 -0.3876 -0.2781
  127OSM    H6S13587   4.540   1.459   6.934 -0.9220 -1.4736  2.6831
  127OSM    H6T13588   4.452   1.316   6.882 -0.1540 -0.1400 -2.0528
  127OSM    C7S13589   4.331   1.443   7.005 -0.7074 -0.7981  0.3820
  127OSM    H7S13590   4.235   1.436   6.948  0.3480  0.2871 -1.6476
  127OSM    H7T13591   4.338   1.546   7.046 -1.3804 -2.0094  3.8424
  127OSM    C8S13592   4.338   1.347   7.124 -0.7444  0.3409 -0.6077
  127OSM    H8S13593   4.381   1.250   7.091 -0.6898  0.1458  0.0290
  127OSM    H8T13594   4.235   1.322   7.159 -0.8738 -1.5208 -2.1181
  127OSM    C9S13595   4.436   1.390   7.241  0.0338 -0.2239 -0.4499
  127OSM    H9S13596   4.395   1.481   7.289 -1.7313 -1.5587  0.7166
  127OSM    H9T13597   4.537   1.414   7.203  0.2416  0.6462  0.6118
  127OSM   C10S13598   4.448   1.294   7.358  0.4579 -0.1157 -0.5756
  127OSM   H10S13599   4.488   1.199   7.317  1.3732 -0.3577  0.8328
  127OSM   H10T13600   4.344   1.264   7.382  0.0481  2.7406  1.8385
  127OSM   C11S13601   4.528   1.351   7.476 -0.0823 -0.4994  0.0356
  127OSM   H11S13602   4.481   1.442   7.519 -0.4534 -0.8156  0.3201
  127OSM   H11T13603   4.628   1.381   7.440  0.0908 -0.5748  0.4556
  127OSM   C12S13604   4.545   1.241   7.587 -0.0169  0.0054  0.2377
  127OSM   H12S13605   4.615   1.163   7.553 -0.8971 -0.8926  0.4274
  127OSM   H12T13606   4.450   1.187   7.604  1.2597 -1.9021  1.6207
  127OSM   C13S13607   4.583   1.303   7.721 -0.1918 -1.7023 -0.1501
  127OSM   H13S13608   4.505   1.374   7.755  0.1830 -0.7078 -1.2826
  127OSM   H13T13609   4.684   1.348   7.706  0.2231 -2.0334  1.3898
  127OSM   C14S13610   4.611   1.191   7.825  0.1612 -0.0218 -0.1502
  127OSM   H14S13611   4.663   1.106   7.776  1.7306  1.9070 -2.0140
  127OSM   H14T13612   4.506   1.163   7.853 -0.6304  2.4761 -0.4162
  127OSM   C15S13613   4.677   1.248   7.951  0.1482  0.5426  0.1786
  127OSM   H15S13614   4.778   1.281   7.918 -0.3148  0.5253 -1.3489
  127OSM   H15T13615   4.696   1.163   8.019 -1.7025 -1.3681 -1.5567
  127OSM   C16S13616   4.606   1.361   8.020  1.0346  0.5352 -0.7351
  127OSM   H16S13617   4.627   1.353   8.129  1.0108 -2.1373 -0.8484
  127OSM   H16T13618   4.500   1.328   8.026  0.9066  1.0863  0.2754
  127OSM   C17S13619   4.629   1.503   7.979  0.2201  0.3988 -0.7976
  127OSM   H17S13620   4.572   1.521   7.885 -1.8565 -2.0749 -0.1060
  127OSM   H17T13621   4.737   1.526   7.967  0.3757  0.5338  0.7316
  127OSM   C18S13622   4.593   1.607   8.081 -0.5951  0.3284  1.0007
  127OSM   H18S13623   4.668   1.604   8.162  0.3700 -0.0336  0.1140
  127OSM   H18T13624   4.491   1.595   8.123 -1.9013  0.1541 -1.9721
  127OSM   H18U13625   4.589   1.708   8.035  0.8977  0.4371  1.0574
  127OSM    C1F13626   4.643   1.883   6.592 -1.1420 -0.1621  1.3231
  127OSM     OF13627   4.554   1.961   6.617 -0.2979  0.6177  0.7008
  127OSM    C2F13628   4.784   1.921   6.565  0.4245  0.0816 -0.1235
  127OSM    H2F13629   4.795   1.968   6.465 -3.1708 -0.7459 -1.0668
  127OSM    H2G13630   4.854   1.835   6.568 -0.3079 -0.5181  0.3683
  127OSM    C3F13631   4.816   2.025   6.671 -0.1854 -0.0204  0.1158
  127OSM    H3F13632   4.731   2.097   6.679 -1.5668 -1.5724 -0.0229
  127OSM    H3G13633   4.914   2.071   6.645 -0.0885 -1.3871 -2.2730
  127OSM    C4F13634   4.832   1.959   6.809  0.2735  1.0797 -0.6357
  127OSM    H4F13635   4.907   1.877   6.812  0.3980  1.1799 -0.9830
  127OSM    H4G13636   4.739   1.922   6.857  1.3405 -0.0986  0.6165
  127OSM    C5F13637   4.868   2.058   6.918 -0.7608 -0.1260 -0.1816
  127OSM    H5F13638   4.803   2.148   6.907 -1.4424 -0.5201  0.4796
  127OSM    H5G13639   4.970   2.094   6.895 -1.1936  1.2766 -0.0152
  127OSM    C6F13640   4.858   2.023   7.067 -0.1191  0.3719  0.4282
  127OSM    H6F13641   4.915   1.932   7.096 -2.6281 -0.7533  2.1685
  127OSM    H6G13642   4.750   2.008   7.086 -0.2122  0.0135 -0.3385
  127OSM    C7F13643   4.908   2.135   7.155  0.1632 -0.3947  0.0665
  127OSM    H7F13644   4.839   2.222   7.155  1.5956  0.8266 -1.5190
  127OSM    H7G13645   5.009   2.164   7.119 -0.0738 -0.7324 -0.8808
  127OSM    C8F13646   4.929   2.099   7.305  0.5471  0.6985  1.0980
  127OSM    H8F13647   4.988   2.005   7.310 -2.4644 -1.4080  0.1411
  127OSM    H8G13648   4.832   2.084   7.358  1.4953 -1.9054  2.2771
  127OSM    C9F13649   4.991   2.214   7.374  0.8703  0.2848 -0.0319
  127OSM    H9F13650   4.918   2.296   7.382  0.1027 -0.2537 -1.2756
  127OSM   C10F13651   5.106   2.221   7.442 -0.1609  0.2716 -1.4725
  127OSM   H10F13652   5.125   2.312   7.500  1.1799 -2.3145  2.6214
  127OSM   C11F13653   5.213   2.119   7.461  0.1349  0.7777 -0.3028
  127OSM   H11F13654   5.309   2.174   7.465  0.3328  0.4061  0.2360
  127OSM   H11G13655   5.224   2.049   7.375  1.0188 -0.5029  0.7953
  127OSM   C12F13656   5.187   2.032   7.587  0.4821 -0.4811  0.1146
  127OSM   H12F13657   5.252   1.941   7.590 -1.1009 -1.6501  2.4813
  127OSM   H12G13658   5.089   1.981   7.575  1.9323 -4.3006  2.4138
  127OSM   C13F13659   5.192   2.106   7.720 -0.2773 -0.1344 -0.4722
  127OSM   H13F13660   5.104   2.172   7.736 -0.4764 -0.5496  0.1954
  127OSM   H13G13661   5.283   2.169   7.706 -1.0392  0.9524 -0.6544
  127OSM   C14F13662   5.224   2.021   7.845  0.1029 -0.8695  0.8088
  127OSM   H14F13663   5.328   1.983   7.844  0.4136 -0.0753 -0.9972
  127OSM   H14G13664   5.158   1.931   7.850  0.9079 -1.7254 -1.9159
  127OSM   C15F13665   5.206   2.100   7.975 -0.1593 -0.3910 -0.1022
  127OSM   H15F13666   5.097   2.090   7.998  0.1421 -1.2529  1.0887
  127OSM   H15G13667   5.227   2.208   7.962  2.0112 -0.8229 -0.4485
  127OSM   C16F13668   5.298   2.048   8.077 -0.4579 -0.2737  0.6629
  127OSM   H16F13669   5.394   2.043   8.022 -0.6170  0.1626  0.3358
  127OSM   H16G13670   5.278   1.941   8.098 -1.8406  0.1449  1.6207
  127OSM   C17F13671   5.316   2.131   8.202  0.5225  0.6864  0.8839
  127OSM   H17F13672   5.236   2.127   8.278  1.7943 -1.2573  2.2215
  127OSM   H17G13673   5.314   2.231   8.154  1.0390  0.0780 -0.4576
  127OSM   C18F13674   5.446   2.105   8.258 -0.3189  0.2732 -0.0385
  127OSM   H18F13675   5.530   2.125   8.188 -0.8074  3.8145  0.2293
  127OSM   H18G13676   5.451   1.999   8.292 -1.5857  0.4200  0.6626
  127OSM   H18H13677   5.456   2.167   8.350  0.3193  0.5552 -0.2866
  128OSM      N13678   5.332   3.180   6.403 -0.6938 -0.4563  0.2895
  128OSM    C1513679   5.306   3.317   6.355  0.4683 -0.6587 -0.0606
  128OSM   H15A13680   5.312   3.390   6.435 -1.5637  1.2667 -1.5302
  128OSM   H15B13681   5.208   3.318   6.308  0.3517 -1.6244  0.1293
  128OSM   H15C13682   5.365   3.351   6.272 -0.5946 -0.0138 -0.5714
  128OSM    C1413683   5.277   3.164   6.546 -0.2255 -0.3284  0.4298
  128OSM   H14A13684   5.309   3.069   6.584 -0.9601 -0.7455  0.0196
  128OSM   H14B13685   5.169   3.159   6.542 -0.2434 -1.4116  1.8671
  128OSM   H14C13686   5.302   3.241   6.617 -0.4894 -0.3202  0.5139
  128OSM    C1313687   5.273   3.075   6.309 -0.9352 -0.6422 -0.0100
  128OSM   H13A13688   5.165   3.068   6.307 -0.9081 -0.9576 -0.4781
  128OSM   H13B13689   5.299   2.976   6.342 -1.8420 -0.5133  1.1616
  128OSM   H13C13690   5.314   3.078   6.209 -0.4685  1.4007  0.1889
  128OSM    C1213691   5.482   3.158   6.403 -0.2646  0.0854 -0.2342
  128OSM   H12A13692   5.503   3.068   6.459 -0.6714 -0.7877 -1.4466
  128OSM   H12B13693   5.527   3.236   6.462  0.0583 -1.4314  1.6426
  128OSM    C1113694   5.549   3.160   6.267 -0.0808  0.2251 -0.0083
  128OSM   H11A13695   5.506   3.089   6.193  2.1867 -2.1868  0.7804
  128OSM   H11B13696   5.655   3.130   6.284 -0.6807 -1.3765  1.2536
  128OSM      P13697   5.653   3.401   6.241 -0.0397 -0.4161 -0.0667
  128OSM    O1313698   5.771   3.374   6.152  0.0164 -0.0100  0.2914
  128OSM    O1413699   5.600   3.538   6.232 -0.3066  0.0427  0.1647
  128OSM    O1113700   5.692   3.372   6.392  0.0891 -0.2598 -0.2419
  128OSM    O1213701   5.545   3.287   6.208 -0.1426  0.2092  0.0772
  128OSM    C1S13702   5.679   3.473   6.494 -0.0703 -0.1906 -0.8408
  128OSM    H1S13703   5.582   3.526   6.482  0.1785  0.7547  0.9079
  128OSM    H1T13704   5.764   3.545   6.492 -0.1300  0.0706  1.8450
  128OSM     NF13705   5.634   3.488   6.739 -0.0081  0.6992 -0.5940
  128OSM    HNF13706   5.700   3.543   6.790 -0.4157 -0.0968  0.8455
  128OSM    C2S13707   5.680   3.405   6.634 -0.7109 -0.3594 -0.0875
  128OSM    H2S13708   5.611   3.318   6.631 -0.0330 -0.9558  0.9006
  128OSM    C3S13709   5.828   3.351   6.666 -0.0789 -0.3110 -0.1383
  128OSM    H3S13710   5.899   3.430   6.696  1.8749 -2.2137  0.5354
  128OSM     O313711   5.894   3.294   6.555  0.5792  0.0677 -0.1045
  128OSM    HO313712   5.840   3.314   6.478  1.9827  1.9459 -0.6659
  128OSM    C4S13713   5.820   3.249   6.781 -0.7216  0.3195  0.4353
  128OSM    H4S13714   5.843   3.285   6.883  2.0097 -1.4374  0.5307
  128OSM    C5S13715   5.789   3.120   6.762 -0.2698  0.2605 -0.2863
  128OSM    H5S13716   5.772   3.089   6.658  0.6116 -0.4644 -0.2260
  128OSM    C6S13717   5.777   3.011   6.864  0.9883  0.3668 -0.2310
  128OSM    H6S13718   5.844   2.925   6.844  0.2960 -0.9482  2.6400
  128OSM    H6T13719   5.672   2.976   6.856  0.1222  2.0901  2.1950
  128OSM    C7S13720   5.807   3.051   7.007 -0.9792 -0.1685 -0.2186
  128OSM    H7S13721   5.737   3.130   7.039 -0.5023  1.2309 -2.3765
  128OSM    H7T13722   5.907   3.100   7.001 -1.8700  1.7542 -0.1142
  128OSM    C8S13723   5.818   2.934   7.101  0.7084 -0.0658 -0.5127
  128OSM    H8S13724   5.894   2.861   7.068  1.0556 -0.5304  1.2270
  128OSM    H8T13725   5.719   2.885   7.111  0.6801  0.1783  0.5802
  128OSM    C9S13726   5.855   2.982   7.245 -0.4443 -0.1146  0.3240
  128OSM    H9S13727   5.779   3.057   7.274  0.2813  0.1809  1.5375
  128OSM    H9T13728   5.956   3.028   7.234 -1.2135  1.4219 -0.7413
  128OSM   C10S13729   5.848   2.869   7.346  0.6865 -0.0852 -0.0809
  128OSM   H10S13730   5.920   2.791   7.312  3.6133  2.0400  0.8616
  128OSM   H10T13731   5.743   2.834   7.340 -0.1679  2.0928  1.0871
  128OSM   C11S13732   5.865   2.919   7.495  0.2871  0.5819  0.0575
  128OSM   H11S13733   5.809   3.013   7.513  1.5458  1.5066 -0.7104
  128OSM   H11T13734   5.975   2.929   7.510  0.1427  1.5457  0.6081
  128OSM   C12S13735   5.818   2.815   7.597 -0.2858  0.2304 -0.3701
  128OSM   H12S13736   5.866   2.721   7.561 -1.6865 -0.6499 -0.0424
  128OSM   H12T13737   5.707   2.804   7.598 -0.3595  0.9139 -0.6543
  128OSM   C13S13738   5.868   2.835   7.742 -0.5980  0.1370 -0.3842
  128OSM   H13S13739   5.977   2.832   7.764 -0.6178  0.1036 -0.2898
  128OSM   H13T13740   5.827   2.755   7.807 -0.7903  1.4748  1.2189
  128OSM   C14S13741   5.827   2.970   7.809  0.5408  0.1423 -0.2172
  128OSM   H14S13742   5.717   2.986   7.809  0.1170 -2.2993  0.6010
  128OSM   H14T13743   5.871   3.055   7.753  3.9363 -1.5700 -0.4163
  128OSM   C15S13744   5.881   2.972   7.961 -0.1635 -0.4100  0.7246
  128OSM   H15S13745   5.898   3.078   7.990  1.0764 -0.8625  1.7485
  128OSM   H15T13746   5.984   2.930   7.965  0.5834  1.3880  1.3911
  128OSM   C16S13747   5.793   2.904   8.065  0.9794  0.6084  0.8035
  128OSM   H16S13748   5.784   2.800   8.028 -0.9789  1.4185 -1.2343
  128OSM   H16T13749   5.694   2.953   8.063  0.2228 -0.8874 -1.1986
  128OSM   C17S13750   5.852   2.897   8.204  0.0312  0.0676  0.5053
  128OSM   H17S13751   5.827   2.986   8.266 -3.1328 -1.6118  1.8919
  128OSM   H17T13752   5.963   2.899   8.201  0.0482  0.3976  1.2276
  128OSM   C18S13753   5.806   2.780   8.291  0.3889  0.5887  0.2770
  128OSM   H18S13754   5.804   2.690   8.226  0.1052 -0.0757  1.1781
  128OSM   H18T13755   5.704   2.805   8.327 -0.4095  0.5816 -1.8636
  128OSM   H18U13756   5.872   2.764   8.379 -0.4236 -2.1875  0.4670
  128OSM    C1F13757   5.509   3.528   6.747  0.3076 -0.1250 -0.6953
  128OSM     OF13758   5.426   3.472   6.672 -0.4775 -0.6147  0.0582
  128OSM    C2F13759   5.479   3.642   6.836  0.5297  0.1598  0.2019
  128OSM    H2F13760   5.551   3.724   6.811  0.0909  0.2060 -0.9808
  128OSM    H2G13761   5.502   3.605   6.938  2.7152  0.0236 -0.2860
  128OSM    C3F13762   5.336   3.690   6.821 -0.1192  0.4795 -0.0893
  128OSM    H3F13763   5.257   3.612   6.828  0.1984 -0.0585 -1.9409
  128OSM    H3G13764   5.317   3.746   6.727 -1.4966  0.0910 -0.0608
  128OSM    C4F13765   5.297   3.775   6.939 -0.0862 -0.7025  0.2310
  128OSM    H4F13766   5.193   3.811   6.924  0.3583  1.2978  1.4987
  128OSM    H4G13767   5.368   3.860   6.953 -0.1244 -0.6789  0.2780
  128OSM    C5F13768   5.287   3.689   7.066 -0.3904  0.1461 -0.3071
  128OSM    H5F13769   5.371   3.617   7.080  1.2677  1.5852 -2.2223
  128OSM    H5G13770   5.185   3.645   7.069 -0.4344  0.1903  3.1717
  128OSM    C6F13771   5.280   3.777   7.186  0.2068  0.4454  0.2553
  128OSM    H6F13772   5.189   3.840   7.179 -0.9023 -1.0928  0.3363
  128OSM    H6G13773   5.360   3.850   7.212  0.9063 -0.3405  0.3533
  128OSM    C7F13774   5.268   3.688   7.310 -0.0362  0.0471  0.0672
  128OSM    H7F13775   5.360   3.630   7.336 -1.6391 -2.9211 -0.4326
  128OSM    H7G13776   5.189   3.615   7.283 -0.3735  0.2692  0.4530
  128OSM    C8F13777   5.231   3.752   7.443  0.6035  0.2596  0.0167
  128OSM    H8F13778   5.136   3.808   7.429  0.0959 -0.7572 -0.8233
  128OSM    H8G13779   5.315   3.819   7.469  0.0378  1.2174 -0.5701
  128OSM    C9F13780   5.209   3.649   7.555  0.3047 -0.3069 -0.1381
  128OSM    H9F13781   5.145   3.566   7.521 -0.3246 -0.4183  1.2259
  128OSM   C10F13782   5.264   3.658   7.682  0.0090  0.5171 -0.2903
  128OSM   H10F13783   5.244   3.574   7.750 -0.5381  1.3719  0.6381
  128OSM   C11F13784   5.349   3.756   7.752  0.7053 -0.1092 -0.4389
  128OSM   H11F13785   5.353   3.855   7.701  3.2540  0.6085  0.9503
  128OSM   H11G13786   5.453   3.724   7.776  0.4532 -1.8273 -1.5045
  128OSM   C12F13787   5.284   3.789   7.888  0.4435  0.3037  0.1688
  128OSM   H12F13788   5.270   3.696   7.947  1.4627  0.3232  0.4611
  128OSM   H12G13789   5.183   3.830   7.865  0.3808  0.2689  0.3877
  128OSM   C13F13790   5.365   3.889   7.966  0.1758 -0.7009  0.0695
  128OSM   H13F13791   5.294   3.951   8.024  1.7275  1.7085 -0.4371
  128OSM   H13G13792   5.433   3.959   7.912  0.7213  1.7264  3.5496
  128OSM   C14F13793   5.440   3.821   8.086 -0.9832 -0.1074 -0.0357
  128OSM   H14F13794   5.505   3.740   8.047 -2.3559  0.6774 -4.4787
  128OSM   H14G13795   5.362   3.768   8.144 -1.0204 -0.8346 -0.7347
  128OSM   C15F13796   5.518   3.923   8.176  0.3834 -0.1407  0.1728
  128OSM   H15F13797   5.453   4.011   8.194  0.2133 -0.0668 -0.7758
  128OSM   H15G13798   5.603   3.960   8.115 -0.2977  0.0307 -0.6870
  128OSM   C16F13799   5.563   3.875   8.306  0.5977 -0.0525 -0.5718
  128OSM   H16F13800   5.624   3.785   8.282  0.5984 -0.8484  2.0328
  128OSM   H16G13801   5.477   3.835   8.364  1.3202  0.8747  1.2331
  128OSM   C17F13802   5.641   3.977   8.392  0.6452 -0.1546 -0.4223
  128OSM   H17F13803   5.571   4.061   8.408  0.5017 -0.3131 -0.2175
  128OSM   H17G13804   5.731   4.004   8.332  0.6704 -2.1862 -1.3872
  128OSM   C18F13805   5.680   3.913   8.528  1.2369 -0.3897  0.1475
  128OSM   H18F13806   5.751   3.835   8.492 -1.9742 -2.1343 -3.0634
  128OSM   H18G13807   5.593   3.879   8.587  0.3006  0.3983 -0.7363
  128OSM   H18H13808   5.731   3.987   8.593 -0.7563 -1.8421  3.5823
  129OSM      N13809   3.889   1.028   5.683  0.0942  0.3105  1.1338
  129OSM    C1513810   3.752   1.064   5.640 -0.2124 -0.4419  0.7073
  129OSM   H15A13811   3.747   1.069   5.532 -1.7384  0.5275  0.7846
  129OSM   H15B13812   3.710   1.160   5.667 -1.8599 -0.1943 -2.2551
  129OSM   H15C13813   3.679   0.997   5.682 -2.5867  1.1980 -0.5142
  129OSM    C1413814   3.926   0.887   5.641  0.3612 -0.1604 -0.3254
  129OSM   H14A13815   3.937   0.873   5.535  0.4269 -3.2712 -0.0166
  129OSM   H14B13816   3.846   0.822   5.674 -0.3754  0.4490 -0.9006
  129OSM   H14C13817   4.026   0.868   5.678 -0.1631 -0.6006  0.9102
  129OSM    C1313818   3.980   1.133   5.614  0.5397  0.8224 -0.0823
  129OSM   H13A13819   3.964   1.114   5.509  1.8402 -1.2907  0.0530
  129OSM   H13B13820   4.083   1.119   5.645  0.5288 -0.6728 -0.6488
  129OSM   H13C13821   3.960   1.238   5.632 -0.8466  0.4141  0.8137
  129OSM    C1213822   3.908   1.038   5.835  0.2045 -0.3416 -0.4701
  129OSM   H12A13823   3.849   0.966   5.890 -0.4968  0.8887  0.4437
  129OSM   H12B13824   3.862   1.132   5.862 -2.4108 -1.6156 -0.2271
  129OSM    C1113825   4.050   1.012   5.899 -0.7389  0.1630 -0.2679
  129OSM   H11A13826   4.094   0.916   5.864 -0.3447 -0.6987  2.3453
  129OSM   H11B13827   4.064   1.000   6.009  0.0798 -1.0116 -0.4825
  129OSM      P13828   4.163   1.253   5.926  0.0485  0.4600  0.1711
  129OSM    O1313829   4.305   1.294   5.906  0.0097  0.1392 -0.1045
  129OSM    O1413830   4.060   1.349   5.876 -0.3389 -0.3399  0.6970
  129OSM    O1113831   4.144   1.216   6.076 -0.2464 -0.1640  0.2046
  129OSM    O1213832   4.144   1.115   5.857  0.0094  0.5693 -0.0950
  129OSM    C1S13833   4.146   1.317   6.174  0.5363  0.0573 -0.5717
  129OSM    H1S13834   4.074   1.399   6.151 -1.6882 -1.5831  0.2187
  129OSM    H1T13835   4.246   1.365   6.181  0.4526  0.3937 -1.5787
  129OSM     NF13836   4.094   1.379   6.404 -0.3839 -0.4254  0.2366
  129OSM    HNF13837   4.174   1.405   6.457  0.1436 -0.6486 -0.4299
  129OSM    C2S13838   4.103   1.267   6.317  0.0728 -0.4395  0.8968
  129OSM    H2S13839   3.996   1.240   6.304 -0.9469  3.8716 -1.5499
  129OSM    C3S13840   4.206   1.161   6.354  0.2226  0.2471  0.1678
  129OSM    H3S13841   4.309   1.202   6.345  1.0090 -1.1472  2.1115
  129OSM     O313842   4.199   1.040   6.275  0.3553  0.8766 -0.2749
  129OSM    HO313843   4.182   1.070   6.185  0.3632  0.0907 -0.5565
  129OSM    C4S13844   4.189   1.123   6.504 -0.7531  0.4107  0.0051
  129OSM    H4S13845   4.114   1.045   6.524 -1.8396  2.0310  2.7449
  129OSM    C5S13846   4.265   1.179   6.600  0.8702  0.7993  0.6695
  129OSM    H5S13847   4.339   1.254   6.569  0.4600  0.9485  0.0108
  129OSM    C6S13848   4.256   1.143   6.748  0.9605 -0.2364  0.3209
  129OSM    H6S13849   4.203   1.228   6.796 -0.9503 -0.2981 -1.5035
  129OSM    H6T13850   4.355   1.157   6.796  0.7583  0.2315  0.5957
  129OSM    C7S13851   4.208   0.997   6.795 -0.0359 -0.5368  0.7187
  129OSM    H7S13852   4.264   0.924   6.733 -2.2068 -1.8460  0.2133
  129OSM    H7T13853   4.099   0.990   6.778 -0.6146  0.2116  3.5407
  129OSM    C8S13854   4.236   0.977   6.951  0.7442 -0.5030 -0.4888
  129OSM    H8S13855   4.188   1.068   6.992  2.0873  0.7949 -1.6933
  129OSM    H8T13856   4.345   0.988   6.967  0.2265  1.1703  2.8011
  129OSM    C9S13857   4.165   0.855   7.003 -0.6867 -0.1076  0.3091
  129OSM    H9S13858   4.236   0.770   6.993  2.8498  2.7506 -0.8651
  129OSM    H9T13859   4.075   0.825   6.945  0.4988  1.3425 -2.4635
  129OSM   C10S13860   4.114   0.867   7.148 -0.2153  0.5110  0.5007
  129OSM   H10S13861   4.044   0.783   7.169 -0.3060  0.4189 -0.1420
  129OSM   H10T13862   4.054   0.960   7.157 -2.3145 -0.7548  0.1777
  129OSM   C11S13863   4.230   0.882   7.249  0.1796  0.1628  0.6652
  129OSM   H11S13864   4.279   0.981   7.234  0.5641 -0.1781 -0.4663
  129OSM   H11T13865   4.308   0.808   7.220  1.2804  1.0655  1.2240
  129OSM   C12S13866   4.170   0.862   7.392 -0.0652 -0.0563  0.4514
  129OSM   H12S13867   4.124   0.761   7.385  0.3200 -0.1721 -0.5521
  129OSM   H12T13868   4.097   0.944   7.405 -0.3039 -0.5355  2.7297
  129OSM   C13S13869   4.271   0.852   7.506  1.1581  0.0480  0.2664
  129OSM   H13S13870   4.373   0.869   7.465  0.8144 -0.3757 -0.8201
  129OSM   H13T13871   4.268   0.754   7.558  0.5177  1.0277  2.1362
  129OSM   C14S13872   4.257   0.960   7.605 -0.3950 -0.2374  0.4928
  129OSM   H14S13873   4.262   1.057   7.552  1.2426 -1.5441 -1.9507
  129OSM   H14T13874   4.345   0.954   7.674  0.0467 -1.4753 -0.1480
  129OSM   C15S13875   4.130   0.960   7.679 -0.0731 -0.5718  0.4311
  129OSM   H15S13876   4.093   0.860   7.712 -3.0844  0.7511  1.4536
  129OSM   H15T13877   4.041   1.001   7.626 -0.7423  0.2969  2.1376
  129OSM   C16S13878   4.127   1.048   7.811  0.3038  0.8755  1.0603
  129OSM   H16S13879   4.148   1.155   7.791 -1.1990  0.9547 -0.2873
  129OSM   H16T13880   4.194   1.006   7.889 -1.4797 -1.5557  1.3996
  129OSM   C17S13881   3.981   1.038   7.860  0.4547  0.1154  0.2405
  129OSM   H17S13882   3.935   0.937   7.853 -2.8224  1.4765  0.4590
  129OSM   H17T13883   3.918   1.093   7.786 -0.8238 -0.3262  0.9688
  129OSM   C18S13884   3.949   1.125   7.987 -0.4977 -0.0965 -0.2792
  129OSM   H18S13885   4.003   1.082   8.074 -1.9469 -1.0664  0.1906
  129OSM   H18T13886   3.841   1.114   8.012 -0.7079  0.3401 -0.9685
  129OSM   H18U13887   3.973   1.232   7.971 -0.8852 -0.0285 -0.4225
  129OSM    C1F13888   3.995   1.468   6.390  0.4488  0.0980  0.6046
  129OSM     OF13889   3.903   1.446   6.310 -0.3040  0.2754  0.1670
  129OSM    C2F13890   3.992   1.591   6.479  0.3868  0.6193  0.1036
  129OSM    H2F13891   3.909   1.657   6.445 -0.3979 -0.7692 -0.7494
  129OSM    H2G13892   4.075   1.662   6.458  0.0378  1.1126  0.3725
  129OSM    C3F13893   3.967   1.560   6.632 -0.4371 -0.5354 -0.8743
  129OSM    H3F13894   4.055   1.498   6.660  0.3920  1.5166  1.5193
  129OSM    H3G13895   3.876   1.499   6.649 -1.8834  1.9555  1.1182
  129OSM    C4F13896   3.968   1.674   6.734  0.6116 -0.2261  0.4119
  129OSM    H4F13897   3.877   1.733   6.714 -0.9812 -1.5745  3.0657
  129OSM    H4G13898   4.060   1.731   6.711  0.8625 -0.7783  0.0259
  129OSM    C5F13899   3.949   1.630   6.879  0.0692  0.4390  0.2793
  129OSM    H5F13900   4.021   1.547   6.894 -1.9253 -1.2244  1.0950
  129OSM    H5G13901   3.846   1.596   6.903 -0.2139  0.5495 -0.7375
  129OSM    C6F13902   3.995   1.748   6.967 -0.2094  0.1241  0.0965
  129OSM    H6F13903   4.095   1.780   6.929 -0.0885  0.0073  0.3115
  129OSM    H6G13904   4.026   1.713   7.068  0.8877  1.3113  0.1969
  129OSM    C7F13905   3.891   1.860   6.976  0.4995  0.0802  0.2528
  129OSM    H7F13906   3.796   1.813   7.010 -0.6239  1.5664 -0.7315
  129OSM    H7G13907   3.861   1.892   6.875 -1.1201 -1.8186  0.0618
  129OSM    C8F13908   3.924   1.989   7.056 -1.0179 -0.1263 -0.9027
  129OSM    H8F13909   4.012   2.037   7.008 -0.8760  0.9695  0.3910
  129OSM    H8G13910   3.956   1.960   7.158  0.0184 -1.0901 -1.4903
  129OSM    C9F13911   3.819   2.093   7.069  0.1378 -0.3096 -0.8441
  129OSM    H9F13912   3.843   2.195   7.034 -3.5862  1.7111  1.7068
  129OSM   C10F13913   3.703   2.088   7.147 -0.2149  0.2705  0.9080
  129OSM   H10F13914   3.644   2.181   7.145  0.6091  0.8010  0.3300
  129OSM   C11F13915   3.652   1.971   7.226  0.1479  0.7174 -0.3475
  129OSM   H11F13916   3.723   1.885   7.223 -0.6090 -0.0641  2.0445
  129OSM   H11G13917   3.560   1.942   7.170 -0.7395 -0.4480  1.6100
  129OSM   C12F13918   3.614   2.005   7.372  0.2137 -0.2649 -0.0852
  129OSM   H12F13919   3.694   2.069   7.413  0.7102 -1.4038  0.7903
  129OSM   H12G13920   3.607   1.910   7.429 -1.1958 -1.0805 -1.5348
  129OSM   C13F13921   3.475   2.087   7.390 -0.3323 -0.0434 -0.0081
  129OSM   H13F13922   3.400   2.032   7.330 -0.7433 -0.7122  1.0778
  129OSM   H13G13923   3.482   2.191   7.353  0.5168  0.0012  0.2373
  129OSM   C14F13924   3.421   2.089   7.537  0.2785  0.2021  0.7389
  129OSM   H14F13925   3.400   1.985   7.571 -0.6134  0.0579 -0.2187
  129OSM   H14G13926   3.323   2.140   7.529  0.0746  0.2725  3.0406
  129OSM   C15F13927   3.501   2.160   7.644 -0.0188 -0.0074  0.0384
  129OSM   H15F13928   3.493   2.269   7.624  1.4900  0.1011 -0.1206
  129OSM   H15G13929   3.608   2.131   7.631 -0.1898  0.5695 -3.5461
  129OSM   C16F13930   3.429   2.139   7.782 -0.3906 -0.4862 -0.1756
  129OSM   H16F13931   3.432   2.028   7.797 -2.5213 -0.7615 -1.4297
  129OSM   H16G13932   3.320   2.155   7.775 -0.3865  0.1146  0.8902
  129OSM   C17F13933   3.493   2.225   7.892  0.3121 -0.1252 -0.4299
  129OSM   H17F13934   3.438   2.205   7.986 -2.0321  0.0882 -1.6749
  129OSM   H17G13935   3.471   2.332   7.873 -0.3041  0.7240  3.9561
  129OSM   C18F13936   3.645   2.198   7.921  0.2092 -0.2862 -0.0037
  129OSM   H18F13937   3.653   2.088   7.913 -3.7149 -0.6231 -1.9945
  129OSM   H18G13938   3.673   2.251   8.015 -0.9275 -0.2223  0.3164
  129OSM   H18H13939   3.708   2.246   7.843  1.6500 -1.7497  0.1978
  130OSM      N13940   6.199   2.289   5.787  0.3546  0.3281  0.4798
  130OSM    C1513941   6.112   2.405   5.744  0.4250 -0.2427 -0.0863
  130OSM   H15A13942   6.142   2.497   5.793  0.5100 -0.7865  0.9091
  130OSM   H15B13943   6.006   2.390   5.758  0.4626 -2.8542 -2.0107
  130OSM   H15C13944   6.127   2.436   5.642 -1.2437  1.7587  0.2115
  130OSM    C1413945   6.154   2.173   5.696 -0.1332  0.1859 -0.2412
  130OSM   H14A13946   6.175   2.183   5.591 -2.2750  1.5371 -0.5963
  130OSM   H14B13947   6.048   2.154   5.702 -0.2127 -0.0407 -1.9493
  130OSM   H14C13948   6.195   2.082   5.738 -3.5639 -2.1974 -1.5245
  130OSM    C1313949   6.345   2.327   5.773  0.6867  0.5587 -0.5076
  130OSM   H13A13950   6.388   2.341   5.675  1.5177 -1.5716 -0.5144
  130OSM   H13B13951   6.405   2.253   5.824  1.6190  0.6091 -1.4889
  130OSM   H13C13952   6.359   2.417   5.830 -4.4567  0.5436  1.2768
  130OSM    C1213953   6.163   2.256   5.930 -0.3926 -0.2070  0.3070
  130OSM   H12A13954   6.208   2.162   5.956  0.4284 -0.1026 -0.6481
  130OSM   H12B13955   6.056   2.248   5.928 -0.2740 -2.3483 -1.2632
  130OSM    C1113956   6.208   2.343   6.047 -0.2453 -0.4030 -0.4302
  130OSM   H11A13957   6.318   2.346   6.057 -0.0630 -2.2061 -1.4870
  130OSM   H11B13958   6.170   2.286   6.135 -0.9721 -1.6653 -1.5284
  130OSM      P13959   5.998   2.482   6.081  0.2091 -0.4632 -0.0330
  130OSM    O1313960   5.952   2.623   6.057  0.0152  0.3052  0.6700
  130OSM    O1413961   5.912   2.376   6.018  0.1702  0.2323  0.1360
  130OSM    O1113962   6.004   2.452   6.233  0.4523  0.8047 -0.4077
  130OSM    O1213963   6.149   2.474   6.042  0.7369  0.1508 -0.2075
  130OSM    C1S13964   6.046   2.543   6.337  0.1961  0.5873  0.6389
  130OSM    H1S13965   5.976   2.630   6.329 -0.8420  0.0583  3.1031
  130OSM    H1T13966   6.147   2.586   6.319  1.3922 -1.7686  1.3936
  130OSM     NF13967   6.122   2.593   6.569  0.4159 -0.4474 -0.3218
  130OSM    HNF13968   6.189   2.553   6.630 -0.2264 -1.3742 -0.2007
  130OSM    C2S13969   6.037   2.500   6.486 -0.1040 -0.3211 -0.4601
  130OSM    H2S13970   5.930   2.520   6.511 -0.1292  0.9819 -1.5351
  130OSM    C3S13971   6.057   2.346   6.511  0.1768 -0.1402  0.0519
  130OSM    H3S13972   6.161   2.315   6.489 -0.3778 -0.4010 -2.5376
  130OSM     O313973   5.989   2.257   6.419 -0.1631 -0.3534 -0.2619
  130OSM    HO313974   5.956   2.322   6.357 -0.9853 -1.0883 -0.6021
  130OSM    C4S13975   6.017   2.314   6.655 -0.2503  0.7261 -0.8363
  130OSM    H4S13976   6.079   2.362   6.732 -0.8892  0.8138 -0.3691
  130OSM    C5S13977   5.927   2.216   6.693 -0.6257 -0.0175  0.4789
  130OSM    H5S13978   5.897   2.139   6.620  0.4860  0.9255 -1.0373
  130OSM    C6S13979   5.897   2.182   6.836  0.0459  0.0595  0.6330
  130OSM    H6S13980   5.940   2.081   6.855 -2.5746 -1.7006 -1.9732
  130OSM    H6T13981   5.788   2.164   6.839 -0.1950  1.4827  1.1403
  130OSM    C7S13982   5.932   2.289   6.939  0.4357  0.8270  0.3605
  130OSM    H7S13983   5.869   2.378   6.914  1.2413  0.7241 -2.3741
  130OSM    H7T13984   6.035   2.330   6.930  0.2801  1.0085 -0.7959
  130OSM    C8S13985   5.911   2.233   7.080 -0.1537 -0.1324 -0.1816
  130OSM    H8S13986   5.975   2.145   7.099  1.8169  1.3398  0.4209
  130OSM    H8T13987   5.806   2.197   7.075 -0.0738 -0.2670 -1.0559
  130OSM    C9S13988   5.941   2.337   7.188  0.0251 -0.1438 -0.1141
  130OSM    H9S13989   5.894   2.435   7.166  0.8310  1.0192  2.8476
  130OSM    H9T13990   6.050   2.353   7.201  0.0430 -1.3678  1.7806
  130OSM   C10S13991   5.908   2.289   7.329  0.4337 -0.2311  0.3150
  130OSM   H10S13992   5.943   2.186   7.350  0.8905 -0.7263 -2.4878
  130OSM   H10T13993   5.797   2.293   7.341  0.2779 -0.4857 -0.8954
  130OSM   C11S13994   5.954   2.386   7.448 -0.5597  0.8143  0.6186
  130OSM   H11S13995   5.921   2.489   7.422 -1.2640  1.1495  2.6539
  130OSM   H11T13996   6.064   2.396   7.438 -0.4303 -1.5013 -1.3165
  130OSM   C12S13997   5.908   2.333   7.587  0.1686 -0.4389 -0.6690
  130OSM   H12S13998   5.953   2.235   7.613  2.0115  1.0764  2.4667
  130OSM   H12T13999   5.801   2.303   7.590 -0.2922  1.1745  0.8809
  130OSM   C13S14000   5.935   2.427   7.711 -0.4242  0.1337  0.2798
  130OSM   H13S14001   5.882   2.523   7.693 -0.6760 -0.0595 -0.0206
  130OSM   H13T14002   6.046   2.437   7.710 -0.3853  0.0228 -2.1099
  130OSM   C14S14003   5.900   2.355   7.845 -0.1570 -0.5068 -0.4199
  130OSM   H14S14004   5.971   2.269   7.844  0.0632 -0.3556  0.7507
  130OSM   H14T14005   5.794   2.320   7.851 -0.3507 -0.0127 -0.8273
  130OSM   C15S14006   5.937   2.426   7.976 -0.4098  0.1245  0.0543
  130OSM   H15S14007   5.877   2.520   7.980 -0.2005  0.3245 -1.1152
  130OSM   H15T14008   6.042   2.462   7.977 -0.2078 -0.4841  0.8842
  130OSM   C16S14009   5.902   2.345   8.101 -0.2449 -0.3847  0.5149
  130OSM   H16S14010   5.929   2.239   8.081  0.1076 -0.3540  0.8227
  130OSM   H16T14011   5.791   2.345   8.105 -0.2303  0.8781  1.5056
  130OSM   C17S14012   5.974   2.396   8.226 -0.8689 -0.0664 -0.0005
  130OSM   H17S14013   6.010   2.500   8.212  3.1558 -1.5164 -2.1488
  130OSM   H17T14014   6.065   2.337   8.251 -1.6364 -1.3112 -0.0302
  130OSM   C18S14015   5.889   2.398   8.353 -0.4393  0.1568 -0.2311
  130OSM   H18S14016   5.951   2.457   8.424 -0.6644  1.5704 -1.1870
  130OSM   H18T14017   5.850   2.297   8.378 -0.2003  0.0851 -0.1453
  130OSM   H18U14018   5.806   2.469   8.334 -0.8351 -0.2333  0.0203
  130OSM    C1F14019   6.117   2.726   6.564 -0.1730  0.0608 -0.1480
  130OSM     OF14020   6.030   2.777   6.504 -0.1740 -0.1976  0.1630
  130OSM    C2F14021   6.229   2.801   6.617  0.4934 -0.1151  0.5656
  130OSM    H2F14022   6.305   2.831   6.542  0.1478  1.4018  0.7982
  130OSM    H2G14023   6.290   2.735   6.682  0.7138 -0.3492  0.1267
  130OSM    C3F14024   6.181   2.912   6.715 -0.7918  0.0657  0.1951
  130OSM    H3F14025   6.100   2.972   6.669 -0.1873  0.2571 -0.6282
  130OSM    H3G14026   6.267   2.982   6.724 -1.5768  1.4577 -2.2820
  130OSM    C4F14027   6.131   2.873   6.854 -0.4903 -0.5588 -0.1820
  130OSM    H4F14028   6.043   2.806   6.843  0.1064 -1.1818 -1.3308
  130OSM    H4G14029   6.122   2.967   6.911  1.3593 -0.2510 -0.3491
  130OSM    C5F14030   6.227   2.795   6.935 -0.4394 -0.3297 -0.9653
  130OSM    H5F14031   6.331   2.832   6.932  0.3693 -2.1596  1.5474
  130OSM    H5G14032   6.232   2.693   6.891  1.5653 -0.1804 -1.1524
  130OSM    C6F14033   6.185   2.782   7.075  0.0698  0.8541 -1.1111
  130OSM    H6F14034   6.075   2.769   7.079  0.0205  1.6576  0.5721
  130OSM    H6G14035   6.206   2.874   7.134  2.9625 -0.4110  0.0228
  130OSM    C7F14036   6.262   2.659   7.137  0.4719  0.5714 -0.1375
  130OSM    H7F14037   6.369   2.679   7.119  0.2750 -0.6079 -3.1062
  130OSM    H7G14038   6.255   2.570   7.072 -1.9261  1.8285 -1.7844
  130OSM    C8F14039   6.226   2.639   7.280  0.0134  0.3407  0.0369
  130OSM    H8F14040   6.120   2.608   7.290  1.0782 -2.8613  4.5431
  130OSM    H8G14041   6.228   2.739   7.328  1.1521 -0.1414  1.0419
  130OSM    C9F14042   6.303   2.523   7.348 -0.2105  0.2261  0.4143
  130OSM    H9F14043   6.315   2.426   7.296 -0.9594  0.6269 -0.5574
  130OSM   C10F14044   6.353   2.528   7.470 -0.2618  0.3356 -0.3917
  130OSM   H10F14045   6.409   2.448   7.520  0.2599  1.5708  1.0667
  130OSM   C11F14046   6.344   2.649   7.558  0.6317 -0.1619 -0.8460
  130OSM   H11F14047   6.245   2.697   7.542 -0.0128 -0.8176  0.9881
  130OSM   H11G14048   6.419   2.731   7.557 -0.7526  1.1920 -3.2164
  130OSM   C12F14049   6.329   2.587   7.703  0.1230 -0.1092  0.3262
  130OSM   H12F14050   6.429   2.547   7.730  1.6691  2.1773 -1.5987
  130OSM   H12G14051   6.266   2.495   7.707 -0.1408 -0.1201 -2.3931
  130OSM   C13F14052   6.279   2.682   7.806 -0.2187 -0.5387  0.1923
  130OSM   H13F14053   6.171   2.708   7.796 -0.3157 -0.3965  1.4186
  130OSM   H13G14054   6.323   2.782   7.786 -3.6516  0.5983 -2.7524
  130OSM   C14F14055   6.315   2.638   7.946 -0.0657 -0.8516  0.2096
  130OSM   H14F14056   6.423   2.666   7.948 -0.5308  1.0919 -0.2074
  130OSM   H14G14057   6.312   2.527   7.953 -1.1030 -0.8393  0.1099
  130OSM   C15F14058   6.236   2.694   8.058 -0.2776  0.1499  0.3281
  130OSM   H15F14059   6.131   2.657   8.055 -0.2626  0.0161  1.0987
  130OSM   H15G14060   6.227   2.802   8.033  1.5740  0.2329 -0.1213
  130OSM   C16F14061   6.293   2.673   8.197 -0.0533  0.2041 -0.3105
  130OSM   H16F14062   6.387   2.729   8.211 -0.0286 -0.0514  0.6231
  130OSM   H16G14063   6.319   2.567   8.218  2.0141  0.9275  1.0354
  130OSM   C17F14064   6.196   2.720   8.309  0.3415 -0.2426  0.1043
  130OSM   H17F14065   6.128   2.632   8.309  1.0685 -0.8128  0.4594
  130OSM   H17G14066   6.138   2.807   8.271  0.5833  0.1844  0.7066
  130OSM   C18F14067   6.267   2.747   8.438 -0.7425 -0.7804  0.3792
  130OSM   H18F14068   6.354   2.680   8.452 -0.2999  0.2998  3.6972
  130OSM   H18G14069   6.203   2.745   8.529 -0.1209  3.9045  1.1492
  130OSM   H18H14070   6.303   2.852   8.431  0.8869 -1.3900 -1.1858
  131OSM      N14071   5.724   0.031   6.168  0.6466 -0.5923  0.3600
  131OSM    C1514072   5.790  -0.067   6.266  0.1144  0.4770 -0.3006
  131OSM   H15A14073   5.724  -0.151   6.275 -1.6912  2.0193  2.2356
  131OSM   H15B14074   5.789  -0.026   6.366  1.3658 -2.4069  1.0059
  131OSM   H15C14075   5.896  -0.074   6.245  0.9260  1.6067  2.8683
  131OSM    C1414076   5.809   0.153   6.153  0.2825  0.4292 -0.0471
  131OSM   H14A14077   5.822   0.201   6.249  0.9406  2.2234 -0.9803
  131OSM   H14B14078   5.761   0.222   6.086  0.4122 -2.3979 -3.3045
  131OSM   H14C14079   5.907   0.124   6.119 -0.0645 -1.2456  0.3039
  131OSM    C1314080   5.724  -0.026   6.032  0.6481  0.0050  0.4184
  131OSM   H13A14081   5.647  -0.102   6.027  0.8052 -0.4122  2.9544
  131OSM   H13B14082   5.817  -0.074   6.006  0.7017  1.0667 -1.5460
  131OSM   H13C14083   5.708   0.050   5.957  0.2272 -0.0855  0.4144
  131OSM    C1214084   5.589   0.076   6.209 -0.3778 -0.4643  0.3142
  131OSM   H12A14085   5.553   0.136   6.126  0.7863  0.5525  0.5198
  131OSM   H12B14086   5.591   0.146   6.291 -0.6988  1.2101 -1.0538
  131OSM    C1114087   5.477  -0.028   6.226 -0.1519 -0.4015  0.5842
  131OSM   H11A14088   5.377   0.020   6.216  0.5260  0.5850 -2.1271
  131OSM   H11B14089   5.492  -0.063   6.331 -1.6213  1.7954  1.6244
  131OSM      P14090   5.458  -0.281   6.174  0.1658  0.1594 -0.0184
  131OSM    O1314091   5.409  -0.370   6.071 -0.3124  0.2271 -0.2929
  131OSM    O1414092   5.576  -0.335   6.247 -0.4841  0.2727 -0.1164
  131OSM    O1114093   5.340  -0.253   6.275  0.6900  0.0856 -0.3723
  131OSM    O1214094   5.482  -0.138   6.119  0.3480 -0.6512 -0.1041
  131OSM    C1S14095   5.305  -0.352   6.373  0.1444 -0.6880  0.3991
  131OSM    H1S14096   5.384  -0.422   6.406  1.2718  0.7249  0.8316
  131OSM    H1T14097   5.228  -0.411   6.317 -0.8434 -0.6585  1.6770
  131OSM     NF14098   5.215  -0.387   6.602  0.7511 -0.4027  0.0097
  131OSM    HNF14099   5.128  -0.434   6.609  0.3640  0.4009  0.8433
  131OSM    C2S14100   5.247  -0.284   6.502  0.4903  0.3719  0.1825
  131OSM    H2S14101   5.328  -0.225   6.551  0.3871 -0.7609  1.7910
  131OSM    C3S14102   5.134  -0.185   6.465 -0.8669 -0.3204 -0.6594
  131OSM    H3S14103   5.056  -0.231   6.401 -0.5045 -2.2789  0.2446
  131OSM     O314104   5.182  -0.076   6.390  0.8274 -0.0230  0.3677
  131OSM    HO314105   5.267  -0.099   6.351  0.1768 -0.9200 -0.5763
  131OSM    C4S14106   5.077  -0.141   6.602  0.2724  0.3823  0.0038
  131OSM    H4S14107   5.142  -0.069   6.653  1.2876  0.8130 -1.8462
  131OSM    C5S14108   4.968  -0.186   6.666 -0.1207  0.9041 -0.4834
  131OSM    H5S14109   4.913  -0.273   6.627 -0.8791  1.0078  0.3000
  131OSM    C6S14110   4.924  -0.136   6.799 -0.4092  0.6273  0.5620
  131OSM    H6S14111   4.817  -0.109   6.790 -0.1641  1.0289 -1.6179
  131OSM    H6T14112   4.985  -0.047   6.823 -0.0647  0.4909  0.2074
  131OSM    C7S14113   4.932  -0.233   6.916  0.3006  0.4464  0.1118
  131OSM    H7S14114   5.033  -0.280   6.923 -0.3643 -0.9752  0.4510
  131OSM    H7T14115   4.857  -0.312   6.894  0.9193 -0.3389  0.7576
  131OSM    C8S14116   4.890  -0.147   7.037 -0.0771 -0.0895  0.3653
  131OSM    H8S14117   4.807  -0.080   7.007 -0.8476 -1.9002 -1.8463
  131OSM    H8T14118   4.974  -0.080   7.064  0.1885  0.0078 -0.6906
  131OSM    C9S14119   4.863  -0.218   7.168 -0.0544  0.4520 -0.5991
  131OSM    H9S14120   4.906  -0.159   7.251  1.3596  0.7024 -1.4716
  131OSM    H9T14121   4.923  -0.312   7.166 -2.9535 -1.5384 -0.4538
  131OSM   C10S14122   4.719  -0.263   7.192  0.3494 -0.2759 -0.0441
  131OSM   H10S14123   4.667  -0.288   7.098 -0.6784 -2.1676  0.9730
  131OSM   H10T14124   4.673  -0.170   7.231 -1.2264 -0.5841 -1.1099
  131OSM   C11S14125   4.699  -0.373   7.297  0.0154  0.3014 -0.8226
  131OSM   H11S14126   4.748  -0.469   7.272  0.5034 -0.1768  1.7081
  131OSM   H11T14127   4.588  -0.383   7.294 -0.1279  1.8204 -2.5692
  131OSM   C12S14128   4.740  -0.322   7.435 -0.8760 -0.1487 -0.4491
  131OSM   H12S14129   4.701  -0.218   7.441  0.0876  0.1716  0.9116
  131OSM   H12T14130   4.851  -0.330   7.425 -1.0663 -1.9104 -1.6236
  131OSM   C13S14131   4.688  -0.394   7.561  0.4319 -0.0007  0.4217
  131OSM   H13S14132   4.737  -0.493   7.571  0.7514  0.2858  2.2056
  131OSM   H13T14133   4.581  -0.416   7.545 -0.1244  1.6313  1.6094
  131OSM   C14S14134   4.726  -0.322   7.693 -0.4095  0.5450 -1.2360
  131OSM   H14S14135   4.703  -0.213   7.685 -0.9420  0.4301 -1.3374
  131OSM   H14T14136   4.836  -0.313   7.697 -0.1563 -1.5313 -2.2086
  131OSM   C15S14137   4.685  -0.395   7.819 -0.5714  0.0193 -0.2262
  131OSM   H15S14138   4.725  -0.498   7.813  1.3162  0.6955 -0.1646
  131OSM   H15T14139   4.574  -0.401   7.816 -0.5244 -0.6658 -0.8495
  131OSM   C16S14140   4.719  -0.316   7.951  0.5227  0.0284  0.3075
  131OSM   H16S14141   4.668  -0.218   7.951 -3.6201 -1.9084  0.5846
  131OSM   H16T14142   4.829  -0.299   7.956  0.6165  0.5463 -2.3882
  131OSM   C17S14143   4.669  -0.391   8.075  0.0859  0.5769 -0.4817
  131OSM   H17S14144   4.559  -0.401   8.082  0.2843 -0.6621  1.5097
  131OSM   H17T14145   4.692  -0.319   8.156  3.3889 -0.1094 -0.6859
  131OSM   C18S14146   4.734  -0.518   8.104 -0.2695 -0.3533  0.2331
  131OSM   H18S14147   4.843  -0.523   8.082 -0.6346 -0.9104 -1.6449
  131OSM   H18T14148   4.691  -0.607   8.052  0.5772 -2.5656  3.0539
  131OSM   H18U14149   4.719  -0.536   8.213 -1.5983 -1.0449 -0.0480
  131OSM    C1F14150   5.297  -0.429   6.696  0.4325 -0.1000 -0.6674
  131OSM     OF14151   5.418  -0.412   6.688  0.3685 -0.3818  0.1990
  131OSM    C2F14152   5.241  -0.536   6.787  0.3032  0.1040 -0.2742
  131OSM    H2F14153   5.278  -0.635   6.751 -1.3515 -0.3153 -0.9292
  131OSM    H2G14154   5.131  -0.544   6.772  0.3373 -0.2618 -0.3429
  131OSM    C3F14155   5.260  -0.508   6.937 -0.7731 -0.5872  0.2479
  131OSM    H3F14156   5.224  -0.403   6.949  1.1908  0.5530 -2.7237
  131OSM    H3G14157   5.365  -0.498   6.972 -0.7655 -1.2441  0.4193
  131OSM    C4F14158   5.180  -0.597   7.032  0.4926 -0.5243  0.0633
  131OSM    H4F14159   5.227  -0.698   7.029 -0.7938 -1.1283 -1.2811
  131OSM    H4G14160   5.081  -0.611   6.982  0.8702 -1.9732 -0.3308
  131OSM    C5F14161   5.165  -0.536   7.174  0.3730  0.5093  0.0641
  131OSM    H5F14162   5.128  -0.431   7.176 -0.2443  0.3020 -0.1044
  131OSM    H5G14163   5.269  -0.529   7.212  0.4506  0.1020 -0.0656
  131OSM    C6F14164   5.076  -0.616   7.266  0.8274 -0.2639 -0.0137
  131OSM    H6F14165   5.111  -0.720   7.250  0.5361 -0.2123 -1.0273
  131OSM    H6G14166   4.974  -0.598   7.225  1.6765  3.5007 -0.8345
  131OSM    C7F14167   5.074  -0.560   7.411 -0.3365  0.1356  0.0352
  131OSM    H7F14168   5.053  -0.451   7.405 -1.3523  0.0896  1.9249
  131OSM    H7G14169   5.180  -0.564   7.443 -0.7440  1.0584  1.5849
  131OSM    C8F14170   4.978  -0.641   7.507 -0.0321  0.1099  0.2689
  131OSM    H8F14171   4.983  -0.752   7.508 -0.1511  0.1047  0.3037
  131OSM    H8G14172   4.875  -0.627   7.469 -0.1923 -1.9951 -0.1963
  131OSM    C9F14173   4.984  -0.580   7.648 -0.3661 -0.3860 -0.5784
  131OSM    H9F14174   4.967  -0.472   7.656  2.2139 -0.0442  2.0494
  131OSM   C10F14175   5.015  -0.645   7.761 -0.6611 -0.3753 -0.9121
  131OSM   H10F14176   5.029  -0.585   7.852  1.5767 -0.0012 -1.4516
  131OSM   C11F14177   5.051  -0.792   7.781  0.6363 -0.6701  0.1796
  131OSM   H11F14178   5.151  -0.809   7.827  0.2105 -0.3293  1.2710
  131OSM   H11G14179   5.052  -0.843   7.683  0.5621 -0.4911  0.0840
  131OSM   C12F14180   4.945  -0.847   7.878 -0.6549  0.2392  0.3543
  131OSM   H12F14181   4.938  -0.777   7.965  0.7344  0.5562  0.2429
  131OSM   H12G14182   4.977  -0.948   7.911  0.4922  1.0121  1.7730
  131OSM   C13F14183   4.802  -0.848   7.826  0.1691  0.4528 -0.1571
  131OSM   H13F14184   4.802  -0.906   7.731  1.6842 -0.3087  0.2738
  131OSM   H13G14185   4.771  -0.743   7.806 -2.6797 -0.5067 -1.3660
  131OSM   C14F14186   4.711  -0.915   7.926  0.1211  0.2239  0.3805
  131OSM   H14F14187   4.687  -0.847   8.010  0.6277  0.3181  0.4475
  131OSM   H14G14188   4.753  -1.007   7.972 -1.4382 -0.9897 -0.4875
  131OSM   C15F14189   4.577  -0.955   7.860  0.4349  0.4623 -0.2433
  131OSM   H15F14190   4.609  -1.011   7.770  0.1752  0.2112 -0.1781
  131OSM   H15G14191   4.512  -0.868   7.837 -0.4013 -0.1195 -0.1396
  131OSM   C16F14192   4.488  -1.045   7.952  0.3871  0.3614 -0.5093
  131OSM   H16F14193   4.535  -1.132   8.003 -1.2645  0.4615  1.3426
  131OSM   H16G14194   4.407  -1.090   7.891  0.5478 -1.8229  0.7810
  131OSM   C17F14195   4.418  -0.959   8.059  0.0184 -0.4343 -0.0823
  131OSM   H17F14196   4.361  -0.881   8.004 -0.4501 -0.0593  0.9063
  131OSM   H17G14197   4.483  -0.899   8.126 -0.8025 -2.2102  2.4438
  131OSM   C18F14198   4.309  -1.039   8.127  0.0688 -0.2062  0.1111
  131OSM   H18F14199   4.348  -1.134   8.168  0.7252 -0.9120 -2.0060
  131OSM   H18G14200   4.227  -1.063   8.055 -0.1460  0.9446 -0.0468
  131OSM   H18H14201   4.268  -0.984   8.214  0.8547  1.4242 -0.4933
  132OSM      N14202   3.719   5.836   6.054  0.3950  1.5204  0.0384
  132OSM    C1514203   3.640   5.717   6.074 -0.2091  0.7535 -0.0435
  132OSM   H15A14204   3.638   5.652   5.987  3.4303  2.0264 -1.2397
  132OSM   H15B14205   3.536   5.736   6.093 -1.1348 -1.2331 -2.4606
  132OSM   H15C14206   3.674   5.652   6.153 -1.6550  0.6393  0.5121
  132OSM    C1414207   3.849   5.800   5.988  0.2037 -0.7581  0.0497
  132OSM   H14A14208   3.907   5.889   5.969  0.2256 -0.6986  0.3843
  132OSM   H14B14209   3.832   5.756   5.891  0.1897 -1.1598  0.2345
  132OSM   H14C14210   3.906   5.739   6.056  1.6790  1.4189  0.9126
  132OSM    C1314211   3.646   5.926   5.963 -0.4055  0.5679  0.1445
  132OSM   H13A14212   3.552   5.948   6.013 -1.6721 -1.0254 -1.4433
  132OSM   H13B14213   3.627   5.882   5.867  0.8889 -0.6927  0.4365
  132OSM   H13C14214   3.696   6.021   5.952  1.1522  0.4130  4.1426
  132OSM    C1214215   3.754   5.902   6.184  0.2333  0.3043 -0.0172
  132OSM   H12A14216   3.808   5.991   6.155 -0.4718  0.2313 -1.6361
  132OSM   H12B14217   3.820   5.842   6.245  0.9525 -1.3689 -2.2905
  132OSM    C1114218   3.632   5.941   6.275  0.0676 -0.1713 -0.0489
  132OSM   H11A14219   3.667   5.985   6.370  0.7314  0.4448 -0.5714
  132OSM   H11B14220   3.596   5.839   6.301 -1.7156  0.5873  0.6103
  132OSM      P14221   3.526   6.171   6.216  0.1240 -0.4513 -0.3724
  132OSM    O1314222   3.659   6.237   6.221  0.1318 -0.0390 -0.2626
  132OSM    O1414223   3.435   6.220   6.113  0.2930 -0.3562 -0.5187
  132OSM    O1114224   3.466   6.191   6.360  0.1462  0.0252 -0.4522
  132OSM    O1214225   3.534   6.016   6.205  0.4541 -0.1351  0.2583
  132OSM    C1S14226   3.321   6.202   6.383  0.6978  0.7511  0.6845
  132OSM    H1S14227   3.259   6.126   6.330  1.7087  0.5850 -0.2754
  132OSM    H1T14228   3.288   6.300   6.344 -1.7554 -0.1957  0.1485
  132OSM     NF14229   3.126   6.219   6.526 -0.4934 -0.2460 -0.0886
  132OSM    HNF14230   3.083   6.306   6.550  0.9012  0.0711  1.4866
  132OSM    C2S14231   3.273   6.213   6.527  0.4779  0.0087  0.5003
  132OSM    H2S14232   3.309   6.122   6.581 -1.1930 -0.2389  1.2813
  132OSM    C3S14233   3.340   6.335   6.592  0.2430  0.4335  0.2862
  132OSM    H3S14234   3.284   6.416   6.541 -3.6387 -3.6483 -2.7587
  132OSM     O314235   3.478   6.351   6.562  0.0333  0.4174 -0.3244
  132OSM    HO314236   3.492   6.299   6.482 -1.7781  0.0903 -0.4631
  132OSM    C4S14237   3.304   6.340   6.740 -0.4889 -0.2191  0.2128
  132OSM    H4S14238   3.200   6.370   6.758 -0.2947  0.9888 -0.5558
  132OSM    C5S14239   3.368   6.282   6.840  0.1175  0.1387 -0.4120
  132OSM    H5S14240   3.463   6.227   6.829 -0.6300 -1.6498  1.4124
  132OSM    C6S14241   3.319   6.286   6.982  0.4743 -0.0201 -0.0808
  132OSM    H6S14242   3.377   6.361   7.039 -0.5736 -0.6866  1.9620
  132OSM    H6T14243   3.352   6.197   7.039 -3.3754 -0.5819  1.6477
  132OSM    C7S14244   3.173   6.305   7.012 -0.5592 -0.5633  0.4377
  132OSM    H7S14245   3.118   6.240   6.941 -0.8066 -1.3936  1.3660
  132OSM    H7T14246   3.135   6.408   6.995 -1.3921 -0.8043  0.7870
  132OSM    C8S14247   3.133   6.265   7.151  0.4412  0.0689  0.1337
  132OSM    H8S14248   3.173   6.345   7.217  2.3589 -0.6404 -0.0965
  132OSM    H8T14249   3.176   6.164   7.171 -2.4093 -2.0767 -3.3518
  132OSM    C9S14250   2.984   6.259   7.170 -0.1223 -0.1276  0.5394
  132OSM    H9S14251   2.955   6.192   7.086  2.1928 -0.5375  0.0025
  132OSM    H9T14252   2.947   6.363   7.161  0.2973 -0.0325 -0.0482
  132OSM   C10S14253   2.946   6.207   7.315 -0.8251  0.4914  0.1821
  132OSM   H10S14254   3.003   6.268   7.388  1.6510  0.9310 -1.9416
  132OSM   H10T14255   2.989   6.106   7.328 -2.3264 -0.3478 -1.0030
  132OSM   C11S14256   2.796   6.209   7.348  0.4486  0.2847 -0.3530
  132OSM   H11S14257   2.734   6.181   7.260 -1.3393  1.2282  0.5517
  132OSM   H11T14258   2.782   6.319   7.356  0.9917  0.2657  1.1250
  132OSM   C12S14259   2.765   6.136   7.487 -0.2722 -1.4221  0.1427
  132OSM   H12S14260   2.855   6.077   7.515 -0.8144 -2.0719  0.5456
  132OSM   H12T14261   2.681   6.063   7.477 -0.1879 -1.8889  2.3525
  132OSM   C13S14262   2.720   6.239   7.597 -0.4305 -0.4342  0.3549
  132OSM   H13S14263   2.637   6.302   7.557 -0.0502 -1.7584 -2.8436
  132OSM   H13T14264   2.794   6.320   7.607 -1.0431  0.6362 -2.7303
  132OSM   C14S14265   2.684   6.176   7.734  0.6168 -0.2032  0.3699
  132OSM   H14S14266   2.778   6.137   7.778 -0.3334 -1.8845  1.0050
  132OSM   H14T14267   2.615   6.089   7.734  0.6984 -0.3231 -1.7593
  132OSM   C15S14268   2.631   6.286   7.823 -0.2195 -0.3635  0.2832
  132OSM   H15S14269   2.539   6.339   7.790 -0.3360 -1.1436 -0.6880
  132OSM   H15T14270   2.713   6.362   7.825 -1.0729  0.5675  1.6780
  132OSM   C16S14271   2.608   6.219   7.965  0.1477 -0.1182  0.8518
  132OSM   H16S14272   2.688   6.143   7.963 -1.1905 -1.6391 -2.3706
  132OSM   H16T14273   2.510   6.170   7.981 -1.3771  2.4448  0.0068
  132OSM   C17S14274   2.631   6.318   8.076  0.7180  0.5583 -0.0423
  132OSM   H17S14275   2.733   6.359   8.066  0.9765  0.0439  0.4181
  132OSM   H17T14276   2.630   6.260   8.171 -2.3607 -0.5068 -0.5934
  132OSM   C18S14277   2.531   6.439   8.084  0.1239 -0.0566  0.2440
  132OSM   H18S14278   2.526   6.502   7.992  3.1734 -0.7323 -0.4675
  132OSM   H18T14279   2.571   6.507   8.162 -0.1459  0.3725  0.0136
  132OSM   H18U14280   2.428   6.406   8.112  0.1464 -1.0465 -0.7885
  132OSM    C1F14281   3.052   6.112   6.517  0.5246  0.2996  0.1963
  132OSM     OF14282   3.095   5.999   6.545 -0.2939  0.1774 -0.2922
  132OSM    C2F14283   2.909   6.133   6.458  0.5851  0.6842 -0.4269
  132OSM    H2F14284   2.917   6.092   6.355 -0.9635  0.8419 -0.6276
  132OSM    H2G14285   2.885   6.241   6.463  1.7328  0.8985  1.5484
  132OSM    C3F14286   2.797   6.058   6.531  0.2264  0.1838  0.1190
  132OSM    H3F14287   2.813   5.951   6.508 -0.8164 -0.1378  0.8105
  132OSM    H3G14288   2.702   6.094   6.487  0.3442  1.2851  0.7166
  132OSM    C4F14289   2.793   6.087   6.684  0.3153 -0.4275 -0.5914
  132OSM    H4F14290   2.771   6.196   6.692  0.6860 -0.4420  0.8425
  132OSM    H4G14291   2.896   6.083   6.725  1.0941  0.9457 -2.2666
  132OSM    C5F14292   2.701   6.000   6.770  0.5914 -0.4886 -0.0467
  132OSM    H5F14293   2.709   6.027   6.877 -2.2091  1.5110 -0.2209
  132OSM    H5G14294   2.728   5.892   6.763  1.1179 -0.2574 -2.7141
  132OSM    C6F14295   2.548   6.006   6.733 -0.5687  0.1467  0.6001
  132OSM    H6F14296   2.534   5.937   6.647  0.3515 -1.3601  1.6146
  132OSM    H6G14297   2.512   6.109   6.713 -1.3010  0.1838  2.0286
  132OSM    C7F14298   2.445   5.969   6.842  0.2308 -0.4658  0.6006
  132OSM    H7F14299   2.341   5.968   6.805  0.4166 -0.1323  0.0687
  132OSM    H7G14300   2.446   6.045   6.923 -0.2506  0.1142  0.0726
  132OSM    C8F14301   2.476   5.831   6.905 -0.0297  0.0872  0.0129
  132OSM    H8F14302   2.570   5.850   6.961 -1.0084  0.0080  1.7181
  132OSM    H8G14303   2.483   5.758   6.821 -1.6625 -0.5787  0.4314
  132OSM    C9F14304   2.369   5.780   7.002  0.0400  0.9790  0.0135
  132OSM    H9F14305   2.295   5.703   6.975  0.5503  0.5738 -0.2720
  132OSM   C10F14306   2.351   5.826   7.132 -0.6439 -0.3789 -0.7803
  132OSM   H10F14307   2.267   5.797   7.197 -0.3832 -0.7343 -0.5986
  132OSM   C11F14308   2.441   5.932   7.208  0.3710  0.2995 -0.8155
  132OSM   H11F14309   2.516   5.961   7.132  0.1563  0.9609 -0.7816
  132OSM   H11G14310   2.500   5.890   7.293  0.4641  2.3923  0.2241
  132OSM   C12F14311   2.366   6.065   7.236  0.8463 -0.3259 -1.0894
  132OSM   H12F14312   2.314   6.090   7.141 -2.7631 -1.6888  0.3485
  132OSM   H12G14313   2.447   6.139   7.256  0.1116  0.7561 -2.0184
  132OSM   C13F14314   2.271   6.062   7.357 -0.3504  0.0480 -0.0625
  132OSM   H13F14315   2.323   6.037   7.452 -0.9247  0.5672  0.3937
  132OSM   H13G14316   2.199   5.978   7.346 -1.3364  0.9174 -0.4591
  132OSM   C14F14317   2.203   6.190   7.376 -0.6513  0.3828 -0.3102
  132OSM   H14F14318   2.139   6.207   7.287 -1.7883 -2.3233 -0.1090
  132OSM   H14G14319   2.282   6.269   7.378  0.6537 -0.8911  0.6733
  132OSM   C15F14320   2.118   6.204   7.506 -0.3052  0.3622  0.7329
  132OSM   H15F14321   2.049   6.117   7.509 -0.4463  0.3841 -0.8585
  132OSM   H15G14322   2.056   6.295   7.490 -0.9322 -0.3247 -1.0693
  132OSM   C16F14323   2.207   6.206   7.631  0.4149 -0.0512 -1.1092
  132OSM   H16F14324   2.253   6.307   7.638 -1.1658  0.5816  1.5361
  132OSM   H16G14325   2.284   6.125   7.621  1.5222  0.8063  0.0803
  132OSM   C17F14326   2.131   6.159   7.766  0.0659 -0.6571 -0.2457
  132OSM   H17F14327   2.088   6.057   7.755  0.7897 -0.8322 -1.7810
  132OSM   H17G14328   2.046   6.229   7.774  0.5777  0.0299 -0.6476
  132OSM   C18F14329   2.204   6.176   7.900  0.4804 -1.1211  0.2631
  132OSM   H18F14330   2.203   6.283   7.928  0.1026 -0.8833 -0.6076
  132OSM   H18G14331   2.304   6.128   7.893 -0.3419 -3.1260  1.2565
  132OSM   H18H14332   2.165   6.126   7.991  0.0335 -0.1345  0.6201
  133OSM      N14333   2.694   5.587   5.898  0.0289  0.4933 -0.1098
  133OSM    C1514334   2.679   5.532   5.758 -0.2388 -0.2358  0.0540
  133OSM   H15A14335   2.767   5.474   5.734 -0.3255 -0.0397 -0.7656
  133OSM   H15B14336   2.673   5.613   5.687 -2.4949  0.4948  0.9694
  133OSM   H15C14337   2.585   5.478   5.752  0.4632 -1.6117  0.8742
  133OSM    C1414338   2.809   5.688   5.901 -0.1724  0.1149  0.0175
  133OSM   H14A14339   2.897   5.647   5.853 -0.3580 -0.1486 -0.1019
  133OSM   H14B14340   2.834   5.712   6.003  2.4945 -0.1239 -0.5035
  133OSM   H14C14341   2.785   5.776   5.843 -0.6889  0.8266  1.2779
  133OSM    C1314342   2.563   5.660   5.930  0.2946  0.7405 -0.0970
  133OSM   H13A14343   2.473   5.600   5.925 -0.7830  2.0715  1.9184
  133OSM   H13B14344   2.554   5.749   5.869  0.2248  0.8468  0.0654
  133OSM   H13C14345   2.564   5.712   6.025  0.2181 -0.9550  0.8569
  133OSM    C1214346   2.718   5.475   6.000  0.7073 -0.3774 -0.9181
  133OSM   H12A14347   2.808   5.431   5.959  1.7259 -0.1653  0.9678
  133OSM   H12B14348   2.637   5.404   6.002 -1.0289  1.5368  0.5695
  133OSM    C1114349   2.751   5.498   6.151  0.0329 -0.2184  0.1338
  133OSM   H11A14350   2.737   5.407   6.214 -0.1728  0.3632  0.9467
  133OSM   H11B14351   2.679   5.573   6.189  2.9503  3.6643 -1.3244
  133OSM      P14352   3.006   5.454   6.151  0.1517  0.4207 -0.0054
  133OSM    O1314353   2.980   5.317   6.195 -0.1433 -0.1798 -0.0582
  133OSM    O1414354   3.075   5.465   6.019 -0.4738 -0.0853  0.0948
  133OSM    O1114355   3.093   5.530   6.260 -0.1162 -0.0240  0.0861
  133OSM    O1214356   2.879   5.549   6.164 -0.0184 -0.3817  0.6836
  133OSM    C1S14357   3.037   5.593   6.374  0.1070 -0.7302  0.3662
  133OSM    H1S14358   2.963   5.527   6.424 -1.9477 -1.5050 -3.3306
  133OSM    H1T14359   2.983   5.684   6.340 -0.6826 -1.3811 -0.1638
  133OSM     NF14360   3.074   5.710   6.578  0.8730 -0.5848  0.1698
  133OSM    HNF14361   3.069   5.810   6.572  1.4659 -0.5990 -3.7477
  133OSM    C2S14362   3.144   5.650   6.468  0.1517 -0.2233 -0.0562
  133OSM    H2S14363   3.200   5.564   6.512 -0.3373 -0.9579 -0.8469
  133OSM    C3S14364   3.241   5.744   6.389 -0.0155 -0.6272 -0.5411
  133OSM    H3S14365   3.189   5.830   6.343  0.3662 -1.6888 -3.1101
  133OSM     O314366   3.308   5.682   6.281 -0.0267  0.2879  0.0020
  133OSM    HO314367   3.239   5.620   6.257 -1.0241  0.6795  1.6865
  133OSM    C4S14368   3.342   5.797   6.490  0.5973 -0.5842  0.3306
  133OSM    H4S14369   3.325   5.903   6.515 -2.0356 -1.4086  2.4787
  133OSM    C5S14370   3.448   5.737   6.545  0.7592 -0.2560  0.1746
  133OSM    H5S14371   3.474   5.634   6.518 -0.7669 -1.2111  2.1472
  133OSM    C6S14372   3.550   5.802   6.640  0.3975  0.7938  0.0140
  133OSM    H6S14373   3.550   5.911   6.620  0.5202  1.0441  1.3225
  133OSM    H6T14374   3.652   5.768   6.613 -0.3162 -1.5484  0.0358
  133OSM    C7S14375   3.529   5.763   6.783 -0.5329 -0.5162  0.0680
  133OSM    H7S14376   3.630   5.732   6.820 -0.4032 -3.2019 -2.2239
  133OSM    H7T14377   3.463   5.675   6.794 -1.1593  0.2576  3.6758
  133OSM    C8S14378   3.479   5.872   6.873  0.0905  0.0944 -0.2286
  133OSM    H8S14379   3.393   5.926   6.828  0.6004  1.3085  0.2080
  133OSM    H8T14380   3.558   5.950   6.875  0.2384 -0.0433  1.7110
  133OSM    C9S14381   3.464   5.819   7.018  0.8893 -0.0347 -0.0521
  133OSM    H9S14382   3.560   5.780   7.058  1.0859  0.7326  0.2468
  133OSM    H9T14383   3.396   5.731   7.017 -0.1786  0.7678 -1.8420
  133OSM   C10S14384   3.396   5.925   7.109 -0.2477 -0.3806  0.3224
  133OSM   H10S14385   3.300   5.971   7.075  0.9416  1.6078 -0.5450
  133OSM   H10T14386   3.470   6.005   7.090 -1.3187  0.3967 -0.7690
  133OSM   C11S14387   3.390   5.886   7.254 -0.1458 -0.2585 -0.5348
  133OSM   H11S14388   3.490   5.843   7.278  0.0122 -1.4359 -2.9951
  133OSM   H11T14389   3.318   5.802   7.265 -0.4424 -0.0535 -0.8987
  133OSM   C12S14390   3.338   5.991   7.358  0.2883 -0.4486  0.3883
  133OSM   H12S14391   3.238   6.022   7.320  0.8851  0.1053 -0.7575
  133OSM   H12T14392   3.409   6.077   7.354 -1.0652  0.6769 -2.6583
  133OSM   C13S14393   3.309   5.939   7.498 -0.3223 -0.5464 -0.2783
  133OSM   H13S14394   3.406   5.898   7.534 -0.4665 -1.4044 -0.8417
  133OSM   H13T14395   3.238   5.854   7.499  0.9784 -1.6786 -0.4592
  133OSM   C14S14396   3.236   6.051   7.578 -0.1549 -0.2969  0.5124
  133OSM   H14S14397   3.140   6.063   7.523  0.6439  2.2583 -0.4718
  133OSM   H14T14398   3.292   6.147   7.577  0.0266 -0.3944 -0.4244
  133OSM   C15S14399   3.194   6.005   7.719 -0.2286 -0.5426  0.3543
  133OSM   H15S14400   3.287   6.002   7.780  0.7351  0.2693 -1.0321
  133OSM   H15T14401   3.148   5.904   7.722  0.9631 -1.1054  2.8123
  133OSM   C16S14402   3.096   6.105   7.777  0.5684  0.0868 -0.3994
  133OSM   H16S14403   3.002   6.045   7.783 -0.7900  2.2176  1.1338
  133OSM   H16T14404   3.073   6.195   7.715 -0.6162 -0.2644 -0.4874
  133OSM   C17S14405   3.136   6.145   7.920  0.4129  0.1648 -0.0569
  133OSM   H17S14406   3.235   6.196   7.920 -0.7164  2.5346  1.9563
  133OSM   H17T14407   3.144   6.047   7.972  1.2682 -0.0326 -0.5455
  133OSM   C18S14408   3.030   6.229   7.976  0.1148 -0.0126 -0.6270
  133OSM   H18S14409   3.030   6.228   8.088  0.9370  2.1206 -0.5736
  133OSM   H18T14410   2.931   6.188   7.946  0.2973 -0.8946 -0.0597
  133OSM   H18U14411   3.059   6.333   7.952  0.1367 -0.0746 -0.8633
  133OSM    C1F14412   3.010   5.638   6.671  0.3762  0.2246 -0.0061
  133OSM     OF14413   3.008   5.517   6.671 -0.5811 -0.0552 -0.1067
  133OSM    C2F14414   2.940   5.716   6.769 -0.4313  0.6864 -0.9464
  133OSM    H2F14415   2.830   5.696   6.770 -0.3855  0.4048  0.2420
  133OSM    H2G14416   2.945   5.825   6.749  1.2498  0.5988 -1.1252
  133OSM    C3F14417   2.993   5.687   6.906  0.3214  0.3338 -0.3052
  133OSM    H3F14418   3.103   5.699   6.904  0.4076 -0.4514 -0.5930
  133OSM    H3G14419   2.958   5.583   6.925 -1.6934  0.9467 -0.3331
  133OSM    C4F14420   2.926   5.769   7.017  0.2156 -0.4203 -0.2433
  133OSM    H4F14421   2.815   5.763   7.006  0.1469 -2.1953  0.9623
  133OSM    H4G14422   2.954   5.876   7.012 -3.3697  0.6698 -0.0445
  133OSM    C5F14423   2.967   5.719   7.155 -0.3391 -0.0877  0.1698
  133OSM    H5F14424   3.076   5.735   7.169  0.2797 -1.1819 -2.7738
  133OSM    H5G14425   2.940   5.611   7.156  0.2717 -0.2925 -1.6465
  133OSM    C6F14426   2.908   5.784   7.281 -0.0128  0.4334 -0.2980
  133OSM    H6F14427   2.797   5.791   7.272 -0.2183 -2.1650 -0.6325
  133OSM    H6G14428   2.950   5.886   7.295 -0.8810  1.0310 -1.7063
  133OSM    C7F14429   2.932   5.703   7.417 -0.1848 -0.3307  0.3639
  133OSM    H7F14430   3.031   5.653   7.418 -0.0466 -0.0571  0.7715
  133OSM    H7G14431   2.871   5.610   7.410 -0.1312 -0.3128 -0.3251
  133OSM    C8F14432   2.889   5.776   7.547  0.0469 -0.1732  0.0337
  133OSM    H8F14433   2.779   5.789   7.534  0.0807  1.6206  1.1352
  133OSM    H8G14434   2.940   5.875   7.553 -0.9665  0.4835 -1.5952
  133OSM    C9F14435   2.934   5.708   7.667  0.3651  0.0280  0.1077
  133OSM    H9F14436   3.006   5.629   7.638  0.1790  0.0589 -0.4427
  133OSM   C10F14437   2.861   5.718   7.781  0.3715 -0.0444 -0.1582
  133OSM   H10F14438   2.880   5.659   7.872 -0.3588  1.8448  1.2935
  133OSM   C11F14439   2.734   5.796   7.805  0.2531 -0.3916  0.0313
  133OSM   H11F14440   2.648   5.726   7.796 -0.0014 -0.2204  1.0960
  133OSM   H11G14441   2.721   5.868   7.721 -2.3082 -2.7026 -1.7363
  133OSM   C12F14442   2.717   5.869   7.940  0.6896 -0.5737  0.0826
  133OSM   H12F14443   2.617   5.917   7.938 -0.0079 -1.9256  0.9215
  133OSM   H12G14444   2.791   5.952   7.939  0.0437  0.0058  0.1565
  133OSM   C13F14445   2.717   5.780   8.057 -0.4905  0.0882 -0.2700
  133OSM   H13F14446   2.811   5.722   8.065 -1.6540 -1.8975  0.0206
  133OSM   H13G14447   2.636   5.707   8.033 -0.2346  0.0887 -1.1874
  133OSM   C14F14448   2.691   5.855   8.190 -0.3209 -0.4112  0.7754
  133OSM   H14F14449   2.759   5.942   8.188  0.8256 -1.2938 -1.4908
  133OSM   H14G14450   2.736   5.791   8.270  0.0163 -2.8414 -1.2389
  133OSM   C15F14451   2.539   5.875   8.224  0.0635 -0.2277 -0.2080
  133OSM   H15F14452   2.479   5.784   8.244 -1.6630  0.9234  0.0699
  133OSM   H15G14453   2.501   5.918   8.129  1.5485  1.6159 -0.0235
  133OSM   C16F14454   2.522   5.961   8.347 -0.3917  0.5816 -0.6489
  133OSM   H16F14455   2.592   6.047   8.341  1.2540 -0.7414 -1.1786
  133OSM   H16G14456   2.555   5.917   8.443 -2.1093 -0.1483 -0.3463
  133OSM   C17F14457   2.379   6.013   8.358  1.0749  0.0549  0.1942
  133OSM   H17F14458   2.369   6.064   8.456 -0.7276 -2.0075  1.1827
  133OSM   H17G14459   2.318   5.920   8.356 -0.4848  1.0460 -0.1316
  133OSM   C18F14460   2.334   6.100   8.235  0.1079 -0.1209  0.1432
  133OSM   H18F14461   2.319   6.043   8.141 -0.6926 -2.0262  1.3683
  133OSM   H18G14462   2.404   6.180   8.203  1.2742 -2.1909 -2.9356
  133OSM   H18H14463   2.234   6.144   8.259  0.0494  1.6164 -2.8278
  134OSM      N14464   6.089   1.594   6.174 -0.0112  0.0465  0.0932
  134OSM    C1514465   6.146   1.697   6.271  0.1295 -0.1185 -0.3314
  134OSM   H15A14466   6.149   1.796   6.228 -0.4922  0.2472  0.4197
  134OSM   H15B14467   6.248   1.676   6.298  0.8620  0.7982 -2.2135
  134OSM   H15C14468   6.082   1.702   6.359  1.0143  0.7356  0.2805
  134OSM    C1414469   5.942   1.613   6.149 -0.2924  0.5527  0.1552
  134OSM   H14A14470   5.926   1.700   6.086 -2.8773  0.0766  0.0378
  134OSM   H14B14471   5.889   1.636   6.240  0.5440  1.9090  0.3277
  134OSM   H14C14472   5.894   1.532   6.097 -0.8430 -0.1762  1.7360
  134OSM    C1314473   6.155   1.600   6.040  0.1691 -0.4814  0.0754
  134OSM   H13A14474   6.116   1.520   5.980 -0.4226 -0.5656  0.5577
  134OSM   H13B14475   6.262   1.588   6.048  0.2748  0.2349 -0.1926
  134OSM   H13C14476   6.135   1.688   5.981  0.3274  0.8149  1.8405
  134OSM    C1214477   6.108   1.453   6.226  0.1258 -0.6551 -0.3103
  134OSM   H12A14478   6.094   1.391   6.139 -0.3442  0.7986 -1.3191
  134OSM   H12B14479   6.024   1.430   6.290 -0.8164  3.0569  0.0058
  134OSM    C1114480   6.239   1.422   6.296  0.2422 -0.1523 -0.1782
  134OSM   H11A14481   6.231   1.320   6.340 -1.7445 -0.0768 -0.3058
  134OSM   H11B14482   6.258   1.491   6.381  0.3270  1.1042 -1.2023
  134OSM      P14483   6.410   1.310   6.136  0.1100 -0.1049 -0.4277
  134OSM    O1314484   6.302   1.221   6.076 -0.2146  0.2248  0.6219
  134OSM    O1414485   6.519   1.357   6.047  0.8902 -0.3600 -0.0097
  134OSM    O1114486   6.471   1.230   6.260 -0.4462 -0.1229 -0.0442
  134OSM    O1214487   6.347   1.437   6.214 -0.3137  0.0045  0.4126
  134OSM    C1S14488   6.564   1.300   6.349  1.0617 -0.1640  0.1139
  134OSM    H1S14489   6.575   1.408   6.327  3.1539  0.1156  2.1766
  134OSM    H1T14490   6.664   1.256   6.328  1.3464  1.3250 -1.9999
  134OSM     NF14491   6.611   1.360   6.582 -0.2520 -0.8617 -0.7276
  134OSM    HNF14492   6.684   1.312   6.631 -0.7065 -0.0295  0.8218
  134OSM    C2S14493   6.517   1.292   6.502  0.0064  0.4191  0.5419
  134OSM    H2S14494   6.418   1.342   6.505 -0.9073 -1.3332  2.5541
  134OSM    C3S14495   6.507   1.148   6.543  0.1158  0.3266  0.1717
  134OSM    H3S14496   6.606   1.101   6.527  0.2933  0.8510 -0.3136
  134OSM     O314497   6.426   1.061   6.462  0.9530 -0.2304  0.3124
  134OSM    HO314498   6.430   1.112   6.381 -2.0004 -0.4277 -0.0504
  134OSM    C4S14499   6.470   1.124   6.691 -0.1086  1.1223  0.0701
  134OSM    H4S14500   6.369   1.152   6.722 -0.1187 -1.2054  2.5442
  134OSM    C5S14501   6.550   1.062   6.780 -0.9815 -0.0146 -0.2262
  134OSM    H5S14502   6.651   1.035   6.745 -1.1513  1.4794 -2.0501
  134OSM    C6S14503   6.524   1.033   6.927  0.2101  0.1688 -0.1396
  134OSM    H6S14504   6.599   1.082   6.992 -0.6067  0.4864  0.5869
  134OSM    H6T14505   6.530   0.923   6.942 -1.9771 -0.1944 -1.5103
  134OSM    C7S14506   6.381   1.074   6.977  0.1942 -0.5058 -0.1324
  134OSM    H7S14507   6.311   1.020   6.910 -0.8853  0.5627  0.0959
  134OSM    H7T14508   6.362   1.184   6.980  2.2549 -0.1204  1.2918
  134OSM    C8S14509   6.345   1.023   7.117  0.4564  0.1574  0.4301
  134OSM    H8S14510   6.335   0.912   7.118  1.5202  0.0344 -0.7399
  134OSM    H8T14511   6.247   1.073   7.134 -0.4147 -1.9597  2.1485
  134OSM    C9S14512   6.442   1.055   7.228  0.1521 -0.8211 -0.4676
  134OSM    H9S14513   6.443   1.164   7.245  1.1240 -0.6780 -1.3729
  134OSM    H9T14514   6.546   1.020   7.208  0.4902 -0.2181  0.2003
  134OSM   C10S14515   6.398   1.008   7.363 -0.2338  0.3142 -0.1636
  134OSM   H10S14516   6.401   0.897   7.376  2.1198  0.5361  1.8013
  134OSM   H10T14517   6.292   1.036   7.381 -0.8361 -0.6835 -1.9045
  134OSM   C11S14518   6.486   1.059   7.480 -0.2444  0.7872 -0.8455
  134OSM   H11S14519   6.523   1.159   7.450  0.7393  0.6456 -0.1589
  134OSM   H11T14520   6.572   0.993   7.504 -0.7266 -0.1989 -1.7623
  134OSM   C12S14521   6.404   1.083   7.607 -0.5552 -0.2782 -0.3847
  134OSM   H12S14522   6.325   1.158   7.586 -0.7665  0.2171  1.8964
  134OSM   H12T14523   6.471   1.121   7.687  0.5828 -1.5553 -0.6787
  134OSM   C13S14524   6.346   0.952   7.647  0.7073  0.6628 -0.8027
  134OSM   H13S14525   6.431   0.881   7.653  0.3056  0.2715  0.9850
  134OSM   H13T14526   6.263   0.924   7.579  1.1198  0.3048 -1.1658
  134OSM   C14S14527   6.281   0.958   7.791 -0.3695  0.2209  0.8211
  134OSM   H14S14528   6.200   0.881   7.789 -0.7966  0.6574 -1.4643
  134OSM   H14T14529   6.225   1.049   7.819  0.2595  0.1878  2.2172
  134OSM   C15S14530   6.388   0.930   7.900 -0.0633  0.0871 -0.6473
  134OSM   H15S14531   6.476   0.997   7.890  0.0440  0.0749  0.1115
  134OSM   H15T14532   6.418   0.823   7.892 -2.1778 -0.4210 -2.7888
  134OSM   C16S14533   6.325   0.938   8.043  0.4129  0.3753  0.5036
  134OSM   H16S14534   6.253   0.857   8.068  0.2670  0.7504  1.3398
  134OSM   H16T14535   6.270   1.034   8.054  1.0285  0.8834 -0.6963
  134OSM   C17S14536   6.438   0.931   8.150 -0.2617  0.1818 -0.0200
  134OSM   H17S14537   6.505   1.017   8.129 -0.2515 -0.7265 -5.0749
  134OSM   H17T14538   6.511   0.847   8.144  1.7668  1.6120  2.5072
  134OSM   C18S14539   6.383   0.927   8.296 -0.8969  0.3026 -0.4657
  134OSM   H18S14540   6.471   0.932   8.364  0.6820 -0.1520 -2.3977
  134OSM   H18T14541   6.325   0.837   8.323 -2.3897  1.4258  0.2067
  134OSM   H18U14542   6.317   1.012   8.324 -1.7822 -0.3018 -0.7162
  134OSM    C1F14543   6.625   1.490   6.589 -0.0886  0.7987 -0.8752
  134OSM     OF14544   6.550   1.551   6.512 -0.0716 -0.0914  0.1274
  134OSM    C2F14545   6.722   1.562   6.681 -0.2678 -0.4801 -0.2218
  134OSM    H2F14546   6.730   1.659   6.627 -0.1614 -1.7691 -2.6939
  134OSM    H2G14547   6.822   1.512   6.679 -0.0310 -0.1217  1.3499
  134OSM    C3F14548   6.663   1.585   6.827  1.2522 -0.8030  0.0402
  134OSM    H3F14549   6.636   1.485   6.869 -0.2229 -0.4091  0.0940
  134OSM    H3G14550   6.568   1.640   6.809  1.0435 -1.4099 -0.7914
  134OSM    C4F14551   6.758   1.657   6.909  0.4160 -0.0988 -0.5708
  134OSM    H4F14552   6.765   1.765   6.884 -0.2862  0.3715  1.1087
  134OSM    H4G14553   6.862   1.620   6.899  0.9150  1.0707  0.0811
  134OSM    C5F14554   6.708   1.655   7.056  0.1982  0.1242  0.1615
  134OSM    H5F14555   6.723   1.547   7.075 -0.1474 -0.1403 -1.0274
  134OSM    H5G14556   6.600   1.680   7.064  0.0449  0.0426 -1.4413
  134OSM    C6F14557   6.792   1.732   7.150  0.2620 -0.2090 -0.2984
  134OSM    H6F14558   6.806   1.837   7.113 -1.1595 -0.9983 -3.4641
  134OSM    H6G14559   6.891   1.681   7.152 -0.6989 -2.1175  0.1774
  134OSM    C7F14560   6.738   1.742   7.293  0.4358 -0.4878 -0.6106
  134OSM    H7F14561   6.728   1.642   7.341  0.4845 -0.4410 -0.5023
  134OSM    H7G14562   6.644   1.800   7.282  0.4394 -0.1631  0.8797
  134OSM    C8F14563   6.849   1.816   7.374 -0.4147  0.4258 -1.1623
  134OSM    H8F14564   6.874   1.910   7.321  0.1576  2.0156  1.7107
  134OSM    H8G14565   6.942   1.756   7.364 -1.1902 -0.7062 -1.9024
  134OSM    C9F14566   6.804   1.831   7.517 -0.2900 -0.3651 -0.1291
  134OSM    H9F14567   6.700   1.864   7.530 -0.2244  0.5727 -1.7535
  134OSM   C10F14568   6.884   1.813   7.625  0.3384 -0.0282  0.2011
  134OSM   H10F14569   6.837   1.825   7.724  1.4409  3.9200  0.4383
  134OSM   C11F14570   7.029   1.774   7.635 -0.0612  1.0273 -0.2228
  134OSM   H11F14571   7.077   1.859   7.688  0.3551 -0.4346  1.8387
  134OSM   H11G14572   7.082   1.765   7.537 -1.6390 -0.6847 -0.9678
  134OSM   C12F14573   7.048   1.652   7.726 -0.3074  0.2084 -0.3632
  134OSM   H12F14574   7.158   1.642   7.737 -0.4240 -0.2350  0.4627
  134OSM   H12G14575   7.018   1.553   7.685  0.2181 -0.3028  0.4612
  134OSM   C13F14576   6.996   1.670   7.873 -0.0956  0.3159  0.0077
  134OSM   H13F14577   7.013   1.573   7.925  0.3089  0.2189 -0.2928
  134OSM   H13G14578   6.886   1.673   7.867 -0.1608 -0.6808  0.5249
  134OSM   C14F14579   7.059   1.780   7.951  0.2803  0.1095 -0.2946
  134OSM   H14F14580   7.015   1.882   7.941 -0.0999 -0.0090  0.1162
  134OSM   H14G14581   7.168   1.793   7.935  0.3068 -0.9880 -1.0974
  134OSM   C15F14582   7.027   1.742   8.099  0.1467  0.3070 -0.2047
  134OSM   H15F14583   7.064   1.639   8.121  1.6403  0.7195 -0.6625
  134OSM   H15G14584   6.917   1.735   8.115  0.2879 -0.9971  0.3597
  134OSM   C16F14585   7.081   1.839   8.195 -0.0701 -0.5342 -0.2362
  134OSM   H16F14586   7.028   1.936   8.209  2.1392  0.4648  1.8062
  134OSM   H16G14587   7.190   1.856   8.185  0.3819 -0.9233  2.9866
  134OSM   C17F14588   7.080   1.792   8.342  0.6899 -0.5273 -0.3169
  134OSM   H17F14589   7.136   1.696   8.343  0.8473 -0.4566  2.2235
  134OSM   H17G14590   6.974   1.778   8.375  1.2098  0.1114  1.7308
  134OSM   C18F14591   7.131   1.904   8.436  0.1185 -0.2108  0.5353
  134OSM   H18F14592   7.066   1.993   8.426  0.0314 -0.0267  2.3209
  134OSM   H18G14593   7.236   1.930   8.412 -0.2678 -0.2770 -1.2988
  134OSM   H18H14594   7.126   1.871   8.543 -0.5095 -0.4756  0.4271
  135OSM      N14595   6.644   1.735   6.201 -0.3848 -0.4823  0.6837
  135OSM    C1514596   6.718   1.615   6.166 -0.8466  0.4477 -0.3511
  135OSM   H15A14597   6.660   1.569   6.087 -0.5775  0.0385 -0.3104
  135OSM   H15B14598   6.724   1.548   6.250  3.6107  0.5019 -0.3884
  135OSM   H15C14599   6.820   1.638   6.137 -0.6835  1.7536  1.1434
  135OSM    C1414600   6.620   1.814   6.072  0.0749 -0.4684  0.2075
  135OSM   H14A14601   6.566   1.901   6.105  0.4890  0.4342 -1.3984
  135OSM   H14B14602   6.558   1.763   6.001  0.2806 -3.8100  2.1921
  135OSM   H14C14603   6.711   1.854   6.030 -0.6745  0.3691 -0.6562
  135OSM    C1314604   6.509   1.697   6.248  0.5747  0.3514 -0.1567
  135OSM   H13A14605   6.439   1.655   6.178 -0.1764  1.6544 -0.2165
  135OSM   H13B14606   6.470   1.792   6.281  0.8918  0.1909  0.7075
  135OSM   H13C14607   6.517   1.618   6.322  0.9283 -0.2667 -0.8446
  135OSM    C1214608   6.714   1.809   6.318 -0.0031  0.4960  0.3899
  135OSM   H12A14609   6.810   1.849   6.289  0.2211  0.4657  1.0760
  135OSM   H12B14610   6.741   1.737   6.393 -0.2159 -0.8130 -0.7429
  135OSM    C1114611   6.636   1.923   6.387  0.0831  0.2275 -0.4304
  135OSM   H11A14612   6.699   1.962   6.470 -1.4329  1.7295  0.0584
  135OSM   H11B14613   6.550   1.873   6.437 -0.2220  0.0923 -1.0825
  135OSM      P14614   6.461   2.087   6.290 -0.3316  0.1750  0.1064
  135OSM    O1314615   6.475   2.219   6.222  0.2692  0.2436 -0.2580
  135OSM    O1414616   6.363   1.991   6.238  0.0592  0.1203  0.2139
  135OSM    O1114617   6.423   2.115   6.437 -0.4941 -0.0137  0.3564
  135OSM    O1214618   6.603   2.026   6.302  0.4547  0.0887  0.5128
  135OSM    C1S14619   6.460   2.236   6.510  0.3489 -0.6753 -0.0278
  135OSM    H1S14620   6.392   2.322   6.490 -0.2253 -1.3269 -0.9399
  135OSM    H1T14621   6.559   2.276   6.480 -0.4696  0.8034 -0.9446
  135OSM     NF14622   6.521   2.332   6.734  0.3759 -0.2133 -0.1418
  135OSM    HNF14623   6.611   2.311   6.772  0.0859 -1.2382 -0.0127
  135OSM    C2S14624   6.464   2.219   6.670 -0.7848 -1.0498 -0.1503
  135OSM    H2S14625   6.355   2.216   6.692 -1.2881  2.9281 -1.2722
  135OSM    C3S14626   6.530   2.084   6.704  0.1470  0.4429  0.1884
  135OSM    H3S14627   6.636   2.081   6.672 -0.1495 -0.9902 -0.7409
  135OSM     O314628   6.472   1.967   6.647  0.1804  0.3723  0.4777
  135OSM    HO314629   6.418   2.004   6.577  1.1356  0.3085 -0.3180
  135OSM    C4S14630   6.530   2.070   6.853  0.2568 -0.2806 -0.1651
  135OSM    H4S14631   6.620   2.113   6.898 -0.2131  1.1041 -0.5099
  135OSM    C5S14632   6.438   2.018   6.933  1.2979 -0.2257  0.0736
  135OSM    H5S14633   6.339   1.976   6.908  0.8042 -0.4388  2.1612
  135OSM    C6S14634   6.455   2.012   7.086 -0.0282  0.2969 -0.5447
  135OSM    H6S14635   6.560   2.001   7.119 -0.7621 -1.9598  1.3200
  135OSM    H6T14636   6.407   1.925   7.137  1.2944  0.1908  0.5806
  135OSM    C7S14637   6.398   2.136   7.152 -0.6834 -0.3196 -0.7938
  135OSM    H7S14638   6.288   2.146   7.138 -1.0182 -1.8622  0.3921
  135OSM    H7T14639   6.451   2.221   7.105  1.8396 -1.5556 -0.3711
  135OSM    C8S14640   6.426   2.150   7.302 -0.2733  0.0326 -0.1114
  135OSM    H8S14641   6.474   2.246   7.328 -0.0864  0.3634 -1.6197
  135OSM    H8T14642   6.496   2.067   7.330 -0.3362  0.6096  1.9758
  135OSM    C9S14643   6.308   2.124   7.399 -0.5166 -0.4718  0.1146
  135OSM    H9S14644   6.261   2.024   7.388  1.0084 -1.1880 -0.2893
  135OSM    H9T14645   6.229   2.200   7.386 -0.4192 -0.4880 -0.6160
  135OSM   C10S14646   6.362   2.134   7.541 -0.3919 -0.0494 -0.3162
  135OSM   H10S14647   6.390   2.240   7.560  0.5088  0.0464 -1.9904
  135OSM   H10T14648   6.449   2.070   7.567 -1.2788 -0.0444  3.1573
  135OSM   C11S14649   6.259   2.113   7.648 -0.0930 -0.2464 -0.5478
  135OSM   H11S14650   6.216   2.010   7.643  0.0592 -0.5412  2.3730
  135OSM   H11T14651   6.164   2.170   7.650 -1.0340 -1.7587  1.6116
  135OSM   C12S14652   6.323   2.102   7.790 -0.4324 -0.0055  0.1001
  135OSM   H12S14653   6.371   2.199   7.814  0.0633 -0.3450  0.5004
  135OSM   H12T14654   6.395   2.017   7.784  0.9348  1.0955  0.5151
  135OSM   C13S14655   6.218   2.052   7.894 -0.3541 -1.1052 -0.0983
  135OSM   H13S14656   6.188   1.957   7.844  0.5598 -1.1282 -0.6196
  135OSM   H13T14657   6.127   2.112   7.912  0.8214  0.2929  1.4899
  135OSM   C14S14658   6.274   2.035   8.037  0.8328  0.2418 -0.0982
  135OSM   H14S14659   6.294   2.137   8.074 -1.4794  1.7539 -2.5656
  135OSM   H14T14660   6.367   1.976   8.044  0.5554 -0.1722  0.1591
  135OSM   C15S14661   6.176   1.966   8.135  0.1310  0.3631 -0.5594
  135OSM   H15S14662   6.105   2.041   8.175  0.3709 -1.1723  3.1309
  135OSM   H15T14663   6.225   1.929   8.228 -0.4771  3.4670  1.1131
  135OSM   C16S14664   6.100   1.848   8.081  0.0218 -0.4726 -0.1651
  135OSM   H16S14665   6.163   1.760   8.058 -0.6514 -1.6893  2.2640
  135OSM   H16T14666   6.052   1.884   7.988 -0.3281  0.5253  0.3794
  135OSM   C17S14667   6.003   1.785   8.183 -0.2692 -0.0029 -0.8169
  135OSM   H17S14668   5.969   1.691   8.135  0.1680 -1.9177  2.3516
  135OSM   H17T14669   5.919   1.854   8.208  0.3737 -0.1480  2.1357
  135OSM   C18S14670   6.058   1.741   8.316 -0.0070 -0.2686 -0.0067
  135OSM   H18S14671   6.157   1.691   8.316 -0.5550 -1.7058  3.8457
  135OSM   H18T14672   6.004   1.658   8.366  0.3500 -0.6640 -0.2595
  135OSM   H18U14673   6.058   1.828   8.385 -2.3949  2.4153 -3.0633
  135OSM    C1F14674   6.465   2.455   6.752 -0.3569  0.1493  0.4595
  135OSM     OF14675   6.358   2.480   6.691 -0.3157 -0.1984 -0.3639
  135OSM    C2F14676   6.532   2.564   6.843 -0.5294 -0.2022  0.0111
  135OSM    H2F14677   6.460   2.627   6.899 -0.1230  0.3567 -0.0821
  135OSM    H2G14678   6.576   2.635   6.770 -1.4185  0.6242  0.2725
  135OSM    C3F14679   6.624   2.495   6.943  0.3696 -0.5475 -0.1393
  135OSM    H3F14680   6.703   2.434   6.894  0.2810 -1.6027  0.9737
  135OSM    H3G14681   6.561   2.424   7.002 -1.0883  0.2735 -0.6631
  135OSM    C4F14682   6.686   2.603   7.038  0.1146  0.0369  0.6075
  135OSM    H4F14683   6.596   2.655   7.076 -0.4426  0.0165 -0.6399
  135OSM    H4G14684   6.745   2.676   6.979 -1.0578 -1.2998 -2.3750
  135OSM    C5F14685   6.776   2.555   7.151 -0.0931  0.2226  0.1353
  135OSM    H5F14686   6.785   2.640   7.221 -1.1042 -0.6433  1.3558
  135OSM    H5G14687   6.877   2.526   7.115 -0.3350  0.3297 -0.6578
  135OSM    C6F14688   6.722   2.438   7.234  0.1632  0.2115 -0.0088
  135OSM    H6F14689   6.697   2.364   7.155  2.5352  1.2947 -1.9326
  135OSM    H6G14690   6.635   2.480   7.288  0.0305  1.9573 -1.4759
  135OSM    C7F14691   6.827   2.386   7.329  0.0742  0.1995 -0.0969
  135OSM    H7F14692   6.858   2.460   7.406 -0.1616 -0.3424  0.5356
  135OSM    H7G14693   6.916   2.345   7.277 -1.3097 -3.6985  0.2260
  135OSM    C8F14694   6.764   2.260   7.403 -0.0030 -0.2824  0.0448
  135OSM    H8F14695   6.738   2.184   7.326 -0.3130  0.8894 -1.0398
  135OSM    H8G14696   6.672   2.286   7.460  1.2554 -0.2980  2.1788
  135OSM    C9F14697   6.867   2.204   7.500  0.1175  0.1143  0.5418
  135OSM    H9F14698   6.968   2.192   7.457 -0.0649 -1.2618  0.4765
  135OSM   C10F14699   6.849   2.164   7.627  0.2086 -0.5284  0.4500
  135OSM   H10F14700   6.940   2.119   7.670  0.8593 -0.4951 -0.8673
  135OSM   C11F14701   6.734   2.158   7.723 -0.2730 -0.0698  0.1150
  135OSM   H11F14702   6.701   2.052   7.730  0.2356 -0.3606 -1.6018
  135OSM   H11G14703   6.665   2.234   7.682  1.0881  0.8087 -0.6407
  135OSM   C12F14704   6.754   2.204   7.870 -0.5040 -0.4602 -0.1561
  135OSM   H12F14705   6.651   2.201   7.912 -0.3554  0.5328  0.3217
  135OSM   H12G14706   6.781   2.312   7.870 -0.1429 -0.5272  1.2235
  135OSM   C13F14707   6.850   2.122   7.954  0.1017 -0.2524  0.0856
  135OSM   H13F14708   6.948   2.120   7.904  1.7795 -1.4066  3.1224
  135OSM   H13G14709   6.806   2.019   7.955 -0.6593  0.0684  0.2626
  135OSM   C14F14710   6.874   2.177   8.095  0.2573 -0.3739 -0.1788
  135OSM   H14F14711   6.901   2.284   8.086 -3.4544  0.7265 -0.0893
  135OSM   H14G14712   6.950   2.113   8.144  1.6281  1.5397  0.2898
  135OSM   C15F14713   6.765   2.156   8.201  0.1131  0.6634  0.4711
  135OSM   H15F14714   6.750   2.046   8.203  3.0016  0.1195 -1.2605
  135OSM   H15G14715   6.669   2.196   8.161  1.1912  0.0468 -3.1464
  135OSM   C16F14716   6.791   2.219   8.338  0.0783  0.2692  0.5361
  135OSM   H16F14717   6.778   2.329   8.332  1.9774  0.4491 -3.7171
  135OSM   H16G14718   6.891   2.189   8.376 -0.5415 -0.9552  1.2609
  135OSM   C17F14719   6.688   2.163   8.437  0.2618  0.3745  0.4052
  135OSM   H17F14720   6.688   2.052   8.430 -1.6124  0.4195 -1.1817
  135OSM   H17G14721   6.584   2.191   8.410  0.3415 -1.0043 -1.5328
  135OSM   C18F14722   6.710   2.193   8.585 -0.1274 -0.3839  0.0850
  135OSM   H18F14723   6.808   2.162   8.627 -0.2812 -0.2259  0.5684
  135OSM   H18G14724   6.623   2.146   8.636 -0.5807 -1.2129 -1.3939
  135OSM   H18H14725   6.693   2.303   8.587  0.6501 -0.2696  2.0873
  136OSM      N14726   1.216   5.199   5.905 -0.4576  0.0292  0.5855
  136OSM    C1514727   1.075   5.145   5.879 -0.2096  0.0268  0.7211
  136OSM   H15A14728   1.065   5.108   5.778  0.8782 -0.3980  0.7591
  136OSM   H15B14729   0.999   5.217   5.909  0.0584 -0.5461  2.9472
  136OSM   H15C14730   1.063   5.054   5.937 -1.5023  0.8506  1.8191
  136OSM    C1414731   1.317   5.084   5.883 -0.1193 -1.0279 -0.4131
  136OSM   H14A14732   1.308   5.007   5.958 -2.7114 -0.6534 -0.2668
  136OSM   H14B14733   1.416   5.127   5.879 -0.0780 -1.1403 -0.6807
  136OSM   H14C14734   1.291   5.039   5.788 -2.0227  0.4735 -0.6705
  136OSM    C1314735   1.241   5.317   5.808  0.4231 -0.3011 -0.0962
  136OSM   H13A14736   1.324   5.374   5.849  0.6763  0.1234 -1.1697
  136OSM   H13B14737   1.153   5.380   5.799  1.3134  0.9602 -0.3432
  136OSM   H13C14738   1.268   5.277   5.712 -0.0944 -0.5611 -0.1335
  136OSM    C1214739   1.235   5.251   6.047  0.0226 -0.6490  0.7921
  136OSM   H12A14740   1.323   5.313   6.039  0.8278 -1.9703 -1.4534
  136OSM   H12B14741   1.254   5.161   6.105 -1.3148 -0.8866  0.8986
  136OSM    C1114742   1.131   5.339   6.114 -0.2589 -0.1134 -0.1569
  136OSM   H11A14743   1.154   5.363   6.220  0.0546  0.6635 -0.3908
  136OSM   H11B14744   1.037   5.281   6.118 -1.3123  1.5571  0.4345
  136OSM      P14745   1.193   5.589   6.062  0.4364  0.1909 -0.0349
  136OSM    O1314746   1.332   5.556   6.022  0.6895  0.0436 -0.7809
  136OSM    O1414747   1.126   5.708   6.007 -0.5177  0.2102 -0.7152
  136OSM    O1114748   1.190   5.609   6.219  0.3839 -0.2971  0.4245
  136OSM    O1214749   1.107   5.458   6.039 -0.6906  0.1185  0.2750
  136OSM    C1S14750   1.061   5.633   6.277  0.3897 -0.4759 -0.6850
  136OSM    H1S14751   0.980   5.595   6.210  0.2150  0.2018 -0.8612
  136OSM    H1T14752   1.048   5.742   6.288  2.2370 -0.2106 -0.7790
  136OSM     NF14753   0.906   5.558   6.441 -0.0215 -0.0007 -0.4137
  136OSM    HNF14754   0.870   5.636   6.491 -1.9870 -1.0663 -0.0733
  136OSM    C2S14755   1.045   5.560   6.410  0.4269 -0.6041 -0.6805
  136OSM    H2S14756   1.079   5.454   6.404  0.8796 -0.4151 -1.5847
  136OSM    C3S14757   1.132   5.633   6.514 -0.0427  0.2353  0.6847
  136OSM    H3S14758   1.109   5.742   6.510  0.1670  0.2516 -0.7942
  136OSM     O314759   1.267   5.627   6.481 -0.0400 -0.0013  0.7579
  136OSM    HO314760   1.264   5.574   6.401  0.4568  0.4009  0.4696
  136OSM    C4S14761   1.123   5.576   6.651 -0.2691  0.8487 -0.0552
  136OSM    H4S14762   1.181   5.484   6.671 -1.1751  0.1133 -0.7033
  136OSM    C5S14763   1.060   5.647   6.750 -1.1840 -0.5294 -0.3148
  136OSM    H5S14764   1.022   5.748   6.726 -0.8950 -0.5868 -1.0353
  136OSM    C6S14765   1.038   5.599   6.893 -0.9499 -0.1929  0.2299
  136OSM    H6S14766   0.996   5.497   6.888 -1.2135 -0.0796  0.1215
  136OSM    H6T14767   0.954   5.661   6.929 -0.8312 -0.5626  1.1777
  136OSM    C7S14768   1.152   5.621   6.988 -0.2777  1.1452 -0.7331
  136OSM    H7S14769   1.174   5.728   7.004 -0.3620  1.0315  0.2264
  136OSM    H7T14770   1.246   5.576   6.949 -1.0802 -1.1997 -0.1808
  136OSM    C8S14771   1.114   5.561   7.130  0.1818 -0.3307  0.3078
  136OSM    H8S14772   1.193   5.590   7.203 -0.8834  1.3979  0.8519
  136OSM    H8T14773   1.094   5.451   7.128  0.7420 -0.4624 -2.8246
  136OSM    C9S14774   0.995   5.630   7.196  0.5773  0.8032 -0.2183
  136OSM    H9S14775   0.909   5.621   7.126  0.0668  1.3051  0.3346
  136OSM    H9T14776   1.027   5.734   7.220  0.4737  0.7250  0.2617
  136OSM   C10S14777   0.949   5.554   7.324 -0.0969 -0.5744  0.0319
  136OSM   H10S14778   0.955   5.443   7.319 -1.1324 -0.5921 -1.4442
  136OSM   H10T14779   0.847   5.594   7.343 -1.1326 -2.7598 -0.5372
  136OSM   C11S14780   1.027   5.609   7.448 -0.7531 -0.3584  0.2901
  136OSM   H11S14781   1.000   5.716   7.464 -0.0980 -0.2291  0.5778
  136OSM   H11T14782   1.135   5.608   7.420 -1.0823 -1.5722 -1.0429
  136OSM   C12S14783   1.005   5.524   7.569 -0.1888 -0.1735  0.0020
  136OSM   H12S14784   1.044   5.420   7.562 -0.0034 -0.2583  1.7651
  136OSM   H12T14785   0.897   5.503   7.585 -0.0477 -2.0991 -1.2416
  136OSM   C13S14786   1.071   5.587   7.694  0.0311 -0.2540  0.1649
  136OSM   H13S14787   1.022   5.685   7.710 -0.6585 -0.0165 -2.7802
  136OSM   H13T14788   1.180   5.602   7.677  0.0095  0.6442  0.7244
  136OSM   C14S14789   1.067   5.489   7.810 -0.4026  0.1563  0.1315
  136OSM   H14S14790   1.088   5.383   7.785  0.4564  0.5865 -1.0787
  136OSM   H14T14791   0.961   5.490   7.841  0.0707 -0.3823  1.8984
  136OSM   C15S14792   1.152   5.533   7.931  0.5274 -0.1443 -0.2971
  136OSM   H15S14793   1.124   5.626   7.985  1.5778 -1.0583  1.9890
  136OSM   H15T14794   1.253   5.551   7.888  1.4288 -3.1370  0.3019
  136OSM   C16S14795   1.165   5.425   8.038 -0.2549  0.2432  0.0848
  136OSM   H16S14796   1.241   5.466   8.108 -0.6562  2.6494 -0.7788
  136OSM   H16T14797   1.193   5.332   7.983  1.5530  0.6952  0.1713
  136OSM   C17S14798   1.032   5.413   8.120 -0.1833  0.2250  0.0201
  136OSM   H17S14799   0.962   5.357   8.055  0.5078 -0.0917 -0.4698
  136OSM   H17T14800   0.982   5.511   8.134 -2.8689 -1.3276  2.1518
  136OSM   C18S14801   1.027   5.336   8.254 -0.0356  0.7487  0.1304
  136OSM   H18S14802   1.059   5.401   8.338  1.6414  0.3067 -0.1303
  136OSM   H18T14803   1.083   5.240   8.263  0.5193  1.1416  1.0329
  136OSM   H18U14804   0.918   5.338   8.276 -0.0577  0.0404  0.0959
  136OSM    C1F14805   0.815   5.470   6.392 -0.2294 -0.1161  0.2776
  136OSM     OF14806   0.849   5.358   6.365 -0.0847 -0.1205 -0.1310
  136OSM    C2F14807   0.674   5.515   6.387  0.1808 -0.5290 -0.5695
  136OSM    H2F14808   0.672   5.626   6.393  0.4119 -0.5448 -0.1197
  136OSM    H2G14809   0.643   5.491   6.491 -0.9921  2.1483 -0.2096
  136OSM    C3F14810   0.581   5.439   6.295  0.1471 -0.4241  0.4464
  136OSM    H3F14811   0.601   5.330   6.300 -0.9340 -0.7608 -1.5262
  136OSM    H3G14812   0.585   5.477   6.191 -1.8887  1.9685  1.1291
  136OSM    C4F14813   0.439   5.460   6.355 -0.5976  0.2320 -0.1943
  136OSM    H4F14814   0.368   5.458   6.269 -1.3720 -1.6459  0.4435
  136OSM    H4G14815   0.427   5.555   6.412 -0.6747 -0.4181  0.9203
  136OSM    C5F14816   0.390   5.341   6.444  0.3100  0.2065  0.3581
  136OSM    H5F14817   0.466   5.332   6.525 -0.3066 -2.2318  0.7471
  136OSM    H5G14818   0.381   5.245   6.389  1.6292 -0.0236  0.5003
  136OSM    C6F14819   0.249   5.364   6.489  0.1588 -1.1308 -0.8307
  136OSM    H6F14820   0.192   5.390   6.397 -2.6071  0.0586  1.0767
  136OSM    H6G14821   0.247   5.453   6.556  0.6035 -2.1870  0.6213
  136OSM    C7F14822   0.186   5.232   6.553  0.6255 -0.0417  0.2772
  136OSM    H7F14823   0.216   5.138   6.503  0.4620 -0.7059  1.3990
  136OSM    H7G14824   0.076   5.240   6.558  0.5858 -0.1670 -0.3397
  136OSM    C8F14825   0.249   5.197   6.695 -0.6477  0.0800  0.2575
  136OSM    H8F14826   0.347   5.163   6.656 -1.8949 -1.4694 -1.7777
  136OSM    H8G14827   0.203   5.105   6.737 -1.0816 -1.0713 -2.5188
  136OSM    C9F14828   0.273   5.309   6.797  0.2124  0.5482  0.8974
  136OSM    H9F14829   0.250   5.410   6.760  0.1713 -0.4089 -1.9135
  136OSM   C10F14830   0.291   5.295   6.927  0.0175 -0.1301  0.3223
  136OSM   H10F14831   0.287   5.387   6.987 -1.2864 -0.1462  0.2870
  136OSM   C11F14832   0.290   5.168   7.006 -0.5638  0.0180  0.3175
  136OSM   H11F14833   0.375   5.100   6.981  0.4629  0.8664  1.4236
  136OSM   H11G14834   0.202   5.106   6.981 -0.3785  0.2721 -1.0554
  136OSM   C12F14835   0.277   5.210   7.159  0.4964 -0.0154  0.5669
  136OSM   H12F14836   0.374   5.254   7.188 -0.7670  2.8727  0.7880
  136OSM   H12G14837   0.270   5.106   7.199 -2.0033 -0.2208 -0.2155
  136OSM   C13F14838   0.156   5.293   7.216 -1.1021  0.4748  0.6052
  136OSM   H13F14839   0.062   5.245   7.183  0.6681 -1.0286 -2.7331
  136OSM   H13G14840   0.146   5.387   7.158  0.7433 -0.5965 -1.6183
  136OSM   C14F14841   0.155   5.311   7.365  0.1101  0.6647 -0.2252
  136OSM   H14F14842   0.255   5.324   7.411  1.0075 -0.4737 -1.7558
  136OSM   H14G14843   0.113   5.216   7.405  1.2547  0.7396  1.2393
  136OSM   C15F14844   0.065   5.420   7.428 -0.0648  0.3760  0.4303
  136OSM   H15F14845  -0.032   5.426   7.374  1.3429  2.1678 -2.1182
  136OSM   H15G14846   0.102   5.523   7.410 -0.7572  0.5392 -0.1041
  136OSM   C16F14847   0.040   5.415   7.585  0.4413 -0.4146  0.4713
  136OSM   H16F14848  -0.039   5.490   7.606 -1.2142 -1.9776  0.0855
  136OSM   H16G14849   0.136   5.451   7.626  0.9292  1.0271 -1.7591
  136OSM   C17F14850   0.003   5.275   7.636  0.1356  0.0852 -0.3812
  136OSM   H17F14851   0.089   5.207   7.618 -0.1785 -0.4910  0.2399
  136OSM   H17G14852  -0.076   5.223   7.576  2.0968 -1.0353 -2.1408
  136OSM   C18F14853  -0.039   5.285   7.783 -0.1607  0.1783 -0.5221
  136OSM   H18F14854  -0.065   5.185   7.823 -1.9087  0.5060 -0.7726
  136OSM   H18G14855  -0.117   5.363   7.793 -0.9366 -0.2751 -2.5858
  136OSM   H18H14856   0.053   5.324   7.832 -0.7169  1.9161 -0.7747
  137OSM      N14857   1.134   2.036   6.098  0.5665  0.0531  0.1367
  137OSM    C1514858   1.124   1.997   5.955 -0.4612 -0.3269  0.3141
  137OSM   H15A14859   1.028   1.953   5.929 -0.9645  0.6762  0.4052
  137OSM   H15B14860   1.200   1.925   5.928  0.3306  0.7591 -0.4124
  137OSM   H15C14861   1.166   2.078   5.898 -0.9080 -0.5870 -0.4071
  137OSM    C1414862   1.252   2.128   6.120  0.2014  0.4482  0.0263
  137OSM   H14A14863   1.342   2.080   6.083 -1.0562  0.0857 -2.7897
  137OSM   H14B14864   1.276   2.142   6.225 -0.2718  4.3490 -0.2656
  137OSM   H14C14865   1.237   2.224   6.075  0.4861  1.3047  1.6946
  137OSM    C1314866   1.016   2.125   6.134  0.1471 -0.0680 -0.2479
  137OSM   H13A14867   1.030   2.229   6.110  2.8163 -0.6972 -1.8389
  137OSM   H13B14868   1.013   2.120   6.242 -0.7341 -3.0478 -0.3185
  137OSM   H13C14869   0.932   2.088   6.078  0.1071 -0.3374 -0.0131
  137OSM    C1214870   1.143   1.906   6.179 -0.2925 -0.6772  0.0550
  137OSM   H12A14871   1.216   1.841   6.133  0.1610 -2.2180  2.7013
  137OSM   H12B14872   1.054   1.844   6.174 -1.7011  1.2914 -0.5031
  137OSM    C1114873   1.193   1.913   6.331 -0.2561 -0.1200  0.6440
  137OSM   H11A14874   1.168   1.806   6.350  2.1138 -1.9222 -4.7303
  137OSM   H11B14875   1.117   1.980   6.378 -1.1153 -0.3201 -0.4082
  137OSM      P14876   1.446   1.851   6.371  0.1176 -0.3522 -0.2329
  137OSM    O1314877   1.448   1.766   6.253 -0.4639  0.3178  0.3884
  137OSM    O1414878   1.567   1.927   6.407  0.6668 -0.4417 -0.0078
  137OSM    O1114879   1.394   1.769   6.490  0.6251  0.5883  0.1772
  137OSM    O1214880   1.330   1.955   6.350  0.2898 -0.1473 -1.0699
  137OSM    C1S14881   1.465   1.693   6.584  0.0461 -0.1916  0.1863
  137OSM    H1S14882   1.574   1.709   6.579  0.2904 -2.0590 -1.3084
  137OSM    H1T14883   1.454   1.586   6.556 -2.1228 -0.1369  0.6167
  137OSM     NF14884   1.490   1.645   6.826  0.0743 -0.1269 -0.0342
  137OSM    HNF14885   1.445   1.575   6.881  1.3359 -1.3583 -0.5000
  137OSM    C2S14886   1.403   1.713   6.728 -0.3357 -0.3131 -0.3021
  137OSM    H2S14887   1.403   1.824   6.733  0.4803 -0.3458  0.8010
  137OSM    C3S14888   1.256   1.669   6.748 -0.6025 -0.6922  0.3810
  137OSM    H3S14889   1.250   1.559   6.737 -0.9111 -0.7278  0.8259
  137OSM     O314890   1.161   1.708   6.646 -0.4442 -0.0843  0.3723
  137OSM    HO314891   1.212   1.708   6.564  0.2011  1.0547  0.7497
  137OSM    C4S14892   1.203   1.711   6.881 -0.6444  0.1410 -0.5715
  137OSM    H4S14893   1.213   1.631   6.956 -0.0829 -1.9489 -2.7366
  137OSM    C5S14894   1.150   1.830   6.912 -0.1612 -0.0373  0.0117
  137OSM    H5S14895   1.141   1.900   6.827  0.8882 -2.2273 -2.0064
  137OSM    C6S14896   1.089   1.884   7.045 -0.2188 -0.3018 -0.3762
  137OSM    H6S14897   0.978   1.883   7.036 -0.1563 -0.7070 -1.1513
  137OSM    H6T14898   1.122   1.989   7.060  0.3638 -0.6263  0.7000
  137OSM    C7S14899   1.126   1.800   7.178 -0.1438 -0.0106  0.4558
  137OSM    H7S14900   1.234   1.811   7.198 -0.2679  2.2164  0.1213
  137OSM    H7T14901   1.117   1.689   7.172  2.1198 -0.1887 -0.3055
  137OSM    C8S14902   1.048   1.863   7.295 -0.3536  0.5306  0.1342
  137OSM    H8S14903   0.941   1.864   7.265 -0.2127 -2.0033 -0.7403
  137OSM    H8T14904   1.080   1.968   7.303 -2.0002  1.1419 -0.8020
  137OSM    C9S14905   1.087   1.795   7.431  0.0358 -0.2226  0.2997
  137OSM    H9S14906   1.198   1.784   7.431 -0.2393 -4.5619 -0.0880
  137OSM    H9T14907   1.045   1.693   7.422 -1.1112  0.1447  1.2504
  137OSM   C10S14908   1.029   1.866   7.554  0.2836  0.3156 -0.6421
  137OSM   H10S14909   0.918   1.862   7.551  0.2733 -0.8240  0.3173
  137OSM   H10T14910   1.060   1.973   7.553 -2.4096  1.2098  0.4184
  137OSM   C11S14911   1.075   1.797   7.688  0.6322 -0.0443  0.3431
  137OSM   H11S14912   1.185   1.784   7.696  0.4850 -1.3193  0.5032
  137OSM   H11T14913   1.040   1.693   7.674  1.1194 -0.0889 -0.6224
  137OSM   C12S14914   1.022   1.844   7.823 -0.2221 -0.4556  0.4265
  137OSM   H12S14915   0.972   1.757   7.871  1.3804 -0.0651  2.9792
  137OSM   H12T14916   0.936   1.915   7.815 -0.2176 -0.2345  1.9976
  137OSM   C13S14917   1.131   1.876   7.919 -0.3250 -0.1209  0.1303
  137OSM   H13S14918   1.184   1.972   7.901  1.4121 -0.6818  1.8470
  137OSM   H13T14919   1.216   1.804   7.919  0.6042  0.9121  1.7963
  137OSM   C14S14920   1.081   1.890   8.069 -0.5351  0.0364  0.1469
  137OSM   H14S14921   1.162   1.900   8.144 -0.2256  1.4436 -0.3279
  137OSM   H14T14922   1.030   1.794   8.090 -2.0933  0.6691 -0.6018
  137OSM   C15S14923   0.981   2.001   8.095  0.4568  0.3487 -0.4495
  137OSM   H15S14924   0.894   1.989   8.027 -0.1267 -1.7564  0.5575
  137OSM   H15T14925   1.029   2.093   8.056  1.5249  0.9952  2.1922
  137OSM   C16S14926   0.943   2.028   8.249 -0.9743 -0.1717 -0.1706
  137OSM   H16S14927   1.046   2.022   8.292 -1.4617  1.0887  1.2679
  137OSM   H16T14928   0.888   1.944   8.298 -0.8752 -0.7512 -1.0363
  137OSM   C17S14929   0.897   2.169   8.280 -0.2824  0.0588  0.0196
  137OSM   H17S14930   0.792   2.177   8.246  0.3587  0.4431 -2.0037
  137OSM   H17T14931   0.951   2.243   8.217  1.3659  0.7082  2.0543
  137OSM   C18S14932   0.900   2.206   8.428  0.2330  0.4177  0.3569
  137OSM   H18S14933   0.996   2.204   8.484 -0.0914  1.5877  0.9899
  137OSM   H18T14934   0.821   2.147   8.480 -1.8242  1.1466 -1.7701
  137OSM   H18U14935   0.874   2.313   8.441  1.4233  0.7923 -0.2366
  137OSM    C1F14936   1.601   1.702   6.857 -0.0473 -0.0918  0.2105
  137OSM     OF14937   1.648   1.805   6.804 -0.2943  0.7073  0.3653
  137OSM    C2F14938   1.663   1.630   6.972 -0.7723 -0.2325 -0.6626
  137OSM    H2F14939   1.680   1.526   6.936  1.1454 -0.0189 -0.4880
  137OSM    H2G14940   1.611   1.619   7.069  0.5262  0.0678  0.0923
  137OSM    C3F14941   1.804   1.695   7.001 -0.6671 -0.3356 -0.1848
  137OSM    H3F14942   1.835   1.779   6.935  0.0763  1.1116  1.9263
  137OSM    H3G14943   1.880   1.617   6.976 -2.3062 -1.9270 -0.3631
  137OSM    C4F14944   1.819   1.744   7.147  0.0263 -0.2274 -0.0024
  137OSM    H4F14945   1.732   1.810   7.169  1.3700  2.1222 -1.3793
  137OSM    H4G14946   1.913   1.803   7.154 -0.5275  0.7871 -0.8665
  137OSM    C5F14947   1.824   1.619   7.237 -1.0068 -0.7696  1.1019
  137OSM    H5F14948   1.910   1.555   7.207  0.8505  1.7587  0.6268
  137OSM    H5G14949   1.737   1.557   7.209  0.1497 -1.4445 -1.3194
  137OSM    C6F14950   1.827   1.659   7.390  1.0769  0.9518  0.2217
  137OSM    H6F14951   1.734   1.716   7.406  1.0047  0.1836  2.9227
  137OSM    H6G14952   1.908   1.730   7.414 -0.3162  2.9256 -0.6252
  137OSM    C7F14953   1.824   1.539   7.482 -0.6345  0.6108  0.2840
  137OSM    H7F14954   1.922   1.487   7.477 -0.9914  0.0451 -2.7324
  137OSM    H7G14955   1.744   1.467   7.453 -1.1803  0.7404  1.4037
  137OSM    C8F14956   1.810   1.573   7.637 -0.0647  1.1816 -0.7919
  137OSM    H8F14957   1.715   1.628   7.654 -0.4349  0.1030  0.7888
  137OSM    H8G14958   1.898   1.639   7.654 -0.1151  0.5246  2.6947
  137OSM    C9F14959   1.822   1.450   7.730  0.0531 -0.3373  0.0050
  137OSM    H9F14960   1.794   1.354   7.684  0.6231 -0.5036  0.0010
  137OSM   C10F14961   1.838   1.460   7.861 -0.0816 -0.1621 -0.0729
  137OSM   H10F14962   1.842   1.368   7.920  1.4222  0.4352  0.8168
  137OSM   C11F14963   1.851   1.589   7.947 -0.5306  0.6526 -0.0814
  137OSM   H11F14964   1.867   1.682   7.889 -1.3826  1.4514  0.9202
  137OSM   H11G14965   1.946   1.583   8.004 -0.6682 -0.7342  0.0498
  137OSM   C12F14966   1.727   1.609   8.024 -0.9485 -0.8119  0.1930
  137OSM   H12F14967   1.703   1.525   8.092 -2.3508 -0.3030  0.3512
  137OSM   H12G14968   1.632   1.613   7.967  0.0398 -0.4100 -1.4933
  137OSM   C13F14969   1.744   1.739   8.108 -0.0169 -0.5358 -0.2750
  137OSM   H13F14970   1.766   1.826   8.043  1.8323 -1.7492 -1.3561
  137OSM   H13G14971   1.832   1.743   8.175 -0.9752  2.6495  0.9948
  137OSM   C14F14972   1.627   1.772   8.207  0.1168  0.0006 -0.2194
  137OSM   H14F14973   1.531   1.785   8.152 -1.0760  0.7417  1.9261
  137OSM   H14G14974   1.638   1.869   8.259 -1.9674  0.2899 -0.2197
  137OSM   C15F14975   1.596   1.653   8.305 -0.2463  0.1922 -0.3455
  137OSM   H15F14976   1.691   1.603   8.334 -0.7806 -0.5907  0.1019
  137OSM   H15G14977   1.545   1.567   8.256 -0.3033 -0.9135  1.5593
  137OSM   C16F14978   1.502   1.697   8.417  0.0650  0.1841  0.4401
  137OSM   H16F14979   1.539   1.791   8.463  0.8388 -0.6547  1.5932
  137OSM   H16G14980   1.511   1.628   8.504  0.6098  0.4351  0.5891
  137OSM   C17F14981   1.353   1.701   8.377  0.0643  0.3519  0.0284
  137OSM   H17F14982   1.315   1.598   8.361  2.1763 -0.2348 -1.6417
  137OSM   H17G14983   1.344   1.752   8.279 -2.3097 -0.4032 -0.2184
  137OSM   C18F14984   1.271   1.771   8.482 -0.0597 -0.3001  0.3083
  137OSM   H18F14985   1.299   1.878   8.478 -0.0938 -0.2989  0.0254
  137OSM   H18G14986   1.294   1.732   8.583  3.2894 -0.4898 -0.3993
  137OSM   H18H14987   1.164   1.774   8.454  0.6607 -1.8342 -3.2320
  138OSM      N14988   4.666   5.975   6.002  0.7794 -0.5004  0.3675
  138OSM    C1514989   4.719   5.986   5.856 -0.0960 -0.0839  0.0235
  138OSM   H15A14990   4.826   5.975   5.862 -0.1726 -2.6244 -1.6521
  138OSM   H15B14991   4.688   6.077   5.807  0.6650 -0.3322 -0.9508
  138OSM   H15C14992   4.688   5.902   5.795 -2.3979  2.0303 -1.9257
  138OSM    C1414993   4.519   5.974   5.989 -0.2632  0.1193  0.6299
  138OSM   H14A14994   4.493   5.885   5.933 -0.8289  0.3587  0.5095
  138OSM   H14B14995   4.482   6.063   5.940 -1.9994 -0.1352  1.4152
  138OSM   H14C14996   4.475   5.973   6.087 -1.3472 -0.1107  0.1592
  138OSM    C1314997   4.717   5.852   6.061 -0.2641  0.1240 -0.3216
  138OSM   H13A14998   4.668   5.824   6.152 -0.6072  2.4110  0.2474
  138OSM   H13B14999   4.824   5.862   6.073 -0.3550  2.3772 -0.8712
  138OSM   H13C15000   4.709   5.766   5.995  1.4719 -1.1445  1.0320
  138OSM    C1215001   4.714   6.091   6.077 -0.2786  0.1645  0.2493
  138OSM   H12A15002   4.671   6.181   6.036  2.3051  1.1817 -0.4621
  138OSM   H12B15003   4.820   6.107   6.061 -0.4720  0.3488 -0.8827
  138OSM    C1115004   4.687   6.101   6.231 -0.2884  0.1933 -0.4397
  138OSM   H11A15005   4.758   6.178   6.270  0.0041 -1.0002  1.4872
  138OSM   H11B15006   4.704   6.004   6.282 -1.7435  0.0308 -0.2172
  138OSM      P15007   4.515   6.295   6.248 -0.2918 -0.1468 -0.2465
  138OSM    O1315008   4.575   6.358   6.129  0.6608  0.3357  0.4505
  138OSM    O1415009   4.375   6.319   6.279 -0.2941 -0.3845  0.2708
  138OSM    O1115010   4.603   6.351   6.376 -0.2975  0.4277  0.8628
  138OSM    O1215011   4.551   6.137   6.248 -0.7143 -0.4632 -0.2964
  138OSM    C1S15012   4.592   6.276   6.491  0.5976  0.3117  0.0861
  138OSM    H1S15013   4.669   6.196   6.486 -0.6445 -0.8579 -1.2475
  138OSM    H1T15014   4.493   6.230   6.512  1.1545 -1.2062 -0.5027
  138OSM     NF15015   4.607   6.293   6.734 -0.8368 -0.6758 -0.3795
  138OSM    HNF15016   4.524   6.303   6.789 -1.1036  1.7420 -1.1054
  138OSM    C2S15017   4.616   6.371   6.614  0.0231  0.2409  0.1496
  138OSM    H2S15018   4.718   6.413   6.606  1.4183 -2.8566  0.0550
  138OSM    C3S15019   4.522   6.498   6.606  0.2112  0.1187  0.1454
  138OSM    H3S15020   4.415   6.472   6.623  0.2771 -0.0631  0.2980
  138OSM     O315021   4.520   6.563   6.479  0.6544  0.4472  0.3679
  138OSM    HO315022   4.544   6.496   6.414  0.7800  1.5388 -0.7316
  138OSM    C4S15023   4.558   6.595   6.715  0.0280  0.6739  0.3628
  138OSM    H4S15024   4.654   6.564   6.760  0.3068 -2.0783 -1.8670
  138OSM    C5S15025   4.471   6.678   6.775  0.5879 -0.2586  0.0056
  138OSM    H5S15026   4.370   6.700   6.735 -1.1852  0.3683  4.2587
  138OSM    C6S15027   4.504   6.759   6.894  0.2496  0.0305  0.1833
  138OSM    H6S15028   4.492   6.863   6.857  1.0544 -0.5812 -1.9587
  138OSM    H6T15029   4.611   6.759   6.924  0.3194  0.0094 -0.0623
  138OSM    C7S15030   4.409   6.714   7.015 -0.7840  1.3061 -0.2856
  138OSM    H7S15031   4.439   6.610   7.040  0.2420  1.7527  0.3977
  138OSM    H7T15032   4.301   6.717   6.987 -1.0847 -1.3035  0.3137
  138OSM    C8S15033   4.434   6.808   7.132 -0.4197  0.1124  0.4126
  138OSM    H8S15034   4.413   6.910   7.092 -2.6704 -0.9028 -1.2017
  138OSM    H8T15035   4.540   6.815   7.164 -0.5198  0.2162  0.7197
  138OSM    C9S15036   4.353   6.779   7.260 -0.0219 -0.1531 -0.2653
  138OSM    H9S15037   4.370   6.671   7.279  3.6810  0.5308  1.2526
  138OSM    H9T15038   4.242   6.791   7.254 -0.3254 -1.5430  1.7487
  138OSM   C10S15039   4.402   6.857   7.385  0.3501  0.0501 -0.6675
  138OSM   H10S15040   4.375   6.962   7.363 -1.7572  0.0589  1.5307
  138OSM   H10T15041   4.512   6.862   7.398  0.1963  0.0909  0.7726
  138OSM   C11S15042   4.330   6.797   7.507  0.1104  0.2873 -0.7934
  138OSM   H11S15043   4.280   6.700   7.491  2.7098 -1.0839 -1.1017
  138OSM   H11T15044   4.257   6.872   7.543 -1.0116 -0.8009 -0.7472
  138OSM   C12S15045   4.434   6.775   7.621  0.0630  0.0377 -0.1387
  138OSM   H12S15046   4.463   6.880   7.645 -0.7689  0.3140 -0.2958
  138OSM   H12T15047   4.516   6.710   7.582  0.7706  0.1183  1.1479
  138OSM   C13S15048   4.373   6.698   7.745 -0.1747 -0.0633 -0.0284
  138OSM   H13S15049   4.425   6.605   7.773 -0.5054 -0.6571 -1.3188
  138OSM   H13T15050   4.275   6.659   7.710 -0.5450  1.0491 -0.2908
  138OSM   C14S15051   4.342   6.784   7.870  0.2117 -0.0825  0.1273
  138OSM   H14S15052   4.265   6.726   7.924 -3.0282 -0.1678 -4.0038
  138OSM   H14T15053   4.294   6.877   7.832 -0.6092 -1.1449 -1.5787
  138OSM   C15S15054   4.461   6.843   7.951 -0.1601  0.4340 -0.1069
  138OSM   H15S15055   4.503   6.924   7.887  1.9373 -1.0561 -0.7320
  138OSM   H15T15056   4.538   6.769   7.981 -2.4755 -1.3660  1.8204
  138OSM   C16S15057   4.410   6.900   8.089 -0.2592  0.1676  0.5858
  138OSM   H16S15058   4.497   6.907   8.158  1.6543  0.2656 -1.6959
  138OSM   H16T15059   4.345   6.822   8.134 -0.0709 -0.2057  0.2198
  138OSM   C17S15060   4.346   7.034   8.067 -0.7034  0.2525 -0.2594
  138OSM   H17S15061   4.253   7.026   8.007 -0.3729 -2.1939 -0.5218
  138OSM   H17T15062   4.412   7.086   7.993 -0.5908 -0.8696 -0.9682
  138OSM   C18S15063   4.333   7.122   8.190 -0.1564  0.0645 -0.8349
  138OSM   H18S15064   4.275   7.209   8.152 -0.0841 -0.2257 -1.6202
  138OSM   H18T15065   4.427   7.158   8.237 -0.6020 -0.2254  0.3047
  138OSM   H18U15066   4.271   7.078   8.271 -1.8272  4.6854  0.7377
  138OSM    C1F15067   4.701   6.201   6.777 -0.1119 -0.2454 -0.6404
  138OSM     OF15068   4.795   6.169   6.708  0.5911  0.1483  0.3874
  138OSM    C2F15069   4.685   6.141   6.915  0.3065  0.2480 -0.1640
  138OSM    H2F15070   4.586   6.171   6.954  0.2599 -0.6738  0.4341
  138OSM    H2G15071   4.772   6.186   6.968 -0.5446  2.3306 -0.4461
  138OSM    C3F15072   4.695   5.986   6.928 -0.0459 -0.2907 -0.2865
  138OSM    H3F15073   4.797   5.949   6.903  1.0392 -0.8234  4.1298
  138OSM    H3G15074   4.622   5.943   6.857 -1.3598 -0.4712  1.1300
  138OSM    C4F15075   4.679   5.936   7.076  0.0317 -0.0213  0.3590
  138OSM    H4F15076   4.652   5.829   7.067 -1.6441  0.4086 -0.0215
  138OSM    H4G15077   4.592   5.989   7.120  0.8059  0.1958  1.7052
  138OSM    C5F15078   4.807   5.953   7.169  0.1370  0.1535 -0.0280
  138OSM    H5F15079   4.825   6.060   7.146 -0.0436  0.0024 -0.8977
  138OSM    H5G15080   4.894   5.897   7.128  0.8182 -0.0355  1.5884
  138OSM    C6F15081   4.778   5.913   7.315 -0.1303 -0.4087  0.1063
  138OSM    H6F15082   4.685   5.964   7.348  0.3883  1.0445 -0.6174
  138OSM    H6G15083   4.864   5.946   7.378  1.1730 -0.3012 -1.6545
  138OSM    C7F15084   4.768   5.768   7.329  0.3222 -0.7440  0.1069
  138OSM    H7F15085   4.860   5.732   7.278  1.1457  3.0991 -1.4642
  138OSM    H7G15086   4.681   5.724   7.277 -0.1421 -0.0200  0.2635
  138OSM    C8F15087   4.752   5.713   7.470 -0.0418  0.2352 -0.2119
  138OSM    H8F15088   4.707   5.613   7.455 -1.0287  1.0432 -3.4608
  138OSM    H8G15089   4.680   5.776   7.526 -1.1318 -1.4151  0.3116
  138OSM    C9F15090   4.884   5.701   7.543  0.6221  0.4343 -0.0060
  138OSM    H9F15091   4.909   5.783   7.612 -0.1473  0.0209  0.7833
  138OSM   C10F15092   4.966   5.593   7.540 -0.4010 -0.0524  0.2039
  138OSM   H10F15093   5.047   5.596   7.615  0.6230  2.6187 -0.8799
  138OSM   C11F15094   4.934   5.467   7.464 -0.4005  0.3063 -0.3710
  138OSM   H11F15095   5.005   5.465   7.379  1.1864 -1.1871  0.9079
  138OSM   H11G15096   4.832   5.470   7.419 -0.6410 -2.1811 -0.1389
  138OSM   C12F15097   4.938   5.333   7.539  0.0316  0.0044 -0.9034
  138OSM   H12F15098   5.043   5.344   7.572 -0.1352  1.8327 -0.8598
  138OSM   H12G15099   4.925   5.249   7.467  2.3812  1.0736 -2.7041
  138OSM   C13F15100   4.828   5.312   7.649 -0.3739 -0.1494 -0.4403
  138OSM   H13F15101   4.838   5.204   7.672 -1.3281 -0.0899  0.3366
  138OSM   H13G15102   4.726   5.325   7.608 -1.1542 -1.1588  1.1042
  138OSM   C14F15103   4.851   5.376   7.788  0.3507  0.4534 -0.5193
  138OSM   H14F15104   4.846   5.485   7.770 -0.2560  0.7803  1.3923
  138OSM   H14G15105   4.956   5.357   7.819  0.3488  1.2286 -0.0231
  138OSM   C15F15106   4.742   5.337   7.890 -0.8132 -0.1653 -0.0961
  138OSM   H15F15107   4.743   5.229   7.917 -1.8949 -0.8840 -2.6230
  138OSM   H15G15108   4.646   5.360   7.840 -0.1041 -0.3992 -1.6140
  138OSM   C16F15109   4.753   5.425   8.011  0.6373  0.1989  0.2819
  138OSM   H16F15110   4.746   5.530   7.974  0.9572 -0.7501 -2.7402
  138OSM   H16G15111   4.857   5.420   8.050  1.0427 -0.6374 -0.8674
  138OSM   C17F15112   4.670   5.378   8.133  0.1181 -0.2939 -0.4577
  138OSM   H17F15113   4.705   5.452   8.209  1.6919  0.0402 -1.4525
  138OSM   H17G15114   4.710   5.277   8.157  2.1961  0.0617 -2.0874
  138OSM   C18F15115   4.519   5.370   8.102  0.1072 -0.8609 -0.3345
  138OSM   H18F15116   4.459   5.335   8.189  2.5119 -1.2360  1.2891
  138OSM   H18G15117   4.503   5.301   8.016 -1.5119 -0.5793 -0.2837
  138OSM   H18H15118   4.486   5.470   8.068  1.7109  0.0913  0.7850
  139OSM      N15119   3.078   5.035   6.004  0.6324 -0.6029  0.6345
  139OSM    C1515120   3.174   5.112   6.090  0.9634 -0.3521  0.0997
  139OSM   H15A15121   3.242   5.046   6.141  0.5712  0.8489  2.3147
  139OSM   H15B15122   3.122   5.178   6.158 -0.2710 -2.2275  1.0699
  139OSM   H15C15123   3.235   5.167   6.020 -2.0571  2.1967 -0.7960
  139OSM    C1415124   3.008   5.125   5.901  0.6424  0.1823  0.1330
  139OSM   H14A15125   2.949   5.062   5.836 -0.9018  1.9550 -0.2542
  139OSM   H14B15126   3.084   5.182   5.850 -0.8327  1.5391 -0.6380
  139OSM   H14C15127   2.948   5.197   5.955  2.8555  2.3673 -0.1512
  139OSM    C1315128   3.163   4.948   5.916 -0.2346 -0.1682 -0.4463
  139OSM   H13A15129   3.096   4.881   5.865  0.0357 -0.4334 -0.4616
  139OSM   H13B15130   3.220   4.877   5.975  1.6599  1.1028 -0.6777
  139OSM   H13C15131   3.229   5.000   5.849  0.3832  0.9531  0.9879
  139OSM    C1215132   2.976   4.972   6.091 -0.2025 -0.1179  0.1978
  139OSM   H12A15133   2.903   5.043   6.126 -0.2333 -0.4259  0.7669
  139OSM   H12B15134   3.031   4.945   6.181  0.0172 -1.2087 -0.2509
  139OSM    C1115135   2.892   4.852   6.038  0.1756 -1.0165  0.1030
  139OSM   H11A15136   2.831   4.816   6.124 -0.6963  0.1146 -0.0268
  139OSM   H11B15137   2.956   4.763   6.021  0.9289 -0.3539 -0.6547
  139OSM      P15138   2.683   4.969   5.940 -0.1914 -0.1259 -0.2822
  139OSM    O1315139   2.709   5.094   5.870 -0.3274 -0.7182  0.4473
  139OSM    O1415140   2.569   4.882   5.898  0.3114 -0.4136  0.1580
  139OSM    O1115141   2.669   5.007   6.097 -0.3900  0.2132 -0.4684
  139OSM    O1215142   2.809   4.881   5.925  0.2674 -0.1060  0.6154
  139OSM    C1S15143   2.590   4.930   6.186  0.0096 -0.0524 -0.1522
  139OSM    H1S15144   2.621   4.824   6.178  1.3636 -0.1596  4.0553
  139OSM    H1T15145   2.482   4.957   6.181  0.3230  1.7930  1.6433
  139OSM     NF15146   2.580   4.850   6.417 -0.1131  0.2813  0.2642
  139OSM    HNF15147   2.489   4.859   6.457 -0.5016  1.2500 -0.7874
  139OSM    C2S15148   2.635   4.958   6.336  0.3422 -0.3087  0.2882
  139OSM    H2S15149   2.745   4.952   6.343  0.4585  0.9690 -0.1997
  139OSM    C3S15150   2.584   5.102   6.379 -0.1071 -0.1795  0.0594
  139OSM    H3S15151   2.475   5.104   6.399 -0.1594  2.1872 -0.2204
  139OSM     O315152   2.604   5.203   6.283  0.0893  0.4603 -0.0963
  139OSM    HO315153   2.635   5.157   6.205  1.8233  0.7221  0.3871
  139OSM    C4S15154   2.637   5.127   6.515  1.0838 -0.6537  0.3674
  139OSM    H4S15155   2.595   5.052   6.585 -2.6401 -1.4953 -2.4566
  139OSM    C5S15156   2.733   5.205   6.562  0.2104 -0.6432  0.4128
  139OSM    H5S15157   2.786   5.272   6.492 -0.5476  1.6887  1.9447
  139OSM    C6S15158   2.772   5.204   6.708 -0.7539 -0.2840 -0.1285
  139OSM    H6S15159   2.878   5.236   6.715 -0.4051 -0.7603 -2.4060
  139OSM    H6T15160   2.758   5.109   6.764  0.5038 -1.2950 -1.4526
  139OSM    C7S15161   2.706   5.325   6.783 -0.4164 -0.5440 -0.6169
  139OSM    H7S15162   2.597   5.335   6.768 -0.2524  2.1629 -0.6345
  139OSM    H7T15163   2.755   5.421   6.752  0.7106 -0.9109 -0.0301
  139OSM    C8S15164   2.727   5.327   6.939 -0.6537 -0.2983  0.2363
  139OSM    H8S15165   2.837   5.334   6.944 -0.4432 -2.8070  0.5892
  139OSM    H8T15166   2.691   5.237   6.993 -1.1616  1.4086  2.9608
  139OSM    C9S15167   2.671   5.445   7.014  0.2521 -0.1691  0.4983
  139OSM    H9S15168   2.561   5.445   6.994  0.6300  0.3800 -1.9210
  139OSM    H9T15169   2.713   5.543   6.983  0.7572  0.0246  1.7282
  139OSM   C10S15170   2.685   5.444   7.171 -0.3989 -0.1093  0.2982
  139OSM   H10S15171   2.789   5.467   7.205 -0.2679  0.9622 -0.7841
  139OSM   H10T15172   2.649   5.348   7.214 -0.5333 -0.3844 -0.4232
  139OSM   C11S15173   2.589   5.551   7.230  0.4506  0.0781  0.2783
  139OSM   H11S15174   2.486   5.525   7.199  0.6043  0.0516 -0.2164
  139OSM   H11T15175   2.613   5.647   7.179  2.6367 -0.3523  0.4158
  139OSM   C12S15176   2.589   5.580   7.384 -0.3830  0.5278 -0.0002
  139OSM   H12S15177   2.496   5.638   7.398 -1.8968 -1.1744 -2.3004
  139OSM   H12T15178   2.677   5.646   7.402  1.0242 -1.3771  0.4869
  139OSM   C13S15179   2.587   5.443   7.461 -0.5449  0.3415 -0.2792
  139OSM   H13S15180   2.681   5.386   7.445 -2.3934 -2.8948 -0.5095
  139OSM   H13T15181   2.498   5.388   7.425 -0.0007 -1.0918  0.4592
  139OSM   C14S15182   2.567   5.457   7.615 -0.3770  0.3163 -0.3937
  139OSM   H14S15183   2.470   5.510   7.623 -0.6498  0.2581 -2.6672
  139OSM   H14T15184   2.646   5.515   7.666 -1.9863  0.7706  1.7260
  139OSM   C15S15185   2.540   5.326   7.687 -0.6423  0.0390  0.0118
  139OSM   H15S15186   2.625   5.257   7.670 -0.0196  0.7539  0.1762
  139OSM   H15T15187   2.452   5.278   7.640 -2.3412  2.5273  0.4641
  139OSM   C16S15188   2.494   5.348   7.836 -0.2839 -0.2607  0.2531
  139OSM   H16S15189   2.384   5.363   7.835 -0.0291  1.9457  0.8398
  139OSM   H16T15190   2.561   5.428   7.874  1.3373  0.6452 -3.8823
  139OSM   C17S15191   2.545   5.229   7.917  0.4685 -0.0503  0.8014
  139OSM   H17S15192   2.652   5.208   7.899  0.8403  1.1463  1.4699
  139OSM   H17T15193   2.495   5.137   7.881  2.2188 -0.4814 -0.6452
  139OSM   C18S15194   2.522   5.253   8.065  1.2913 -0.7256 -0.3616
  139OSM   H18S15195   2.577   5.342   8.102  1.9428 -1.3755  0.2568
  139OSM   H18T15196   2.558   5.170   8.129  1.2438  0.4074  1.1776
  139OSM   H18U15197   2.416   5.286   8.074  2.2880  3.3182 -1.2716
  139OSM    C1F15198   2.620   4.722   6.414  0.3064  0.4672  0.1300
  139OSM     OF15199   2.714   4.678   6.343 -0.1336 -0.4028 -0.2363
  139OSM    C2F15200   2.547   4.628   6.497  0.3278  0.5112  0.1414
  139OSM    H2F15201   2.486   4.553   6.442 -1.6995  1.5141  0.9479
  139OSM    H2G15202   2.477   4.683   6.563  0.1505 -0.9264  1.1815
  139OSM    C3F15203   2.639   4.557   6.597  0.2316  0.6823 -0.5222
  139OSM    H3F15204   2.701   4.632   6.651  0.9781  1.1139 -1.9388
  139OSM    H3G15205   2.720   4.512   6.536  1.2750  2.0708 -0.2119
  139OSM    C4F15206   2.561   4.448   6.677  0.2236 -0.1920  0.5080
  139OSM    H4F15207   2.528   4.363   6.614 -0.6849  0.7807 -0.3666
  139OSM    H4G15208   2.475   4.486   6.738  1.9703 -0.1801  3.1188
  139OSM    C5F15209   2.641   4.393   6.790 -0.0056  0.3168  1.0587
  139OSM    H5F15210   2.669   4.481   6.854  2.8140  0.6525 -0.4659
  139OSM    H5G15211   2.731   4.356   6.736 -0.1232  0.5414  0.7057
  139OSM    C6F15212   2.572   4.297   6.873  1.1599  0.1771  0.3758
  139OSM    H6F15213   2.599   4.199   6.828  1.9205  0.5149  0.0806
  139OSM    H6G15214   2.461   4.305   6.871  1.0388 -1.0209  1.0845
  139OSM    C7F15215   2.623   4.300   7.021 -0.0463  0.3960 -0.0422
  139OSM    H7F15216   2.610   4.402   7.063 -4.8240 -0.8646  2.2275
  139OSM    H7G15217   2.733   4.282   7.020 -0.0689  0.2411  0.1932
  139OSM    C8F15218   2.540   4.216   7.116  0.4900 -0.1784 -0.8930
  139OSM    H8F15219   2.539   4.120   7.060  0.8120 -0.8416  0.1927
  139OSM    H8G15220   2.435   4.249   7.133  0.8206  0.1130  0.7931
  139OSM    C9F15221   2.614   4.204   7.249  0.0146  0.0363  0.4697
  139OSM    H9F15222   2.713   4.158   7.237 -0.7200 -1.4235 -0.2572
  139OSM   C10F15223   2.574   4.246   7.370  0.1067 -1.0708  0.2988
  139OSM   H10F15224   2.639   4.226   7.456 -1.0064 -0.9169  1.1865
  139OSM   C11F15225   2.444   4.316   7.397  0.0150  0.3014  0.0082
  139OSM   H11F15226   2.370   4.299   7.315 -0.4237 -0.2137  0.4996
  139OSM   H11G15227   2.458   4.424   7.419 -0.5408  0.0708  1.6671
  139OSM   C12F15228   2.379   4.257   7.528 -0.5944  0.5839  0.2409
  139OSM   H12F15229   2.401   4.148   7.528  0.2009  0.7388  0.2469
  139OSM   H12G15230   2.270   4.274   7.539 -0.5435  0.0908  1.5975
  139OSM   C13F15231   2.445   4.319   7.649 -0.4500 -0.3186 -0.3083
  139OSM   H13F15232   2.459   4.428   7.634  0.1181 -0.3815 -0.2596
  139OSM   H13G15233   2.551   4.285   7.648 -0.7342 -1.9603  3.8841
  139OSM   C14F15234   2.373   4.293   7.784 -0.5741  0.8609  0.4232
  139OSM   H14F15235   2.381   4.186   7.814 -3.0219  0.8025  1.0540
  139OSM   H14G15236   2.266   4.324   7.785 -0.8665 -0.1075  0.6745
  139OSM   C15F15237   2.442   4.367   7.907 -0.2993  0.1773 -0.6948
  139OSM   H15F15238   2.444   4.475   7.881  4.4471  0.6791  0.8548
  139OSM   H15G15239   2.548   4.337   7.922  0.4097  2.1626 -1.3594
  139OSM   C16F15240   2.355   4.335   8.027 -0.0941 -0.7342 -0.3888
  139OSM   H16F15241   2.345   4.225   8.037  1.1366 -0.9506 -1.3711
  139OSM   H16G15242   2.258   4.389   8.023  0.7638  0.7913 -1.5357
  139OSM   C17F15243   2.423   4.392   8.151  0.6855  1.0398  0.0587
  139OSM   H17F15244   2.343   4.406   8.227 -1.2191 -2.8326 -0.9871
  139OSM   H17G15245   2.451   4.497   8.124  0.1498  0.5506 -2.7177
  139OSM   C18F15246   2.540   4.304   8.194 -0.0681 -0.4516  0.8044
  139OSM   H18F15247   2.633   4.312   8.134 -0.3062 -1.2985  0.3096
  139OSM   H18G15248   2.517   4.196   8.188  1.6150 -0.7561 -2.0532
  139OSM   H18H15249   2.565   4.337   8.297 -1.6095 -0.9798  1.3835
  140OSM      N15250   2.995   1.615   5.918  0.2543  1.1170 -0.4250
  140OSM    C1515251   2.988   1.640   5.767 -0.7644  0.4714 -0.6115
  140OSM   H15A15252   2.990   1.541   5.724 -0.1134  0.1768  0.0781
  140OSM   H15B15253   3.074   1.697   5.734 -0.9642  0.1953 -1.6632
  140OSM   H15C15254   2.902   1.699   5.739 -0.1636  1.7506  0.1842
  140OSM    C1415255   3.094   1.502   5.942 -0.6618 -0.8255  0.4257
  140OSM   H14A15256   3.187   1.551   5.916 -0.7008  0.2910  2.2365
  140OSM   H14B15257   3.079   1.419   5.875  0.4066 -0.9092  0.2743
  140OSM   H14C15258   3.103   1.488   6.048 -0.5180 -0.2854  0.4891
  140OSM    C1315259   3.046   1.737   5.989  0.0312  0.0924  0.8714
  140OSM   H13A15260   3.140   1.778   5.954  0.0283 -1.0655 -0.5963
  140OSM   H13B15261   3.050   1.716   6.095 -0.1531 -0.4472  0.7779
  140OSM   H13C15262   2.971   1.814   5.979 -0.7633 -0.4625  2.1603
  140OSM    C1215263   2.858   1.577   5.966 -0.4593 -0.1768  0.1196
  140OSM   H12A15264   2.809   1.509   5.898 -1.2985 -1.1444  1.6468
  140OSM   H12B15265   2.791   1.661   5.954  0.0208 -0.0496 -2.1437
  140OSM    C1115266   2.846   1.534   6.113  0.0455  0.4143  0.4284
  140OSM   H11A15267   2.909   1.606   6.170 -2.9157  0.8510  3.4824
  140OSM   H11B15268   2.875   1.432   6.145 -1.2869  0.6423  2.6221
  140OSM      P15269   2.610   1.444   6.152 -0.2768 -0.0673  0.4235
  140OSM    O1315270   2.468   1.487   6.183  0.1323  0.0974  0.4559
  140OSM    O1415271   2.627   1.367   6.028 -0.0397 -0.2886  0.0463
  140OSM    O1115272   2.654   1.366   6.285 -0.6700 -0.7079 -0.0543
  140OSM    O1215273   2.710   1.564   6.151 -0.0046 -0.4042  0.1170
  140OSM    C1S15274   2.686   1.447   6.398 -0.0122  0.3141  0.0316
  140OSM    H1S15275   2.610   1.524   6.422 -0.5797 -0.0585 -0.5555
  140OSM    H1T15276   2.790   1.485   6.386 -0.4865  1.0691 -2.4312
  140OSM     NF15277   2.685   1.454   6.642 -0.6804 -0.3343 -0.1324
  140OSM    HNF15278   2.770   1.473   6.689 -1.9369  0.9393  1.7576
  140OSM    C2S15279   2.677   1.362   6.524 -0.3267  0.4722  0.6095
  140OSM    H2S15280   2.580   1.309   6.533  0.3015 -0.6448  1.0498
  140OSM    C3S15281   2.794   1.254   6.520 -0.2246  0.3379  0.1235
  140OSM    H3S15282   2.886   1.315   6.531 -0.0847  0.1379  0.0726
  140OSM     O315283   2.807   1.189   6.391  0.4513 -0.2152 -0.9518
  140OSM    HO315284   2.795   1.264   6.332  1.5276  0.5932 -0.1711
  140OSM    C4S15285   2.777   1.160   6.647  0.7492 -0.1903 -1.4032
  140OSM    H4S15286   2.838   1.177   6.737  0.1680 -0.1392 -1.0128
  140OSM    C5S15287   2.686   1.064   6.652  0.4178  0.4425  0.1917
  140OSM    H5S15288   2.624   1.046   6.563 -0.7437  0.2059  1.0365
  140OSM    C6S15289   2.655   0.969   6.760 -0.2579 -0.1828  0.5024
  140OSM    H6S15290   2.714   0.876   6.748 -0.7438 -0.3954 -0.3143
  140OSM    H6T15291   2.548   0.943   6.744 -0.0411 -0.6993 -0.1688
  140OSM    C7S15292   2.672   1.022   6.905 -0.4068  0.1647 -0.4465
  140OSM    H7S15293   2.627   1.123   6.915 -1.5408 -0.2963 -0.8124
  140OSM    H7T15294   2.783   1.026   6.913 -0.3310  0.3399 -1.4873
  140OSM    C8S15295   2.610   0.928   7.005 -0.0363 -0.1348  1.2185
  140OSM    H8S15296   2.646   0.825   6.984 -0.6441  0.3718 -3.1021
  140OSM    H8T15297   2.502   0.903   7.003  0.4280 -2.4889  1.7307
  140OSM    C9S15298   2.638   0.976   7.142  0.4015  0.4933  0.5993
  140OSM    H9S15299   2.576   1.067   7.156 -0.9403 -0.6548  2.5626
  140OSM    H9T15300   2.743   1.005   7.165  0.7191 -0.7399  0.7820
  140OSM   C10S15301   2.581   0.869   7.243  0.7554  0.5344  0.1299
  140OSM   H10S15302   2.606   0.761   7.233 -2.5892 -0.1168 -3.3388
  140OSM   H10T15303   2.472   0.861   7.225  0.5873 -0.8803  1.5419
  140OSM   C11S15304   2.611   0.919   7.384 -0.0299  0.2117 -0.3774
  140OSM   H11S15305   2.587   1.028   7.389  1.0810  0.4321  0.2667
  140OSM   H11T15306   2.720   0.919   7.405 -0.4185  0.0345  1.8325
  140OSM   C12S15307   2.549   0.830   7.490  0.5178 -0.4227 -0.4393
  140OSM   H12S15308   2.576   0.723   7.481 -0.1087 -0.4726 -1.9963
  140OSM   H12T15309   2.439   0.820   7.475  0.4865 -1.0793  0.2306
  140OSM   C13S15310   2.576   0.893   7.632  0.6007  0.6025 -0.4730
  140OSM   H13S15311   2.529   0.992   7.648  0.7099  0.2954  2.2187
  140OSM   H13T15312   2.686   0.909   7.631  0.6613  0.2558  0.4704
  140OSM   C14S15313   2.541   0.794   7.750 -0.7188 -0.2997  0.2677
  140OSM   H14S15314   2.571   0.693   7.715 -0.7383 -1.2468  2.7974
  140OSM   H14T15315   2.432   0.786   7.767 -0.7100 -1.2149 -0.0919
  140OSM   C15S15316   2.612   0.822   7.882  0.1293  0.2900  0.2635
  140OSM   H15S15317   2.590   0.919   7.932 -0.1513 -0.9490  2.6854
  140OSM   H15T15318   2.720   0.814   7.860  0.0661  0.9541 -0.3351
  140OSM   C16S15319   2.573   0.721   7.989 -0.4395  0.4461  0.0501
  140OSM   H16S15320   2.661   0.714   8.055  2.7441  0.0746 -3.8742
  140OSM   H16T15321   2.552   0.619   7.949 -1.5260  0.6135  0.1586
  140OSM   C17S15322   2.435   0.747   8.064  0.7547 -0.3704  0.1219
  140OSM   H17S15323   2.347   0.748   7.998 -0.4581 -1.3054  1.6467
  140OSM   H17T15324   2.445   0.850   8.105  0.9086 -0.5750  0.6164
  140OSM   C18S15325   2.428   0.641   8.175 -0.1053 -0.3175  0.1719
  140OSM   H18S15326   2.341   0.655   8.242  1.9406  1.8632  2.6077
  140OSM   H18T15327   2.518   0.671   8.232 -1.3466  0.5940  1.6972
  140OSM   H18U15328   2.443   0.539   8.133  1.4251  0.2098 -0.6452
  140OSM    C1F15329   2.586   1.532   6.686 -0.1771 -1.1569  0.5217
  140OSM     OF15330   2.473   1.530   6.633  0.3404 -0.4657  0.1824
  140OSM    C2F15331   2.616   1.635   6.794  0.2301  0.1100 -0.3982
  140OSM    H2F15332   2.580   1.738   6.775 -0.8078 -0.3233 -0.8341
  140OSM    H2G15333   2.723   1.640   6.824  0.8715  2.3501 -2.7210
  140OSM    C3F15334   2.542   1.596   6.934  1.2467  0.4246  0.1049
  140OSM    H3F15335   2.441   1.559   6.906  1.6470 -1.7839  1.3930
  140OSM    H3G15336   2.537   1.694   6.986 -1.5927  0.8634 -0.7708
  140OSM    C4F15337   2.605   1.483   7.008  0.1695  0.1930 -0.3823
  140OSM    H4F15338   2.714   1.503   7.010 -0.1107  1.8093 -0.2504
  140OSM    H4G15339   2.589   1.398   6.938  0.3221  1.2987 -1.7961
  140OSM    C5F15340   2.551   1.467   7.152  0.4429 -0.2820 -0.2255
  140OSM    H5F15341   2.455   1.413   7.147  1.5414 -2.9475  3.3719
  140OSM    H5G15342   2.536   1.570   7.192  1.6464  0.9673 -2.7454
  140OSM    C6F15343   2.651   1.394   7.244  0.2594  0.0330 -0.1074
  140OSM    H6F15344   2.736   1.464   7.257  0.1367  0.2759 -0.5967
  140OSM    H6G15345   2.686   1.301   7.195  0.3762 -1.0209  1.8823
  140OSM    C7F15346   2.575   1.361   7.377 -0.0187 -0.2787  0.4163
  140OSM    H7F15347   2.493   1.294   7.345  1.0784 -0.4374 -2.3072
  140OSM    H7G15348   2.521   1.452   7.410 -1.5816 -0.2117 -2.0839
  140OSM    C8F15349   2.647   1.296   7.496 -0.3608 -0.0952 -0.0374
  140OSM    H8F15350   2.729   1.232   7.455 -0.4017  0.6604 -1.3456
  140OSM    H8G15351   2.587   1.226   7.559  0.4532 -0.8644 -0.0906
  140OSM    C9F15352   2.708   1.400   7.589 -1.0841  0.6531  0.1227
  140OSM    H9F15353   2.724   1.494   7.534  0.2910 -0.8921 -2.3190
  140OSM   C10F15354   2.723   1.397   7.725  0.3751  0.3755 -0.0187
  140OSM   H10F15355   2.781   1.477   7.773 -0.0664  0.6176  0.1175
  140OSM   C11F15356   2.674   1.287   7.814  0.7782 -0.3331  0.1949
  140OSM   H11F15357   2.707   1.183   7.791  1.3035 -0.1812  0.2591
  140OSM   H11G15358   2.563   1.280   7.812  0.7119  0.2168 -2.6037
  140OSM   C12F15359   2.712   1.310   7.962 -0.1736  0.1711 -0.4654
  140OSM   H12F15360   2.822   1.314   7.954 -0.2264 -0.2511 -1.4855
  140OSM   H12G15361   2.673   1.221   8.016 -0.7325 -0.6424 -2.1389
  140OSM   C13F15362   2.653   1.422   8.039  0.4463 -1.0612 -0.2338
  140OSM   H13F15363   2.543   1.408   8.052  0.1844 -0.5001 -1.6588
  140OSM   H13G15364   2.679   1.512   7.980 -0.1242  0.7423  2.0815
  140OSM   C14F15365   2.698   1.434   8.180  0.6055  0.0281  0.4990
  140OSM   H14F15366   2.809   1.429   8.176  0.5190 -1.6606 -1.1849
  140OSM   H14G15367   2.652   1.352   8.239  3.4502 -1.0227  1.4375
  140OSM   C15F15368   2.659   1.569   8.244 -0.3909 -0.0293  0.4790
  140OSM   H15F15369   2.549   1.574   8.229 -0.9417 -6.5970 -0.6068
  140OSM   H15G15370   2.708   1.651   8.187 -0.2132 -0.8405 -0.5581
  140OSM   C16F15371   2.692   1.573   8.395 -0.0682  0.3111  0.3519
  140OSM   H16F15372   2.802   1.568   8.407 -0.0368 -0.1884 -0.1129
  140OSM   H16G15373   2.648   1.479   8.435 -0.2699 -0.4319 -1.5133
  140OSM   C17F15374   2.632   1.689   8.464  0.1704 -0.2863 -0.4538
  140OSM   H17F15375   2.528   1.658   8.484  0.8991 -2.3568  0.4561
  140OSM   H17G15376   2.645   1.778   8.399  1.2192  1.0963  1.5286
  140OSM   C18F15377   2.700   1.727   8.594  0.1927  0.3577 -0.0427
  140OSM   H18F15378   2.810   1.740   8.592  0.4645 -1.7066  0.0236
  140OSM   H18G15379   2.677   1.641   8.660 -1.4708 -1.2939 -2.5957
  140OSM   H18H15380   2.642   1.811   8.639  0.0055  2.3885 -3.7360
  141OSM      N15381   6.512   0.834   6.018 -0.7212  0.2656  0.0212
  141OSM    C1515382   6.447   0.882   6.148  0.2294  0.0808 -0.2132
  141OSM   H15A15383   6.507   0.963   6.187 -2.1707  1.6156  0.5452
  141OSM   H15B15384   6.438   0.808   6.226 -1.5564 -1.8326 -2.0924
  141OSM   H15C15385   6.347   0.922   6.134 -0.0709 -0.2634  0.9014
  141OSM    C1415386   6.418   0.738   5.948  0.3053 -0.0232  0.1390
  141OSM   H14A15387   6.460   0.681   5.867 -0.0680  0.3367 -0.3084
  141OSM   H14B15388   6.323   0.783   5.921 -0.0372 -1.0291 -0.4032
  141OSM   H14C15389   6.386   0.656   6.011 -0.9070  0.2041 -0.1429
  141OSM    C1315390   6.545   0.944   5.924  0.3314  0.4176  0.0369
  141OSM   H13A15391   6.606   1.013   5.981  1.2317  0.0617 -0.4692
  141OSM   H13B15392   6.448   0.986   5.902 -0.5464 -0.6365  1.6609
  141OSM   H13C15393   6.594   0.924   5.830 -0.8024 -1.3207 -0.2213
  141OSM    C1215394   6.639   0.761   6.059 -0.3923 -0.4163  0.0267
  141OSM   H12A15395   6.706   0.738   5.977  2.7508  1.5687  1.8202
  141OSM   H12B15396   6.613   0.666   6.103  0.2594 -1.0347 -0.8705
  141OSM    C1115397   6.741   0.838   6.148  0.5056 -0.3070 -0.1997
  141OSM   H11A15398   6.826   0.772   6.176  3.0803  2.0788 -1.8740
  141OSM   H11B15399   6.699   0.878   6.243  1.6987  1.2589 -0.2947
  141OSM      P15400   6.906   1.035   6.165  0.3788  0.4500  0.3062
  141OSM    O1315401   7.042   1.021   6.108 -0.0547  0.1972 -0.1854
  141OSM    O1415402   6.859   1.177   6.181  0.2312 -0.1177 -0.4150
  141OSM    O1115403   6.898   0.969   6.304  0.5230 -1.0958 -0.0988
  141OSM    O1215404   6.795   0.948   6.075 -0.7139 -0.5359 -0.1119
  141OSM    C1S15405   6.988   1.015   6.405 -0.3704 -0.0029 -0.8266
  141OSM    H1S15406   7.003   1.125   6.410 -0.4943 -0.0180 -0.0407
  141OSM    H1T15407   7.090   0.971   6.398 -0.7999 -1.0840 -0.4923
  141OSM     NF15408   6.964   1.051   6.651 -0.3182  0.3305  0.8575
  141OSM    HNF15409   7.005   0.998   6.724 -2.3192 -0.6329  1.3321
  141OSM    C2S15410   6.914   0.980   6.538  0.0886  0.3633  0.4468
  141OSM    H2S15411   6.807   1.008   6.522  0.0345 -1.1725 -2.6119
  141OSM    C3S15412   6.917   0.824   6.560  0.3226 -0.1505 -0.1523
  141OSM    H3S15413   7.019   0.802   6.600 -0.3822 -0.1316  1.7629
  141OSM     O315414   6.914   0.740   6.447  0.2476 -0.1173 -0.3575
  141OSM    HO315415   6.913   0.805   6.377  0.7178 -3.2633 -3.5994
  141OSM    C4S15416   6.828   0.771   6.671 -0.2685 -0.1267  0.0921
  141OSM    H4S15417   6.876   0.780   6.770  1.0465  1.6185 -0.6509
  141OSM    C5S15418   6.699   0.721   6.659 -0.4281  0.4883 -0.3845
  141OSM    H5S15419   6.650   0.714   6.560 -1.6845  1.4935  0.1347
  141OSM    C6S15420   6.599   0.679   6.770  0.4890 -0.2347 -0.4543
  141OSM    H6S15421   6.561   0.579   6.739 -0.4083  0.2136 -0.8385
  141OSM    H6T15422   6.511   0.747   6.772  1.2411  0.8075 -1.2640
  141OSM    C7S15423   6.658   0.652   6.908 -0.2250  0.0277  0.1664
  141OSM    H7S15424   6.699   0.743   6.955 -0.6563  0.0080  0.5859
  141OSM    H7T15425   6.737   0.575   6.894  0.4902  0.5309  1.2788
  141OSM    C8S15426   6.545   0.599   7.005  0.1515  0.1484  0.6758
  141OSM    H8S15427   6.491   0.523   6.945 -1.0739  1.5455 -0.0435
  141OSM    H8T15428   6.480   0.688   7.020 -0.3793 -0.4100  1.8561
  141OSM    C9S15429   6.603   0.542   7.134 -0.4953 -0.1555  0.0836
  141OSM    H9S15430   6.691   0.601   7.166  0.6235 -1.7222  0.0420
  141OSM    H9T15431   6.635   0.436   7.117  2.4515  0.2380  2.4206
  141OSM   C10S15432   6.501   0.555   7.251  0.0302 -0.4377 -0.2651
  141OSM   H10S15433   6.402   0.510   7.225  0.2035 -1.0694  0.1689
  141OSM   H10T15434   6.484   0.661   7.278 -1.5631 -0.7119 -0.0502
  141OSM   C11S15435   6.540   0.491   7.385  0.1094 -0.6266  0.5862
  141OSM   H11S15436   6.637   0.539   7.412  1.7595 -0.4075 -4.5422
  141OSM   H11T15437   6.559   0.384   7.363  1.1313 -0.3433 -0.0150
  141OSM   C12S15438   6.436   0.508   7.490  0.0695 -0.1239 -0.3502
  141OSM   H12S15439   6.351   0.439   7.471 -0.4576 -0.2140  2.0038
  141OSM   H12T15440   6.396   0.611   7.496  2.1940  0.8272 -1.6015
  141OSM   C13S15441   6.490   0.493   7.632  0.0906  0.6881  0.0048
  141OSM   H13S15442   6.585   0.550   7.641  0.6700 -0.0720 -1.0124
  141OSM   H13T15443   6.514   0.386   7.651  0.4528  0.7210 -0.2407
  141OSM   C14S15444   6.389   0.540   7.744  0.0014  0.2683  0.2913
  141OSM   H14S15445   6.286   0.500   7.726  0.0362  0.4683 -0.3652
  141OSM   H14T15446   6.387   0.651   7.745 -1.2798  0.3530 -2.1113
  141OSM   C15S15447   6.427   0.472   7.876  0.2228  0.2116 -0.3598
  141OSM   H15S15448   6.528   0.506   7.906 -0.1995  2.8581 -1.6489
  141OSM   H15T15449   6.434   0.362   7.862  2.4077  0.2918 -0.2136
  141OSM   C16S15450   6.329   0.503   7.993  0.3441 -0.3203  0.1914
  141OSM   H16S15451   6.232   0.467   7.954 -0.5643  3.0252 -1.0157
  141OSM   H16T15452   6.318   0.613   8.007 -1.6088 -0.3709 -0.6252
  141OSM   C17S15453   6.373   0.429   8.118 -0.3914  0.6147  0.0564
  141OSM   H17S15454   6.424   0.340   8.076  0.1067  1.1539 -0.5104
  141OSM   H17T15455   6.290   0.393   8.181 -1.4846  3.4015  0.3825
  141OSM   C18S15456   6.495   0.500   8.189 -0.1329  0.0698  0.6443
  141OSM   H18S15457   6.510   0.448   8.286 -1.4317  2.2458  2.1207
  141OSM   H18T15458   6.463   0.606   8.197  0.1927  0.4544 -2.2313
  141OSM   H18U15459   6.597   0.498   8.144 -0.2546 -1.1520  0.3890
  141OSM    C1F15460   6.937   1.179   6.668 -0.3801 -0.3553 -0.0522
  141OSM     OF15461   6.875   1.239   6.586  0.2910 -0.4188 -0.4862
  141OSM    C2F15462   6.986   1.241   6.796  0.5210 -0.6512 -0.7490
  141OSM    H2F15463   7.050   1.330   6.776  0.5689 -0.2658  0.9846
  141OSM    H2G15464   7.052   1.167   6.846  1.9924  0.9668 -0.2184
  141OSM    C3F15465   6.867   1.269   6.897 -0.0301  0.1250  0.5126
  141OSM    H3F15466   6.822   1.169   6.914  0.3052 -0.0139  0.6078
  141OSM    H3G15467   6.788   1.321   6.840 -1.4063 -3.7118 -1.4404
  141OSM    C4F15468   6.907   1.328   7.025  0.0984 -0.1470 -0.4493
  141OSM    H4F15469   6.909   1.439   7.015 -0.0630 -0.0044  0.9145
  141OSM    H4G15470   7.011   1.295   7.048  0.3087  0.5081 -0.4339
  141OSM    C5F15471   6.812   1.302   7.136  0.8634 -0.2559  0.0469
  141OSM    H5F15472   6.800   1.193   7.151  0.5460 -0.2394 -0.0768
  141OSM    H5G15473   6.713   1.343   7.105  1.2167  0.8321  0.3067
  141OSM    C6F15474   6.863   1.368   7.266 -0.5843  0.0209  0.0441
  141OSM    H6F15475   6.884   1.477   7.257  0.8736 -0.1707  0.7855
  141OSM    H6G15476   6.959   1.321   7.296  1.1116  1.8555 -2.1644
  141OSM    C7F15477   6.763   1.348   7.374 -0.6419  0.1588  0.0597
  141OSM    H7F15478   6.727   1.243   7.368 -0.9956  0.2319  0.8602
  141OSM    H7G15479   6.674   1.401   7.332  1.1914  1.6442 -2.2225
  141OSM    C8F15480   6.794   1.406   7.516 -0.1986  0.1435 -0.4818
  141OSM    H8F15481   6.697   1.425   7.567 -0.6485  1.5257 -1.7679
  141OSM    H8G15482   6.843   1.505   7.501  0.3796  0.2450  1.7278
  141OSM    C9F15483   6.880   1.330   7.602  0.4309  0.5652  0.6179
  141OSM    H9F15484   6.982   1.313   7.566 -0.7646 -0.6845 -2.5171
  141OSM   C10F15485   6.852   1.280   7.724 -0.4205 -0.0600 -0.9617
  141OSM   H10F15486   6.935   1.223   7.770 -0.9558 -0.4703 -0.4902
  141OSM   C11F15487   6.723   1.295   7.806 -0.1409 -0.2082 -0.0427
  141OSM   H11F15488   6.658   1.209   7.776  1.4018 -1.5387  0.2648
  141OSM   H11G15489   6.673   1.393   7.794  0.5001  0.2138  0.7159
  141OSM   C12F15490   6.748   1.279   7.954  0.8298  0.1558  0.7108
  141OSM   H12F15491   6.838   1.339   7.980  2.0501 -0.2857 -2.0553
  141OSM   H12G15492   6.779   1.174   7.967  2.8533  0.5778 -0.2560
  141OSM   C13F15493   6.628   1.297   8.047 -0.2877 -0.4993  0.5673
  141OSM   H13F15494   6.546   1.228   8.017  0.2681 -1.0044  0.1696
  141OSM   H13G15495   6.587   1.400   8.043  2.2070  0.5362 -0.9395
  141OSM   C14F15496   6.657   1.257   8.189 -0.4463 -0.5005  0.2751
  141OSM   H14F15497   6.742   1.321   8.218 -0.9773  0.5448 -0.4191
  141OSM   H14G15498   6.693   1.154   8.209 -0.4123 -0.3372  1.0824
  141OSM   C15F15499   6.537   1.291   8.281  0.0538 -0.2185  0.1631
  141OSM   H15F15500   6.451   1.224   8.257 -0.6316  0.6787  0.0252
  141OSM   H15G15501   6.523   1.398   8.255  2.2496  0.0338 -0.1249
  141OSM   C16F15502   6.570   1.264   8.424  0.3798  0.4061 -0.9822
  141OSM   H16F15503   6.589   1.157   8.444  1.0274  0.8789  1.1453
  141OSM   H16G15504   6.485   1.291   8.490  0.2889  0.6219 -1.1812
  141OSM   C17F15505   6.695   1.338   8.477 -0.0958  0.2896  0.9355
  141OSM   H17F15506   6.701   1.443   8.443  0.9429  0.1662  0.7100
  141OSM   H17G15507   6.788   1.295   8.434 -0.5851  1.3349 -1.3350
  141OSM   C18F15508   6.692   1.344   8.631 -0.4449  0.1347  0.8495
  141OSM   H18F15509   6.779   1.407   8.660  0.4971  0.1138 -1.6779
  141OSM   H18G15510   6.681   1.243   8.675  0.1268 -1.0711 -1.6035
  141OSM   H18H15511   6.600   1.398   8.664 -1.0601 -1.6321  2.1404
  142OSM      N15512   0.576   2.777   6.492 -0.4102 -0.2493 -0.3809
  142OSM    C1515513   0.541   2.900   6.420 -0.2306 -0.1197 -0.2605
  142OSM   H15A15514   0.571   2.979   6.486 -1.2875 -0.4704  0.6690
  142OSM   H15B15515   0.434   2.912   6.406 -0.1536  0.3480 -0.4609
  142OSM   H15C15516   0.593   2.906   6.325  2.0564  1.2645  0.9969
  142OSM    C1415517   0.515   2.779   6.634  0.6739 -0.4371  0.1301
  142OSM   H14A15518   0.548   2.858   6.700 -1.5937  0.6960 -0.0010
  142OSM   H14B15519   0.547   2.684   6.674 -1.0824 -0.2561  2.1573
  142OSM   H14C15520   0.408   2.768   6.639  0.7703 -1.2062  0.9119
  142OSM    C1315521   0.506   2.662   6.427 -0.3076 -0.3391 -0.3460
  142OSM   H13A15522   0.515   2.580   6.495  3.9135  1.6913  1.9754
  142OSM   H13B15523   0.557   2.642   6.333 -0.9929 -0.5542 -0.6778
  142OSM   H13C15524   0.401   2.685   6.426 -0.3536 -0.4286  0.9928
  142OSM    C1215525   0.726   2.744   6.497 -0.0547 -0.5185 -0.1474
  142OSM   H12A15526   0.738   2.652   6.553 -0.8765  0.5078  1.8199
  142OSM   H12B15527   0.774   2.812   6.567 -0.7217 -1.2036  1.0096
  142OSM    C1115528   0.797   2.725   6.368 -0.1087  0.1906  0.2271
  142OSM   H11A15529   0.753   2.647   6.302  2.9771 -1.1920 -0.3628
  142OSM   H11B15530   0.901   2.688   6.382  0.7432  2.2303 -0.4356
  142OSM      P15531   0.908   2.958   6.314 -0.2309  0.1556 -0.1739
  142OSM    O1315532   1.034   2.906   6.260 -0.3134 -0.3285 -0.1544
  142OSM    O1415533   0.870   3.097   6.273 -0.2712 -0.0160 -0.2280
  142OSM    O1115534   0.921   2.953   6.476  0.3586 -0.5483 -0.5301
  142OSM    O1215535   0.800   2.850   6.294 -0.0287  0.7026 -0.1350
  142OSM    C1S15536   0.842   3.040   6.561 -0.1777  0.0553  0.3554
  142OSM    H1S15537   0.743   2.991   6.572  0.4573 -1.7199 -1.1959
  142OSM    H1T15538   0.828   3.141   6.519  1.8498  0.5100  0.6494
  142OSM     NF15539   0.821   3.129   6.790  0.3559  0.1319 -0.4588
  142OSM    HNF15540   0.859   3.219   6.807 -0.3274  0.7120 -1.8304
  142OSM    C2S15541   0.908   3.041   6.702  0.5016  0.2979 -0.9878
  142OSM    H2S15542   0.897   2.939   6.745 -0.3677  1.2363  1.1866
  142OSM    C3S15543   1.058   3.081   6.688 -0.0832  0.4852 -0.1881
  142OSM    H3S15544   1.064   3.182   6.641  0.1469  0.8609  0.6387
  142OSM     O315545   1.141   2.996   6.609 -0.4351  0.1955 -0.6085
  142OSM    HO315546   1.074   2.941   6.569 -0.9633  0.7401 -0.4843
  142OSM    C4S15547   1.128   3.091   6.826 -0.5455  0.1980  0.2517
  142OSM    H4S15548   1.159   3.194   6.851  1.1309 -0.8446  2.8511
  142OSM    C5S15549   1.149   2.992   6.911  0.3672 -0.1044  0.0596
  142OSM    H5S15550   1.100   2.897   6.886 -0.1523  0.6631 -2.0507
  142OSM    C6S15551   1.211   3.014   7.047 -0.4116  0.0671 -0.6023
  142OSM    H6S15552   1.259   2.922   7.086 -0.6982 -0.8075 -2.2031
  142OSM    H6T15553   1.126   3.043   7.112 -1.3447 -0.8518 -1.3609
  142OSM    C7S15554   1.317   3.130   7.059 -0.1187 -0.0487  0.3508
  142OSM    H7S15555   1.249   3.219   7.058 -0.6234 -0.4137  1.0711
  142OSM    H7T15556   1.386   3.119   6.973  0.2224  2.6389  0.1920
  142OSM    C8S15557   1.385   3.129   7.200  0.0275 -0.1054  0.3233
  142OSM    H8S15558   1.460   3.210   7.211 -1.1886  1.3502 -1.4186
  142OSM    H8T15559   1.419   3.023   7.208 -0.3169 -0.3898 -1.4437
  142OSM    C9S15560   1.285   3.141   7.315 -0.0859  0.4601 -0.0475
  142OSM    H9S15561   1.224   3.050   7.329 -0.2771  0.6147  0.1406
  142OSM    H9T15562   1.226   3.232   7.290 -1.6790  0.3372  2.8315
  142OSM   C10S15563   1.353   3.167   7.452 -0.6100 -0.1337 -0.0885
  142OSM   H10S15564   1.404   3.266   7.448  0.5336 -0.7347 -1.4017
  142OSM   H10T15565   1.439   3.097   7.443  0.2032  0.9621 -1.1939
  142OSM   C11S15566   1.273   3.137   7.578  0.5624  0.0689 -0.0153
  142OSM   H11S15567   1.238   3.032   7.568 -0.4357  0.3668  0.3226
  142OSM   H11T15568   1.184   3.202   7.574  0.8892  0.5123 -0.2155
  142OSM   C12S15569   1.363   3.156   7.706 -0.1237 -0.3050  0.1082
  142OSM   H12S15570   1.385   3.264   7.715  1.3251 -0.2653 -2.6679
  142OSM   H12T15571   1.464   3.111   7.701 -0.4533 -1.3249  1.8170
  142OSM   C13S15572   1.290   3.110   7.830  0.7154  0.3587  0.5417
  142OSM   H13S15573   1.268   3.002   7.814  1.3877  0.3462 -0.3356
  142OSM   H13T15574   1.199   3.174   7.830 -0.2221 -0.9075  1.7859
  142OSM   C14S15575   1.358   3.132   7.966  0.3359  0.1663  0.1848
  142OSM   H14S15576   1.291   3.098   8.048  2.7043 -0.5797  1.9502
  142OSM   H14T15577   1.380   3.240   7.975  3.7188 -0.3745 -0.3367
  142OSM   C15S15578   1.491   3.056   7.987  0.0655 -0.3308  0.4251
  142OSM   H15S15579   1.556   3.104   7.911 -1.6796  2.6632  0.6795
  142OSM   H15T15580   1.483   2.947   7.969  0.5148 -0.4840  1.1446
  142OSM   C16S15581   1.562   3.087   8.125 -0.5527 -0.1267  0.3753
  142OSM   H16S15582   1.639   3.010   8.146  0.7917  1.2049  0.5431
  142OSM   H16T15583   1.507   3.078   8.222  2.8860  0.9430  2.6020
  142OSM   C17S15584   1.629   3.228   8.135 -0.0488 -0.5455 -0.8633
  142OSM   H17S15585   1.543   3.299   8.123 -0.5855 -1.2535 -1.2791
  142OSM   H17T15586   1.696   3.225   8.047 -1.0903  2.6573 -1.9259
  142OSM   C18S15587   1.716   3.259   8.264 -1.0988 -0.6984  0.2284
  142OSM   H18S15588   1.671   3.226   8.360 -1.4041 -2.3524 -0.4493
  142OSM   H18T15589   1.726   3.369   8.279  2.2620 -0.9452  0.6401
  142OSM   H18U15590   1.813   3.205   8.261 -1.0810 -0.9662  3.0720
  142OSM    C1F15591   0.702   3.093   6.846  0.5243 -0.3976 -0.6000
  142OSM     OF15592   0.643   2.988   6.822  0.0962 -0.3703  0.1143
  142OSM    C2F15593   0.645   3.205   6.935 -0.5108 -0.8111 -1.0091
  142OSM    H2F15594   0.568   3.259   6.875 -1.9639  0.4045  1.7512
  142OSM    H2G15595   0.720   3.284   6.955 -0.9478  0.0372 -2.5089
  142OSM    C3F15596   0.584   3.147   7.066 -0.6661  0.2202 -0.1354
  142OSM    H3F15597   0.504   3.078   7.033 -1.7978  0.9098  1.0928
  142OSM    H3G15598   0.523   3.227   7.114 -2.8108 -0.6832 -1.2098
  142OSM    C4F15599   0.688   3.093   7.166  0.5458 -0.0926 -0.0984
  142OSM    H4F15600   0.744   3.013   7.111  0.6593 -0.2959  0.3099
  142OSM    H4G15601   0.631   3.047   7.249 -1.0003 -2.0523 -2.1046
  142OSM    C5F15602   0.767   3.210   7.229  0.0668 -0.3011 -0.7519
  142OSM    H5F15603   0.685   3.273   7.268  1.4960  1.8693 -1.0866
  142OSM    H5G15604   0.833   3.237   7.143  1.2000  0.2167  0.2438
  142OSM    C6F15605   0.857   3.173   7.349  0.1899  0.1243 -0.0021
  142OSM    H6F15606   0.912   3.262   7.387  0.8830 -0.2748 -0.0475
  142OSM    H6G15607   0.936   3.099   7.322 -0.1704 -0.2571 -0.0090
  142OSM    C7F15608   0.789   3.118   7.475 -0.4918  0.4463 -0.1675
  142OSM    H7F15609   0.741   3.024   7.442  0.3317 -0.3535  0.8493
  142OSM    H7G15610   0.714   3.188   7.518 -1.8796 -1.5648  0.8623
  142OSM    C8F15611   0.882   3.079   7.593 -0.0374 -0.1800  0.0155
  142OSM    H8F15612   0.970   3.026   7.551  1.9544  1.8220  1.4382
  142OSM    H8G15613   0.838   3.013   7.671  1.9421 -0.5196  0.9001
  142OSM    C9F15614   0.924   3.208   7.662  0.6615 -0.6422 -0.2144
  142OSM    H9F15615   0.957   3.292   7.599 -1.3833  0.3061 -0.0771
  142OSM   C10F15616   0.919   3.247   7.795  0.1673 -0.0641  0.5895
  142OSM   H10F15617   0.972   3.336   7.832 -1.4151  0.8867  0.6549
  142OSM   C11F15618   0.870   3.156   7.908 -0.3300  0.2821  1.0742
  142OSM   H11F15619   0.935   3.066   7.916  0.3505  0.6275 -0.3729
  142OSM   H11G15620   0.764   3.125   7.900  0.8090 -4.0323  0.3442
  142OSM   C12F15621   0.884   3.227   8.041 -0.5190 -0.4439 -0.5215
  142OSM   H12F15622   0.992   3.243   8.061 -0.8104 -0.1384  0.9144
  142OSM   H12G15623   0.844   3.165   8.124 -2.9577 -0.3924 -1.5648
  142OSM   C13F15624   0.806   3.357   8.056 -0.3341 -0.2466  0.1063
  142OSM   H13F15625   0.718   3.367   7.988  0.0349  1.1294 -0.2027
  142OSM   H13G15626   0.868   3.443   8.021 -1.3925  0.5308  0.0785
  142OSM   C14F15627   0.743   3.381   8.199  0.1321 -0.4255  0.2118
  142OSM   H14F15628   0.828   3.359   8.267  0.5002  0.2823 -0.0077
  142OSM   H14G15629   0.657   3.311   8.199 -0.3140  0.0976  1.2323
  142OSM   C15F15630   0.712   3.528   8.220  0.2637  0.3147  0.7504
  142OSM   H15F15631   0.639   3.568   8.146  1.1759  0.7908  0.1016
  142OSM   H15G15632   0.808   3.580   8.201  0.8774 -1.1102 -0.1321
  142OSM   C16F15633   0.663   3.549   8.361  0.4169  0.0347  0.2054
  142OSM   H16F15634   0.748   3.596   8.414 -0.1224  1.6499 -0.3008
  142OSM   H16G15635   0.629   3.455   8.409 -0.3759 -0.2929 -0.9445
  142OSM   C17F15636   0.542   3.646   8.354  0.4118 -0.3809 -0.4056
  142OSM   H17F15637   0.461   3.588   8.305  0.7594 -0.0040 -1.4315
  142OSM   H17G15638   0.563   3.735   8.291 -1.0736  1.3636  1.4288
  142OSM   C18F15639   0.505   3.691   8.492  0.1934  0.2261  0.4065
  142OSM   H18F15640   0.603   3.702   8.542  0.6810  0.3337 -0.5545
  142OSM   H18G15641   0.458   3.604   8.542  1.6641 -0.6512  0.3102
  142OSM   H18H15642   0.449   3.787   8.492  0.0587  0.1485  0.1433
  143OSM      N15643   3.984   0.288   6.023  0.6015 -0.6800 -0.2017
  143OSM    C1515644   3.884   0.207   6.097 -0.3740 -0.2810 -0.1691
  143OSM   H15A15645   3.927   0.172   6.190 -0.9171 -0.1431  0.1333
  143OSM   H15B15646   3.878   0.119   6.034  0.8692 -1.0420  0.7328
  143OSM   H15C15647   3.790   0.253   6.123 -0.2247  0.9846 -1.6765
  143OSM    C1415648   4.049   0.378   6.129 -0.1523 -0.3828 -0.8502
  143OSM   H14A15649   4.126   0.437   6.082  0.9776 -0.0076  1.3534
  143OSM   H14B15650   4.098   0.320   6.206  0.0077 -0.3549 -0.9317
  143OSM   H14C15651   3.972   0.441   6.171 -0.4357 -0.7011 -0.8934
  143OSM    C1315652   4.089   0.188   5.964 -0.1731 -0.5496  0.1982
  143OSM   H13A15653   4.189   0.227   5.947 -0.9208  1.3775  0.0136
  143OSM   H13B15654   4.056   0.136   5.876  0.8575 -0.9507  0.0290
  143OSM   H13C15655   4.101   0.119   6.046 -2.0077  1.1101  1.9680
  143OSM    C1215656   3.929   0.370   5.911 -0.7930  0.7844 -0.4398
  143OSM   H12A15657   3.913   0.311   5.823  1.0305 -0.5738  0.0881
  143OSM   H12B15658   4.002   0.444   5.880 -1.0728  1.1123 -0.3205
  143OSM    C1115659   3.799   0.442   5.943  0.5958  0.0479 -0.1885
  143OSM   H11A15660   3.724   0.368   5.977  1.8260 -2.2728 -2.2131
  143OSM   H11B15661   3.760   0.487   5.849  0.3738  0.3362  0.0397
  143OSM      P15662   3.851   0.687   5.997  0.4215 -0.1499  0.0987
  143OSM    O1315663   3.994   0.683   5.965  0.0828  0.1274  0.2040
  143OSM    O1415664   3.760   0.740   5.895  0.2535 -0.0188  0.1251
  143OSM    O1115665   3.825   0.773   6.129 -0.2264  0.1275 -0.2288
  143OSM    O1215666   3.810   0.541   6.045 -0.2986  0.3536  0.3982
  143OSM    C1S15667   3.823   0.722   6.262 -0.5416 -0.2565  0.3993
  143OSM    H1S15668   3.902   0.647   6.286 -1.4918 -0.6706  2.4452
  143OSM    H1T15669   3.733   0.657   6.270  0.8184 -2.3516 -0.3777
  143OSM     NF15670   3.837   0.763   6.502  0.2491  0.0116 -0.2576
  143OSM    HNF15671   3.765   0.778   6.569 -0.2829  1.5907 -1.1029
  143OSM    C2S15672   3.832   0.828   6.371  0.2388  0.5826  0.0062
  143OSM    H2S15673   3.915   0.901   6.358 -0.8504  1.6445 -1.4888
  143OSM    C3S15674   3.706   0.927   6.332  0.8362 -0.1029  0.0487
  143OSM    H3S15675   3.608   0.874   6.332  0.6040  0.2666  1.7638
  143OSM     O315676   3.716   0.986   6.205  0.2353 -0.2301  0.3994
  143OSM    HO315677   3.773   0.919   6.168 -0.2809 -1.1121  1.1418
  143OSM    C4S15678   3.699   1.016   6.456 -0.4556  0.0203 -0.3689
  143OSM    H4S15679   3.599   1.017   6.502 -1.8526 -1.9376 -3.0882
  143OSM    C5S15680   3.788   1.102   6.491 -0.5913  0.0989  0.5659
  143OSM    H5S15681   3.880   1.112   6.432 -1.6746  1.5835 -0.9615
  143OSM    C6S15682   3.769   1.193   6.609 -0.1713  0.0001 -0.3875
  143OSM    H6S15683   3.660   1.193   6.634 -0.5746 -1.9635 -1.9073
  143OSM    H6T15684   3.798   1.295   6.577 -1.0138  1.3443  2.7426
  143OSM    C7S15685   3.856   1.161   6.726 -0.5781  0.6005  0.1806
  143OSM    H7S15686   3.963   1.163   6.696 -0.7131  1.0670 -0.2829
  143OSM    H7T15687   3.834   1.054   6.747 -2.2312  0.8435 -0.1700
  143OSM    C8S15688   3.826   1.248   6.846 -0.3842 -0.5000  0.1227
  143OSM    H8S15689   3.715   1.250   6.853 -0.4253  1.2216 -0.5354
  143OSM    H8T15690   3.847   1.352   6.813 -3.1946  0.4952  1.0834
  143OSM    C9S15691   3.908   1.227   6.969  0.0674 -0.0584  0.6397
  143OSM    H9S15692   4.016   1.236   6.942 -0.2409 -1.7018 -1.4350
  143OSM    H9T15693   3.895   1.121   7.000  0.2597  0.1544  1.4606
  143OSM   C10S15694   3.857   1.321   7.081 -0.6925  0.0138  0.5647
  143OSM   H10S15695   3.747   1.313   7.080 -0.8427  1.6909  0.9010
  143OSM   H10T15696   3.908   1.419   7.065  1.0614 -0.9704 -0.1702
  143OSM   C11S15697   3.893   1.266   7.221  0.5743 -0.0556  0.0666
  143OSM   H11S15698   4.002   1.247   7.207  1.1494  2.8792 -0.2348
  143OSM   H11T15699   3.842   1.171   7.245  1.7215 -1.0235 -1.1956
  143OSM   C12S15700   3.884   1.367   7.336 -0.3396 -0.2776  0.3084
  143OSM   H12S15701   3.774   1.381   7.345 -0.9393 -3.0539 -1.4153
  143OSM   H12T15702   3.926   1.463   7.298 -3.1205  0.4745 -1.1841
  143OSM   C13S15703   3.948   1.334   7.473  0.6640  0.1386  0.6798
  143OSM   H13S15704   4.039   1.277   7.444 -0.5265 -2.2193  1.3446
  143OSM   H13T15705   3.896   1.256   7.532 -0.4947 -0.8717 -1.5766
  143OSM   C14S15706   3.993   1.463   7.546  0.5323  0.3442 -0.0987
  143OSM   H14S15707   3.906   1.527   7.573 -0.8829 -1.4738 -0.2040
  143OSM   H14T15708   4.068   1.522   7.488  2.0194 -1.6056 -0.2921
  143OSM   C15S15709   4.066   1.435   7.673  0.4543  1.0270 -0.4298
  143OSM   H15S15710   4.136   1.354   7.642  2.0742  2.5086 -0.8253
  143OSM   H15T15711   4.000   1.405   7.758  1.6607 -0.2267  0.1050
  143OSM   C16S15712   4.150   1.555   7.717  0.1408  0.7910 -0.3054
  143OSM   H16S15713   4.074   1.634   7.735  1.1972  2.5039 -2.7405
  143OSM   H16T15714   4.222   1.587   7.638  0.9889  1.8387  0.8541
  143OSM   C17S15715   4.213   1.533   7.857 -0.1291  0.2077  0.2678
  143OSM   H17S15716   4.292   1.455   7.861  0.2588  0.5149 -1.0049
  143OSM   H17T15717   4.132   1.491   7.920  0.4153 -1.0260  0.1600
  143OSM   C18S15718   4.253   1.660   7.920  0.2731  0.2500 -0.2864
  143OSM   H18S15719   4.333   1.713   7.864 -0.7052  1.2140 -0.8112
  143OSM   H18T15720   4.279   1.634   8.025 -0.4553 -0.6969 -0.3181
  143OSM   H18U15721   4.166   1.729   7.919 -3.8679 -4.4196 -0.0410
  143OSM    C1F15722   3.945   0.703   6.548  0.0070 -0.4646  0.0643
  143OSM     OF15723   4.041   0.685   6.478 -0.0667 -0.1740 -0.2268
  143OSM    C2F15724   3.939   0.678   6.699 -0.7307 -0.1090  0.4575
  143OSM    H2F15725   3.844   0.624   6.719  0.2970 -2.2790 -0.2519
  143OSM    H2G15726   3.946   0.776   6.751  0.9527 -0.7950  1.6382
  143OSM    C3F15727   4.043   0.581   6.761 -0.5998 -0.1492  0.7881
  143OSM    H3F15728   4.143   0.630   6.763 -0.6547 -0.0205  0.3705
  143OSM    H3G15729   4.050   0.491   6.696 -0.5512  0.4663 -0.0746
  143OSM    C4F15730   3.995   0.525   6.898  0.3321 -0.0110 -0.1465
  143OSM    H4F15731   3.901   0.466   6.897  0.5948 -0.4506  0.4113
  143OSM    H4G15732   3.978   0.610   6.969 -0.2987  0.8718 -1.3247
  143OSM    C5F15733   4.105   0.440   6.971  0.3543  0.2592 -0.1062
  143OSM    H5F15734   4.182   0.511   7.008 -1.9870  1.0867  3.7340
  143OSM    H5G15735   4.156   0.369   6.902  0.1560  0.2951 -0.2893
  143OSM    C6F15736   4.055   0.367   7.093 -0.2835  0.2372  0.6814
  143OSM    H6F15737   4.132   0.296   7.131  0.5160  0.4702 -0.4384
  143OSM    H6G15738   3.976   0.297   7.061  0.1927  0.4014 -0.9787
  143OSM    C7F15739   3.984   0.453   7.205 -0.5054 -1.0712  0.0430
  143OSM    H7F15740   3.887   0.484   7.161  1.1136  0.9921 -2.3036
  143OSM    H7G15741   4.034   0.549   7.229  0.6694 -2.1351  2.2127
  143OSM    C8F15742   3.948   0.366   7.329  0.2531  0.6184 -0.1155
  143OSM    H8F15743   3.911   0.269   7.287  3.7164 -1.5420  1.3686
  143OSM    H8G15744   3.859   0.404   7.382  0.7926  0.8309  0.6452
  143OSM    C9F15745   4.061   0.338   7.428  0.0777 -0.4584  0.5497
  143OSM    H9F15746   4.120   0.248   7.406 -1.6162 -1.6486  0.6831
  143OSM   C10F15747   4.088   0.413   7.533  0.6194  0.2147  0.3795
  143OSM   H10F15748   4.164   0.377   7.605 -0.6382 -0.0801  1.6097
  143OSM   C11F15749   3.998   0.526   7.579  0.3517 -0.1081  0.2629
  143OSM   H11F15750   3.908   0.542   7.517  2.2472 -0.9940 -2.9646
  143OSM   H11G15751   4.045   0.624   7.553 -1.7374  0.6753 -0.8177
  143OSM   C12F15752   3.959   0.512   7.729 -0.0700 -0.8019 -0.1591
  143OSM   H12F15753   3.922   0.610   7.765  1.1538  0.2425 -1.6194
  143OSM   H12G15754   4.064   0.500   7.762  0.8097  0.4501 -2.2887
  143OSM   C13F15755   3.876   0.397   7.785  0.3239  0.3810  0.2585
  143OSM   H13F15756   3.917   0.301   7.748  1.1184  1.0086 -0.5498
  143OSM   H13G15757   3.771   0.415   7.752  1.2777  0.7101 -2.9234
  143OSM   C14F15758   3.871   0.404   7.938 -0.2608  0.2907 -0.3738
  143OSM   H14F15759   3.873   0.507   7.981  1.8079  0.4816 -0.8416
  143OSM   H14G15760   3.965   0.355   7.970 -0.6015 -0.2694 -0.2082
  143OSM   C15F15761   3.753   0.333   7.997 -0.6320  0.5360  0.6632
  143OSM   H15F15762   3.771   0.226   7.970 -2.6866  0.2672  0.2256
  143OSM   H15G15763   3.651   0.358   7.963 -0.5623  0.4991  0.4263
  143OSM   C16F15764   3.746   0.335   8.144 -0.2593 -0.8485  0.6482
  143OSM   H16F15765   3.677   0.415   8.176 -1.2021 -1.8940  1.3362
  143OSM   H16G15766   3.839   0.368   8.196  0.7415 -2.1854 -0.2159
  143OSM   C17F15767   3.707   0.203   8.199  0.1682  0.3341  0.5953
  143OSM   H17F15768   3.794   0.134   8.186 -0.4515 -0.1777 -1.2457
  143OSM   H17G15769   3.623   0.161   8.140 -0.6138  1.9379  0.5211
  143OSM   C18F15770   3.669   0.220   8.344 -0.2323  0.5455  0.0980
  143OSM   H18F15771   3.652   0.121   8.391 -0.4425  1.3079  1.7140
  143OSM   H18G15772   3.570   0.270   8.352 -0.2259  0.3751  1.5658
  143OSM   H18H15773   3.746   0.262   8.413 -0.3412 -3.3019  2.8691
  144OSM      N15774   1.214   6.340   6.076  0.1508  0.0414 -0.2640
  144OSM    C1515775   1.251   6.320   5.932  1.1856  0.8833 -0.4993
  144OSM   H15A15776   1.258   6.213   5.920  0.2703  0.7371  0.1583
  144OSM   H15B15777   1.344   6.375   5.922  3.0196 -2.0875 -1.0200
  144OSM   H15C15778   1.170   6.354   5.869 -1.9169 -1.5687  1.8182
  144OSM    C1415779   1.225   6.489   6.102  0.3190  0.3149  0.6699
  144OSM   H14A15780   1.312   6.541   6.065  1.2939 -0.3737  1.9042
  144OSM   H14B15781   1.203   6.511   6.206 -1.4174  0.3644  0.3164
  144OSM   H14C15782   1.144   6.543   6.054 -1.8293 -1.4622  2.1179
  144OSM    C1315783   1.077   6.293   6.096 -0.0760  0.9686 -0.2585
  144OSM   H13A15784   1.069   6.186   6.082 -3.2171  0.5640  3.0987
  144OSM   H13B15785   1.007   6.348   6.036 -0.3558  0.5503 -0.3218
  144OSM   H13C15786   1.046   6.309   6.198  1.5736  0.2001  0.3969
  144OSM    C1215787   1.308   6.261   6.168 -0.1674 -0.1125 -0.7214
  144OSM   H12A15788   1.290   6.155   6.154  1.1261 -0.4170 -0.1572
  144OSM   H12B15789   1.284   6.273   6.273 -0.6229 -1.5651 -0.6246
  144OSM    C1115790   1.460   6.276   6.143  0.2376 -0.4243  0.1570
  144OSM   H11A15791   1.509   6.236   6.235 -0.2987 -1.2039  0.1149
  144OSM   H11B15792   1.483   6.384   6.157 -2.4515  0.0530  1.6228
  144OSM      P15793   1.542   6.047   6.016  0.0367 -0.2395  0.0009
  144OSM    O1315794   1.474   5.995   5.894  0.5818 -0.3273 -0.1140
  144OSM    O1415795   1.683   6.011   6.033  0.6277 -0.3053 -0.2603
  144OSM    O1115796   1.479   5.994   6.149  0.5148 -0.0503 -0.2026
  144OSM    O1215797   1.520   6.211   6.025  0.1987 -0.1668  0.3950
  144OSM    C1S15798   1.480   5.853   6.187 -0.0282 -0.0760  0.6253
  144OSM    H1S15799   1.544   5.794   6.117  2.0396  0.0742  2.2767
  144OSM    H1T15800   1.377   5.811   6.186  0.5982 -1.7454 -1.7111
  144OSM     NF15801   1.530   5.692   6.357 -0.0408  0.3760 -0.1316
  144OSM    HNF15802   1.459   5.656   6.417  3.3193 -0.9539  3.5187
  144OSM    C2S15803   1.537   5.835   6.332 -0.5130  0.0414  0.0915
  144OSM    H2S15804   1.641   5.874   6.325 -0.6800  1.0948  2.4916
  144OSM    C3S15805   1.462   5.922   6.426  0.2520 -0.1881 -0.5240
  144OSM    H3S15806   1.353   5.901   6.415 -0.1695  1.5242 -0.0484
  144OSM     O315807   1.473   6.062   6.399  0.1850  0.2701  0.6071
  144OSM    HO315808   1.469   6.066   6.303  0.6675 -1.1785  0.4985
  144OSM    C4S15809   1.511   5.905   6.564 -0.1463 -0.3159  0.0521
  144OSM    H4S15810   1.602   5.962   6.585 -1.2416  2.2119 -1.6512
  144OSM    C5S15811   1.455   5.839   6.664 -0.2375 -0.3841  0.4827
  144OSM    H5S15812   1.357   5.790   6.655  0.3465 -1.3822 -0.9868
  144OSM    C6S15813   1.517   5.831   6.803  0.3364  0.2175 -0.3053
  144OSM    H6S15814   1.453   5.870   6.885  3.0823  1.7352  1.2823
  144OSM    H6T15815   1.612   5.890   6.806  0.4009  0.0948  1.3211
  144OSM    C7S15816   1.561   5.688   6.839  0.1418  0.2872 -0.2593
  144OSM    H7S15817   1.648   5.648   6.783  1.1478 -2.0050  2.6541
  144OSM    H7T15818   1.481   5.615   6.812  0.8455 -0.3616 -0.6352
  144OSM    C8S15819   1.603   5.664   6.989 -0.3929 -0.3924  0.2341
  144OSM    H8S15820   1.512   5.683   7.050  0.6753  0.4939  1.6098
  144OSM    H8T15821   1.682   5.735   7.018  0.1325 -1.1423  0.6719
  144OSM    C9S15822   1.637   5.520   7.008 -0.5060 -0.2436 -0.2612
  144OSM    H9S15823   1.726   5.485   6.952 -2.4023 -1.9241 -2.4246
  144OSM    H9T15824   1.553   5.457   6.972  0.6864 -2.4476  0.5872
  144OSM   C10S15825   1.667   5.492   7.160 -0.7223 -0.1958  0.0968
  144OSM   H10S15826   1.735   5.568   7.204 -1.8299  1.2171 -0.5470
  144OSM   H10T15827   1.724   5.399   7.180 -2.4694 -1.0979  1.2380
  144OSM   C11S15828   1.539   5.479   7.244 -0.3944 -0.3766  0.0938
  144OSM   H11S15829   1.467   5.405   7.203 -1.2230 -0.2693  1.3104
  144OSM   H11T15830   1.496   5.581   7.247 -0.6204 -0.4389 -0.7418
  144OSM   C12S15831   1.554   5.441   7.391  0.2237  0.1580 -0.6621
  144OSM   H12S15832   1.627   5.506   7.443 -1.1047  1.3596 -0.2541
  144OSM   H12T15833   1.609   5.344   7.391 -0.9965 -0.5631 -0.5301
  144OSM   C13S15834   1.417   5.435   7.462 -0.0352  0.0800  0.1662
  144OSM   H13S15835   1.352   5.374   7.395  2.5710 -2.0250 -0.6329
  144OSM   H13T15836   1.367   5.534   7.455  0.4654  0.2332 -1.8950
  144OSM   C14S15837   1.419   5.385   7.606 -0.1738  0.3646 -0.0441
  144OSM   H14S15838   1.485   5.297   7.623 -0.0516  0.6452  0.9452
  144OSM   H14T15839   1.318   5.346   7.635  0.3070 -0.1979  0.9143
  144OSM   C15S15840   1.476   5.485   7.701  0.3491 -0.2837  0.3958
  144OSM   H15S15841   1.405   5.571   7.694  2.3707  1.4670  0.5092
  144OSM   H15T15842   1.577   5.513   7.664  0.0488  0.6772  0.2542
  144OSM   C16S15843   1.484   5.418   7.834  0.0093  0.1058  0.1623
  144OSM   H16S15844   1.548   5.328   7.825 -1.5755 -0.9556 -1.1848
  144OSM   H16T15845   1.391   5.374   7.877 -1.4344  0.4183 -2.4571
  144OSM   C17S15846   1.573   5.490   7.933  0.5318 -0.0164  0.5416
  144OSM   H17S15847   1.583   5.431   8.026 -1.4344  0.3102  1.0066
  144OSM   H17T15848   1.510   5.577   7.961 -0.3582 -0.5067  0.1079
  144OSM   C18S15849   1.704   5.552   7.885 -0.0734 -0.1222 -0.1609
  144OSM   H18S15850   1.776   5.472   7.859  2.3684  2.2206 -1.1194
  144OSM   H18T15851   1.753   5.606   7.969 -0.9017  1.6346 -0.7618
  144OSM   H18U15852   1.687   5.621   7.799  1.2311  0.8549  0.3325
  144OSM    C1F15853   1.623   5.609   6.327  0.0597  0.4314 -0.2002
  144OSM     OF15854   1.725   5.647   6.274  0.0172 -0.7819 -0.2108
  144OSM    C2F15855   1.590   5.462   6.346  0.6071 -0.6900  0.3689
  144OSM    H2F15856   1.587   5.415   6.245  0.4892  0.0281  0.0313
  144OSM    H2G15857   1.487   5.461   6.388  0.5928  1.9772  0.5526
  144OSM    C3F15858   1.696   5.388   6.429 -0.0232  0.0741 -0.1682
  144OSM    H3F15859   1.793   5.437   6.407 -0.3310  0.3016 -1.0682
  144OSM    H3G15860   1.703   5.278   6.414  1.9444  0.1096  0.2336
  144OSM    C4F15861   1.680   5.400   6.584 -0.2034 -0.2569 -0.5071
  144OSM    H4F15862   1.594   5.340   6.620 -2.5657  2.1454 -1.7555
  144OSM    H4G15863   1.653   5.503   6.616  0.1165 -0.2838 -0.1431
  144OSM    C5F15864   1.804   5.366   6.673  0.0355 -0.7353 -0.2837
  144OSM    H5F15865   1.782   5.399   6.777  2.9770  0.4313  0.0722
  144OSM    H5G15866   1.896   5.408   6.629 -1.2654  0.0083 -2.4640
  144OSM    C6F15867   1.833   5.216   6.692  0.4369  0.0953 -0.3720
  144OSM    H6F15868   1.863   5.167   6.597 -1.2160  0.1085 -0.9404
  144OSM    H6G15869   1.734   5.173   6.718  0.9785 -1.2890 -0.4910
  144OSM    C7F15870   1.940   5.200   6.807  0.4367  0.4057  0.3115
  144OSM    H7F15871   1.911   5.246   6.904 -0.7751 -0.1571  0.2386
  144OSM    H7G15872   2.033   5.250   6.774  0.8426 -0.3079  0.3451
  144OSM    C8F15873   1.976   5.055   6.831 -0.7883 -0.2457  0.2306
  144OSM    H8F15874   2.058   5.057   6.906  0.1556 -0.9672 -0.7554
  144OSM    H8G15875   2.010   5.017   6.732  1.0173  2.7820 -0.4405
  144OSM    C9F15876   1.872   4.960   6.888 -0.7650 -0.2484  0.8066
  144OSM    H9F15877   1.826   4.883   6.824 -0.4695  0.2511 -0.0169
  144OSM   C10F15878   1.820   4.961   7.012 -0.2068  0.3801  1.1042
  144OSM   H10F15879   1.744   4.882   7.020 -0.9774  0.7518 -1.5443
  144OSM   C11F15880   1.839   5.055   7.125  0.4189 -0.5536  0.0780
  144OSM   H11F15881   1.744   5.075   7.178  1.7989 -0.8297  2.8660
  144OSM   H11G15882   1.892   5.146   7.091 -2.0353  0.9607  0.0702
  144OSM   C12F15883   1.919   4.983   7.235  0.1116 -0.7103  0.0861
  144OSM   H12F15884   1.925   5.047   7.326  1.0677 -0.2343 -0.2957
  144OSM   H12G15885   2.027   4.971   7.212  1.4081  5.6358  0.8978
  144OSM   C13F15886   1.846   4.855   7.281  0.5983 -0.0633 -0.9809
  144OSM   H13F15887   1.868   4.768   7.216  1.4839 -0.7930  0.2333
  144OSM   H13G15888   1.735   4.863   7.285  0.3263 -2.8783 -0.5083
  144OSM   C14F15889   1.895   4.807   7.422  0.0111 -0.4062  0.1344
  144OSM   H14F15890   2.006   4.799   7.411  0.0476  0.7964 -0.5768
  144OSM   H14G15891   1.858   4.704   7.443 -0.8189  0.0122  0.7645
  144OSM   C15F15892   1.844   4.889   7.542  0.5230  0.1324 -0.6756
  144OSM   H15F15893   1.733   4.884   7.539  0.5035 -0.1831  0.2733
  144OSM   H15G15894   1.884   4.992   7.532  3.7492 -0.5533  3.1268
  144OSM   C16F15895   1.905   4.850   7.672 -0.1116  0.4717 -0.4967
  144OSM   H16F15896   2.016   4.857   7.673  0.1459 -1.8741  2.1399
  144OSM   H16G15897   1.873   4.743   7.674  3.0303 -0.5917 -0.9388
  144OSM   C17F15898   1.837   4.921   7.795  0.0062  0.6748  0.2021
  144OSM   H17F15899   1.728   4.901   7.789  0.1805 -0.0474 -0.7908
  144OSM   H17G15900   1.857   5.030   7.796  1.3109  0.4586  1.3743
  144OSM   C18F15901   1.883   4.864   7.926 -0.4924 -0.0091 -0.4453
  144OSM   H18F15902   1.838   4.926   8.007  0.8780  0.3802  0.0404
  144OSM   H18G15903   1.992   4.879   7.936 -0.5102  1.6853 -2.2212
  144OSM   H18H15904   1.843   4.761   7.933 -2.0473  0.6582  1.4887
  145SAPE     N15905   2.680   4.185  10.942 -0.3230  1.0935  0.5304
  145SAPE   HN115906   2.662   4.281  10.907 -2.5302 -0.5016 -3.3889
  145SAPE   HN215907   2.732   4.174  11.031 -0.0050 -0.0108  0.2195
  145SAPE   HN315908   2.738   4.140  10.869 -1.2248  1.5941 -0.5290
  145SAPE   C1215909   2.538   4.125  10.932  0.1885  0.6649  0.4240
  145SAPE  H12A15910   2.470   4.181  10.998 -0.5053 -1.4191  1.5626
  145SAPE  H12B15911   2.552   4.022  10.971  2.6729  0.9893  0.5893
  145SAPE   C1115912   2.480   4.134  10.781  0.2680 -0.1936 -0.8590
  145SAPE  H11A15913   2.378   4.090  10.787  1.0104 -1.8994  0.0196
  145SAPE  H11B15914   2.543   4.070  10.715  1.7002 -0.7841  0.9842
  145SAPE     P15915   2.364   4.368  10.707 -0.1514 -0.0597  0.2361
  145SAPE   O1315916   2.309   4.400  10.837  0.0589  0.2304  0.3397
  145SAPE   O1415917   2.412   4.481  10.618 -0.5998  0.0916 -0.2066
  145SAPE   O1215918   2.478   4.269  10.743  0.3466 -0.1165  0.7478
  145SAPE   O1115919   2.266   4.276  10.626 -0.0785  1.0133 -0.6192
  145SAPE    C115920   2.291   4.231  10.496  0.6072 -0.4342 -0.7227
  145SAPE    HA15921   2.398   4.251  10.473  0.3849  2.7142  0.3927
  145SAPE    HB15922   2.287   4.120  10.487  0.1276 -0.7006  1.9617
  145SAPE    C215923   2.200   4.301  10.394  0.5667 -0.0364 -0.2951
  145SAPE    HS15924   2.219   4.260  10.293 -0.2775  0.0517 -0.4972
  145SAPE   O2115925   2.221   4.440  10.388  0.1428  0.2881 -0.2350
  145SAPE   C2115926   2.335   4.485  10.348  0.1423  0.5025  0.0377
  145SAPE   O2215927   2.430   4.423  10.300 -0.3095  0.5902  0.0068
  145SAPE   C2215928   2.321   4.638  10.349  0.7827 -0.3257 -0.3171
  145SAPE   H2R15929   2.215   4.669  10.340  0.8483 -0.3630 -1.4280
  145SAPE   H2S15930   2.342   4.672  10.452  0.5464 -1.1435  0.0054
  145SAPE    C315931   2.053   4.271  10.421  1.0639  0.0615 -0.1173
  145SAPE    HX15932   2.036   4.319  10.519  0.7293  1.4896 -0.8418
  145SAPE    HY15933   2.046   4.160  10.419 -0.6802  0.1421 -2.4090
  145SAPE   O3115934   1.967   4.328  10.321 -0.6466  0.2595  0.0365
  145SAPE   C3115935   1.849   4.371  10.359 -0.5518 -0.0450 -0.1131
  145SAPE   O3215936   1.807   4.365  10.473 -0.2519 -0.1171  0.3342
  145SAPE   C3215937   1.792   4.448  10.251  0.0452  0.5826 -0.5302
  145SAPE   H2X15938   1.784   4.388  10.158 -1.0595 -1.1614  0.6232
  145SAPE   H2Y15939   1.858   4.536  10.240  0.7853 -0.1871 -2.6755
  145SAPE   C2315940   2.422   4.704  10.255  0.0401  0.3762  0.5367
  145SAPE   H3R15941   2.520   4.653  10.255  1.2482  2.5869 -0.7637
  145SAPE   H3S15942   2.447   4.801  10.304 -1.8179  1.5510 -0.7155
  145SAPE   C2415943   2.372   4.709  10.114 -0.2761  0.2103 -0.3582
  145SAPE   H4R15944   2.432   4.789  10.065  2.0273 -0.8675  0.5403
  145SAPE   H4S15945   2.270   4.749  10.126 -0.7549 -1.0298 -0.1985
  145SAPE   C2515946   2.370   4.583  10.033  0.6347  0.4654 -0.5616
  145SAPE   H5R15947   2.466   4.554   9.988  0.8788  0.1587  0.1399
  145SAPE   C2615948   2.272   4.490  10.017 -0.8722  0.0992 -0.3636
  145SAPE   H6R15949   2.291   4.402   9.953 -2.5696 -1.8376  1.6197
  145SAPE   C2715950   2.134   4.498  10.073 -0.4732  0.6082 -0.0960
  145SAPE   H7R15951   2.127   4.587  10.140  2.2254 -0.2635  1.4957
  145SAPE   H7S15952   2.114   4.409  10.136 -0.7923  0.4934 -0.3587
  145SAPE   C2815953   2.016   4.490   9.976 -0.0932  0.8847  0.1012
  145SAPE   H8R15954   1.968   4.391   9.963  0.0270  0.8087  0.2451
  145SAPE   C2915955   1.962   4.602   9.923 -0.1235  0.2619 -0.7870
  145SAPE   H9R15956   1.872   4.591   9.859 -0.5535  1.5752 -0.4438
  145SAPE  C21015957   2.000   4.743   9.958 -0.3101 -0.0133  0.3477
  145SAPE  H10R15958   2.109   4.753   9.936  0.3483 -0.7019  2.9260
  145SAPE  H10S15959   1.991   4.757  10.068  2.9047 -1.1156  0.8903
  145SAPE  C21115960   1.915   4.845   9.878  0.8941  0.2061 -0.7179
  145SAPE  H11R15961   1.849   4.903   9.944  0.4583  0.1194 -1.0700
  145SAPE  C21215962   1.934   4.874   9.747  0.2449 -1.3159  0.2592
  145SAPE  H12R15963   1.866   4.945   9.698 -0.8670 -0.6329  2.6546
  145SAPE  C21315964   2.038   4.822   9.647  0.3766  0.2217  0.6553
  145SAPE  H13R15965   2.123   4.770   9.697  1.7687  1.0763 -0.7246
  145SAPE  H13S15966   2.071   4.919   9.603 -0.2942 -0.6087 -1.8500
  145SAPE  C21415967   1.988   4.710   9.554  0.1529 -0.3961 -0.3116
  145SAPE  H14R15968   1.908   4.646   9.593  0.8241 -2.5282 -2.2409
  145SAPE  C21515969   2.056   4.656   9.454  0.1564 -0.6647 -0.0144
  145SAPE  H15R15970   2.015   4.571   9.397 -0.2736  1.2540 -2.7210
  145SAPE  C21615971   2.191   4.691   9.410  0.5146 -0.2328  0.0395
  145SAPE  H16R15972   2.211   4.798   9.435 -0.0188 -0.1894  0.2848
  145SAPE  H16S15973   2.186   4.699   9.299 -1.4601 -0.7970  0.0458
  145SAPE  C21715974   2.307   4.602   9.454  0.6686 -0.1802  0.0043
  145SAPE  H17R15975   2.392   4.621   9.385 -0.6406 -0.2690 -1.6944
  145SAPE  H17S15976   2.271   4.497   9.455 -0.1935  0.0806  2.3171
  145SAPE  C21815977   2.358   4.635   9.596 -0.1644  0.7721 -0.2587
  145SAPE  H18R15978   2.434   4.563   9.634  1.4273  1.7511 -1.4550
  145SAPE  H18S15979   2.274   4.625   9.668  1.7438  0.7237  2.0764
  145SAPE  C21915980   2.432   4.777   9.596  0.0903  0.7292 -0.6780
  145SAPE  H19R15981   2.364   4.848   9.544 -1.1357 -1.2324 -1.8448
  145SAPE  H19S15982   2.526   4.763   9.539 -0.5677 -2.2687 -1.1755
  145SAPE  C22015983   2.454   4.841   9.740  0.0183  0.5748  0.6133
  145SAPE  H20R15984   2.521   4.774   9.798  0.1151  0.1889  0.0568
  145SAPE  H20S15985   2.356   4.840   9.793 -0.6894 -3.2581 -0.4308
  145SAPE  H20T15986   2.503   4.939   9.725  1.0846 -0.3780 -3.4120
  145SAPE   C3315987   1.664   4.531  10.282  0.5580 -0.1426  0.5119
  145SAPE   H3X15988   1.661   4.596  10.372  1.9518  2.8162 -1.3975
  145SAPE   H3Y15989   1.577   4.463  10.284 -0.0784  0.5274 -1.4777
  145SAPE   C3415990   1.637   4.629  10.166  0.6766  0.8968  0.7624
  145SAPE   H4X15991   1.728   4.684  10.136  0.3896  0.4365 -1.0956
  145SAPE   H4Y15992   1.564   4.700  10.212 -0.5075 -0.1260  0.5217
  145SAPE   C3515993   1.584   4.549  10.044 -0.1101  0.0856  0.1433
  145SAPE   H5X15994   1.478   4.524  10.068 -0.9672  0.6965 -2.6272
  145SAPE   H5Y15995   1.643   4.458  10.023 -1.1825 -0.5428 -0.2487
  145SAPE   C3615996   1.583   4.638   9.925 -0.5751 -0.0474  0.2359
  145SAPE   H6X15997   1.671   4.706   9.931 -1.6300  1.5522 -1.3995
  145SAPE   H6Y15998   1.501   4.713   9.921 -0.6713 -0.1981 -1.0036
  145SAPE   C3715999   1.579   4.569   9.786  0.4406 -0.2894 -1.1772
  145SAPE   H7X16000   1.492   4.500   9.783  0.2153  0.0062 -1.4664
  145SAPE   H7Y16001   1.670   4.506   9.788  0.2120 -0.6132  0.6824
  145SAPE   C3816002   1.566   4.666   9.669  0.2985 -0.1834 -0.6024
  145SAPE   H8X16003   1.636   4.750   9.686  0.6309 -0.8029  1.3264
  145SAPE   H8Y16004   1.471   4.716   9.642  0.8707  0.5808 -1.2179
  145SAPE   C3916005   1.626   4.599   9.541 -0.4441 -0.4289  0.0320
  145SAPE   H9X16006   1.583   4.501   9.513  0.4258 -1.2005  1.2628
  145SAPE   H9Y16007   1.725   4.572   9.585 -1.0723 -1.0614  1.1050
  145SAPE  C31016008   1.625   4.700   9.427 -0.6104 -0.2342 -0.1717
  145SAPE  H10X16009   1.682   4.787   9.465  0.3029 -1.3012  1.0212
  145SAPE  H10Y16010   1.522   4.739   9.415 -0.3218  0.7087  0.3140
  145SAPE  C31116011   1.701   4.640   9.304  0.3629 -0.9281  0.1344
  145SAPE  H11X16012   1.629   4.565   9.264 -0.4373  0.4739 -1.1922
  145SAPE  H11Y16013   1.788   4.579   9.337  0.7361 -0.7497 -0.5012
  145SAPE  C31216014   1.737   4.732   9.184 -0.5587 -0.3719 -0.0944
  145SAPE  H12X16015   1.816   4.801   9.218 -1.2101  0.6969 -0.6966
  145SAPE  H12Y16016   1.648   4.790   9.153  1.8906  2.6124 -2.1550
  145SAPE  C31316017   1.789   4.662   9.059 -0.5172  0.5394 -0.0262
  145SAPE  H13X16018   1.832   4.567   9.098 -1.0991  0.7556  1.1959
  145SAPE  H13Y16019   1.877   4.713   9.016  0.1462  0.3002  1.0205
  145SAPE  C31416020   1.680   4.639   8.955  0.5652 -0.2420 -0.0203
  145SAPE  H14X16021   1.654   4.730   8.898  1.5986  0.8659  1.2042
  145SAPE  H14Y16022   1.589   4.589   8.995  1.3131 -2.1218 -0.5665
  145SAPE  C31516023   1.734   4.533   8.860 -0.5653 -0.0227 -0.4553
  145SAPE  H15X16024   1.775   4.450   8.922 -0.5017  1.0973  1.0561
  145SAPE  H15Y16025   1.820   4.577   8.806 -1.9380  0.9263 -1.9459
  145SAPE  C31616026   1.640   4.491   8.755 -0.1579 -0.0807  0.1601
  145SAPE  H16X16027   1.591   4.576   8.703  3.1245  2.3085  0.6106
  145SAPE  H16Y16028   1.557   4.433   8.800 -0.3822 -0.2308 -0.4353
  145SAPE  C31716029   1.702   4.405   8.647  0.6090 -0.0642 -0.1819
  145SAPE  H17X16030   1.791   4.449   8.597 -0.2782  1.6639 -0.3301
  145SAPE  H17Y16031   1.637   4.390   8.558  1.1671  1.0479 -0.8148
  145SAPE  C31816032   1.742   4.271   8.690  0.1507  0.0252 -0.2195
  145SAPE  H18X16033   1.779   4.213   8.602 -1.3311  0.1766 -0.9731
  145SAPE  H18Y16034   1.675   4.212   8.756  1.4195  0.8237  1.9028
  145SAPE  H18Z16035   1.826   4.285   8.762 -0.8766  2.0923  0.6613
  146SAPE     N16036   1.428   3.576  10.826  0.3089 -0.3046  0.0355
  146SAPE   HN116037   1.501   3.527  10.882  1.0489  2.2152  1.4422
  146SAPE   HN216038   1.466   3.667  10.791 -0.4962 -0.0878 -0.2904
  146SAPE   HN316039   1.345   3.592  10.886  1.6064 -0.7426  2.0411
  146SAPE   C1216040   1.392   3.494  10.707  0.5271 -0.4221  0.3656
  146SAPE  H12A16041   1.337   3.404  10.743 -1.9854  0.7314 -0.3751
  146SAPE  H12B16042   1.481   3.452  10.656  0.1113  0.3783 -1.0720
  146SAPE   C1116043   1.321   3.580  10.598  0.0692 -0.2586 -0.6476
  146SAPE  H11A16044   1.315   3.526  10.501 -1.8372  0.5790 -1.0418
  146SAPE  H11B16045   1.385   3.667  10.572  2.1765 -1.3923  0.5295
  146SAPE     P16046   1.071   3.516  10.649 -0.0583 -0.0630  0.3655
  146SAPE   O1316047   1.113   3.395  10.729 -0.0411 -0.2385  0.0246
  146SAPE   O1416048   0.937   3.573  10.686  0.1169 -0.4312 -0.3790
  146SAPE   O1216049   1.190   3.621  10.642  0.1009 -0.3461 -0.2928
  146SAPE   O1116050   1.062   3.468  10.502  0.0256  0.3354  0.0708
  146SAPE    C116051   1.026   3.576  10.412 -0.3308 -0.2098  0.0804
  146SAPE    HA16052   0.932   3.630  10.436 -0.9658  0.0934 -2.7628
  146SAPE    HB16053   1.107   3.652  10.413  0.0833 -0.6435 -0.2051
  146SAPE    C216054   1.027   3.538  10.262  0.2863 -0.2532  0.4909
  146SAPE    HS16055   1.037   3.621  10.188 -0.6904 -1.2333 -0.8049
  146SAPE   O2116056   0.907   3.468  10.231 -0.3708 -0.0292 -0.2024
  146SAPE   C2116057   0.798   3.535  10.198 -0.3108 -0.1293  0.4129
  146SAPE   O2216058   0.791   3.659  10.176 -0.3287  0.3083  0.2909
  146SAPE   C2216059   0.687   3.425  10.180 -0.7306  0.2034  0.2436
  146SAPE   H2R16060   0.714   3.329  10.229 -0.0963 -1.4388 -3.0024
  146SAPE   H2S16061   0.603   3.461  10.244  0.8973  0.8544  2.1086
  146SAPE    C316062   1.148   3.442  10.239  0.0098  0.2725 -0.5203
  146SAPE    HX16063   1.122   3.348  10.291  0.3768  1.2599  1.5790
  146SAPE    HY16064   1.239   3.477  10.291  0.1194 -1.1298  0.2768
  146SAPE   O3116065   1.173   3.426  10.100 -0.0135  0.2802 -0.1143
  146SAPE   C3116066   1.225   3.313  10.066 -0.1120 -0.0519  0.1095
  146SAPE   O3216067   1.267   3.230  10.140  0.6449  1.0795  0.3360
  146SAPE   C3216068   1.215   3.303   9.905  0.3560  0.3649 -0.2196
  146SAPE   H2X16069   1.253   3.399   9.862 -0.3650  0.7312 -0.0550
  146SAPE   H2Y16070   1.107   3.280   9.894  0.3886 -2.0314  3.1116
  146SAPE   C2316071   0.656   3.408  10.030  0.3815  0.3854 -0.3219
  146SAPE   H3R16072   0.606   3.503   9.999  1.8678  1.3131  0.0242
  146SAPE   H3S16073   0.589   3.322  10.012  1.0601 -0.1937 -0.1284
  146SAPE   C2416074   0.781   3.378   9.939 -0.8684 -0.2612  0.3572
  146SAPE   H4R16075   0.742   3.320   9.853  0.2611 -0.0813 -0.2960
  146SAPE   H4S16076   0.850   3.323  10.007  0.1396  0.2057 -0.2694
  146SAPE   C2516077   0.852   3.493   9.875 -1.0031 -0.2038 -0.0505
  146SAPE   H5R16078   0.898   3.562   9.948 -0.4030 -1.8233  1.1852
  146SAPE   C2616079   0.856   3.533   9.747  0.1911  0.3381 -0.9355
  146SAPE   H6R16080   0.912   3.623   9.720  0.3498  0.2208 -0.9975
  146SAPE   C2716081   0.782   3.464   9.638 -0.4643 -0.0487 -0.2924
  146SAPE   H7R16082   0.683   3.433   9.680 -0.3667  1.3529  1.1058
  146SAPE   H7S16083   0.829   3.378   9.588  0.3668  1.1324 -1.6022
  146SAPE   C2816084   0.754   3.575   9.541  0.3228 -0.1088  0.3427
  146SAPE   H8R16085   0.696   3.659   9.583  0.2728  0.1473 -0.2283
  146SAPE   C2916086   0.779   3.565   9.407 -0.4554 -0.3057  0.2065
  146SAPE   H9R16087   0.767   3.651   9.340  3.1107  0.2244  0.0911
  146SAPE  C21016088   0.842   3.442   9.338  0.6342 -0.2231 -0.0499
  146SAPE  H10R16089   0.774   3.355   9.346 -0.2604  0.4024 -0.6262
  146SAPE  H10S16090   0.924   3.397   9.397  0.9875 -1.0199 -1.1140
  146SAPE  C21116091   0.899   3.457   9.202  0.3253 -0.2206 -0.4090
  146SAPE  H11R16092   0.949   3.553   9.182 -0.9884  0.1424 -2.1650
  146SAPE  C21216093   0.880   3.376   9.098  0.3075 -0.3596 -0.3662
  146SAPE  H12R16094   0.941   3.402   9.010  0.2985 -1.5210 -0.7427
  146SAPE  C21316095   0.805   3.242   9.088 -0.6425 -0.1223  0.0912
  146SAPE  H13R16096   0.852   3.179   9.166  0.6258 -1.2818 -1.5587
  146SAPE  H13S16097   0.819   3.206   8.984  2.9494 -0.7790  0.6884
  146SAPE  C21416098   0.657   3.248   9.099  0.0347  0.6971 -0.5100
  146SAPE  H14R16099   0.621   3.276   9.199 -1.2178  0.8690 -0.9817
  146SAPE  C21516100   0.553   3.242   9.011 -0.4496  0.2546  0.5814
  146SAPE  H15R16101   0.451   3.251   9.051 -0.8961 -2.1583  0.1213
  146SAPE  C21616102   0.562   3.206   8.860 -0.0285  0.7348  0.0906
  146SAPE  H16R16103   0.577   3.097   8.840  1.6587  0.6434  1.6307
  146SAPE  H16S16104   0.645   3.252   8.803 -0.2871  0.4842 -0.4915
  146SAPE  C21716105   0.432   3.246   8.785  0.9904 -0.0779 -0.4409
  146SAPE  H17R16106   0.417   3.355   8.802  1.2545  0.0800 -1.1853
  146SAPE  H17S16107   0.349   3.183   8.823  1.3884 -0.0376  0.5214
  146SAPE  C21816108   0.459   3.236   8.627 -0.1733  0.0712 -0.7723
  146SAPE  H18R16109   0.453   3.130   8.594 -0.8253 -0.5157  1.1239
  146SAPE  H18S16110   0.562   3.271   8.604  0.6864 -1.7714  0.1144
  146SAPE  C21916111   0.351   3.298   8.540 -0.6418  0.8874  0.9249
  146SAPE  H19R16112   0.394   3.295   8.438 -2.0023 -0.4294  0.3483
  146SAPE  H19S16113   0.345   3.406   8.567  2.3181  1.8993 -1.8232
  146SAPE  C22016114   0.211   3.243   8.543 -0.3695 -0.5550  0.2689
  146SAPE  H20R16115   0.180   3.241   8.650  1.4110 -1.3858  0.8002
  146SAPE  H20S16116   0.200   3.146   8.491  0.0711  1.3846 -3.7844
  146SAPE  H20T16117   0.143   3.317   8.496 -0.4652 -0.8259 -0.0181
  146SAPE   C3316118   1.302   3.194   9.839 -0.7713 -0.1451 -1.2572
  146SAPE   H3X16119   1.265   3.093   9.867  1.4612 -0.2291  1.9231
  146SAPE   H3Y16120   1.401   3.207   9.887 -0.4244 -5.2278 -0.1239
  146SAPE   C3416121   1.323   3.199   9.685 -0.4304 -0.1667 -0.0193
  146SAPE   H4X16122   1.370   3.105   9.649 -1.4174 -1.0857  1.0153
  146SAPE   H4Y16123   1.389   3.283   9.653 -0.7521  0.2235  0.3234
  146SAPE   C3516124   1.184   3.234   9.616  0.5212 -0.1551  0.7579
  146SAPE   H5X16125   1.164   3.338   9.653 -0.8252  0.3234 -1.1746
  146SAPE   H5Y16126   1.103   3.163   9.643 -0.8177  0.9616 -0.1704
  146SAPE   C3616127   1.208   3.238   9.458 -0.2237 -0.0778 -0.0151
  146SAPE   H6X16128   1.305   3.291   9.445  1.0030 -2.6488 -2.3341
  146SAPE   H6Y16129   1.128   3.303   9.415 -0.7203 -0.8753 -0.3092
  146SAPE   C3716130   1.200   3.100   9.391 -1.2955  0.1049  0.5592
  146SAPE   H7X16131   1.110   3.049   9.431 -1.5066 -0.2155 -0.3049
  146SAPE   H7Y16132   1.278   3.026   9.418 -0.3706  1.4704  1.8079
  146SAPE   C3816133   1.180   3.107   9.238 -0.4515  0.5234  0.0710
  146SAPE   H8X16134   1.082   3.155   9.218  0.0630  3.3269  3.2998
  146SAPE   H8Y16135   1.194   3.000   9.211  2.8162  0.6334  0.9033
  146SAPE   C3916136   1.287   3.188   9.160  0.0188  0.0795  0.0247
  146SAPE   H9X16137   1.386   3.171   9.207 -0.3256 -0.2824  0.6280
  146SAPE   H9Y16138   1.275   3.299   9.165  0.5167  0.1778 -0.7450
  146SAPE  C31016139   1.277   3.157   9.009 -0.0118  0.2000 -1.1297
  146SAPE  H10X16140   1.301   3.051   8.989 -2.0818 -0.1575 -1.9151
  146SAPE  H10Y16141   1.345   3.221   8.949  0.9831 -1.2596 -1.6256
  146SAPE  C31116142   1.138   3.190   8.947 -0.2055 -0.7307  0.1875
  146SAPE  H11X16143   1.122   3.299   8.929  0.3654 -0.9136 -1.6006
  146SAPE  H11Y16144   1.043   3.153   8.992 -1.6708  1.9574 -0.4817
  146SAPE  C31216145   1.125   3.136   8.803  0.4394 -0.2476 -0.6348
  146SAPE  H12X16146   1.162   3.032   8.810 -1.5285 -0.8863  1.8995
  146SAPE  H12Y16147   1.192   3.205   8.747  0.4278 -0.3741 -0.8076
  146SAPE  C31316148   0.981   3.140   8.754  0.5056 -0.4233 -0.0332
  146SAPE  H13X16149   0.953   3.244   8.778  1.7068 -0.2623  0.8035
  146SAPE  H13Y16150   0.925   3.069   8.818 -2.2892 -0.2734 -2.1314
  146SAPE  C31416151   0.976   3.099   8.604  0.7275  0.3134 -0.0788
  146SAPE  H14X16152   1.024   2.999   8.599  0.3864  0.1831 -0.9497
  146SAPE  H14Y16153   1.047   3.162   8.545  0.5001 -1.8868 -2.9241
  146SAPE  C31516154   0.834   3.100   8.559  0.2883  0.0412  0.2907
  146SAPE  H15X16155   0.783   3.197   8.578  0.0509  0.1828 -0.9722
  146SAPE  H15Y16156   0.785   3.023   8.624  2.1343 -0.4584  1.1581
  146SAPE  C31616157   0.819   3.056   8.415 -0.4314  0.5602 -0.0089
  146SAPE  H16X16158   0.879   2.964   8.399  2.7271  2.3557  0.7620
  146SAPE  H16Y16159   0.873   3.127   8.350 -0.3097  1.9700  1.5562
  146SAPE  C31716160   0.673   3.061   8.362 -0.7753 -0.3924 -0.1925
  146SAPE  H17X16161   0.653   3.170   8.357  1.3180  0.1482  1.4419
  146SAPE  H17Y16162   0.612   3.012   8.441 -3.1459 -1.5827 -2.6121
  146SAPE  C31816163   0.657   2.971   8.245 -0.2700 -0.1531  0.2497
  146SAPE  H18X16164   0.550   2.961   8.219 -0.2804 -2.3004  0.9407
  146SAPE  H18Y16165   0.695   2.868   8.261 -1.7533 -0.4447  2.2614
  146SAPE  H18Z16166   0.714   3.006   8.156  1.6372 -0.4106  1.2992
  147SAPE     N16167   1.393   0.143  10.856 -0.0449  0.1352  0.2384
  147SAPE   HN116168   1.293   0.126  10.881 -0.4323  1.7063 -0.1493
  147SAPE   HN216169   1.402   0.221  10.788  3.2186  1.1745  1.6644
  147SAPE   HN316170   1.424   0.052  10.815  0.1777 -0.2069  1.1364
  147SAPE   C1216171   1.480   0.160  10.972  0.1903  0.5230  0.6501
  147SAPE  H12A16172   1.451   0.085  11.048  0.4460 -0.0106  0.2266
  147SAPE  H12B16173   1.473   0.260  11.021  1.3068  0.6612  0.5493
  147SAPE   C1116174   1.627   0.132  10.944  0.6787  0.8046 -0.6457
  147SAPE  H11A16175   1.677   0.132  11.043 -2.4083 -1.6522  1.1024
  147SAPE  H11B16176   1.665   0.217  10.884  0.5720  1.7025  0.5277
  147SAPE     P16177   1.776  -0.036  10.817 -0.5546  0.4818  0.0785
  147SAPE   O1316178   1.880   0.069  10.824  0.3184  0.7433  0.5616
  147SAPE   O1416179   1.822  -0.165  10.869  0.2950 -0.2733 -0.4566
  147SAPE   O1216180   1.641   0.004  10.890  0.0161 -0.0913 -0.1547
  147SAPE   O1116181   1.724  -0.060  10.670  0.1788 -0.0083  0.1042
  147SAPE    C116182   1.782  -0.163  10.590 -0.6011 -0.2669  0.4075
  147SAPE    HA16183   1.835  -0.242  10.647  0.9080  1.0882  0.9564
  147SAPE    HB16184   1.700  -0.222  10.544 -3.5494  2.8501  1.1988
  147SAPE    C216185   1.878  -0.107  10.494  0.2931 -0.2034 -0.4028
  147SAPE    HS16186   1.970  -0.060  10.537  0.8107 -0.2389 -1.4369
  147SAPE   O2116187   1.811  -0.003  10.424 -0.1693  0.1470 -0.4269
  147SAPE   C2116188   1.888   0.094  10.364  0.1420 -0.0306  0.1213
  147SAPE   O2216189   2.009   0.096  10.364  0.3682 -0.7068 -0.3110
  147SAPE   C2216190   1.796   0.197  10.296 -0.0009 -0.0006  0.3291
  147SAPE   H2R16191   1.759   0.270  10.371 -0.9417 -0.8474  0.7104
  147SAPE   H2S16192   1.851   0.246  10.213 -0.4775  0.0249  0.0234
  147SAPE    C316193   1.927  -0.220  10.396  0.2636 -0.2387  0.2354
  147SAPE    HX16194   1.994  -0.276  10.465  2.5125  1.0552 -0.7945
  147SAPE    HY16195   1.993  -0.173  10.320 -1.3873  2.0427  0.1156
  147SAPE   O3116196   1.824  -0.304  10.331  0.2364 -0.4484 -0.6647
  147SAPE   C3116197   1.802  -0.426  10.390 -0.3758 -0.6752  0.7537
  147SAPE   O3216198   1.860  -0.477  10.479  0.1431 -0.2968 -0.0042
  147SAPE   C3216199   1.699  -0.497  10.298  0.0985  0.1562  0.6084
  147SAPE   H2X16200   1.598  -0.456  10.319  0.1851  0.4275  0.4912
  147SAPE   H2Y16201   1.693  -0.604  10.329 -2.1658 -0.0209 -0.2623
  147SAPE   C2316202   1.672   0.133  10.231 -0.0345  0.3763 -0.4839
  147SAPE   H3R16203   1.596   0.210  10.209  0.0547  0.1428 -1.6517
  147SAPE   H3S16204   1.627   0.062  10.304  1.4944  0.5649  0.7044
  147SAPE   C2416205   1.695   0.068  10.091  0.9845 -0.1117 -0.3794
  147SAPE   H4R16206   1.725   0.156  10.030 -0.2753  1.1951  0.8240
  147SAPE   H4S16207   1.589   0.054  10.060  0.9511 -2.1580  0.4919
  147SAPE   C2516208   1.787  -0.048  10.081 -0.8354  0.8861  0.3171
  147SAPE   H5R16209   1.777  -0.132  10.151 -1.1373  0.7446  0.1077
  147SAPE   C2616210   1.874  -0.079   9.991 -0.1592  0.6750 -0.0231
  147SAPE   H6R16211   1.911  -0.182  10.003 -4.3676 -1.0291  0.0430
  147SAPE   C2716212   1.917  -0.002   9.869  0.3780 -0.6548 -0.1825
  147SAPE   H7R16213   2.027  -0.011   9.859  0.4091  1.1042 -2.5479
  147SAPE   H7S16214   1.886   0.104   9.886 -0.1243 -1.1531  2.4456
  147SAPE   C2816215   1.847  -0.066   9.747  0.4799 -0.2591  0.8552
  147SAPE   H8R16216   1.749  -0.111   9.767  0.7648 -1.0868  0.4189
  147SAPE   C2916217   1.905  -0.048   9.620  0.4010  0.3833 -0.4661
  147SAPE   H9R16218   1.863  -0.110   9.539 -1.6287 -0.2340  0.9738
  147SAPE  C21016219   2.039   0.008   9.581 -0.1572  0.3423 -0.3490
  147SAPE  H10R16220   2.082   0.045   9.677 -1.0676  0.0884  0.1734
  147SAPE  H10S16221   2.024   0.095   9.513  1.2372  1.1227  0.2909
  147SAPE  C21116222   2.133  -0.085   9.515  0.0171  0.4495 -0.3597
  147SAPE  H11R16223   2.210  -0.125   9.584 -0.8656  1.6578  1.3893
  147SAPE  C21216224   2.157  -0.089   9.384 -0.4339  0.0241  0.3207
  147SAPE  H12R16225   2.227  -0.168   9.353  0.1285  0.2377  1.0275
  147SAPE  C21316226   2.079  -0.017   9.273 -0.0932 -0.5923 -0.5580
  147SAPE  H13R16227   2.124   0.080   9.242  1.7596 -1.1240  0.3468
  147SAPE  H13S16228   1.973  -0.005   9.304  0.3689 -1.2594  1.4350
  147SAPE  C21416229   2.071  -0.108   9.156 -0.0914  0.3346  0.6498
  147SAPE  H14R16230   1.975  -0.161   9.152  1.5197 -2.7198 -0.7562
  147SAPE  C21516231   2.147  -0.117   9.049 -0.7635 -0.1765  0.0074
  147SAPE  H15R16232   2.125  -0.184   8.965  1.0484  2.0539 -2.4413
  147SAPE  C21616233   2.270  -0.040   9.019 -0.4440 -0.5304  0.9411
  147SAPE  H16R16234   2.341  -0.049   9.105  1.1079  2.4110  0.0972
  147SAPE  H16S16235   2.243   0.067   9.008 -1.6165 -0.8880  0.2585
  147SAPE  C21716236   2.351  -0.069   8.883 -0.4663  0.2579  0.7435
  147SAPE  H17R16237   2.382  -0.175   8.896  0.2225  0.1875 -1.2192
  147SAPE  H17S16238   2.444  -0.010   8.893 -0.3099 -0.2677  2.7945
  147SAPE  C21816239   2.275  -0.059   8.750 -0.3451  0.0212 -0.4769
  147SAPE  H18R16240   2.219   0.037   8.737 -1.2538 -0.5097 -0.5281
  147SAPE  H18S16241   2.194  -0.134   8.761 -0.0859 -0.0036  1.5920
  147SAPE  C21916242   2.365  -0.097   8.632  0.5530  0.4821 -0.1865
  147SAPE  H19R16243   2.431  -0.185   8.649 -0.8362 -0.8347 -1.3293
  147SAPE  H19S16244   2.438  -0.016   8.616 -1.4560  1.8019 -3.5949
  147SAPE  C22016245   2.286  -0.119   8.500  0.1815 -0.0662  0.2785
  147SAPE  H20R16246   2.202  -0.191   8.511 -1.2343  0.8380 -3.2372
  147SAPE  H20S16247   2.354  -0.143   8.415  0.5653  2.0049 -0.0566
  147SAPE  H20T16248   2.229  -0.027   8.477  0.2539 -0.1762 -0.3665
  147SAPE   C3316249   1.731  -0.485  10.150 -0.6658  0.4593 -0.1359
  147SAPE   H3X16250   1.727  -0.381  10.112 -1.3210  1.0120  1.4036
  147SAPE   H3Y16251   1.650  -0.529  10.088 -1.5337  1.4841  0.2439
  147SAPE   C3416252   1.868  -0.544  10.118 -0.7316 -1.0191 -0.3384
  147SAPE   H4X16253   1.880  -0.645  10.162  0.3662 -0.1973  1.3226
  147SAPE   H4Y16254   1.949  -0.480  10.158  0.8656 -1.9235 -1.9609
  147SAPE   C3516255   1.890  -0.562   9.964 -0.4777  0.3011 -0.2804
  147SAPE   H5X16256   1.804  -0.620   9.925  0.7562 -0.7176 -1.5645
  147SAPE   H5Y16257   1.981  -0.620   9.937 -0.8466  0.7556 -2.7028
  147SAPE   C3616258   1.896  -0.430   9.888  0.1022 -0.2160  0.0746
  147SAPE   H6X16259   1.988  -0.373   9.912  0.1197 -0.7200  1.2550
  147SAPE   H6Y16260   1.813  -0.365   9.923 -1.3303 -1.5223 -0.7909
  147SAPE   C3716261   1.873  -0.454   9.738  0.2545 -0.5760  0.1154
  147SAPE   H7X16262   1.841  -0.353   9.703  0.0919  0.0713  2.0178
  147SAPE   H7Y16263   1.781  -0.515   9.723 -3.1005  3.4033  2.4468
  147SAPE   C3816264   1.996  -0.498   9.658 -0.0670  0.0783  1.1860
  147SAPE   H8X16265   2.017  -0.605   9.680  0.6527 -0.1269 -0.3262
  147SAPE   H8Y16266   2.081  -0.438   9.698 -0.8427  1.5069  0.7855
  147SAPE   C3916267   1.975  -0.457   9.513  0.4261  0.2437 -0.0488
  147SAPE   H9X16268   1.933  -0.356   9.495 -1.1589 -0.6142 -1.3788
  147SAPE   H9Y16269   1.902  -0.533   9.478  2.4646 -1.1759 -1.4580
  147SAPE  C31016270   2.105  -0.483   9.439  0.3666 -0.4154 -0.0684
  147SAPE  H10X16271   2.159  -0.569   9.484 -0.4181 -2.3403 -2.5774
  147SAPE  H10Y16272   2.167  -0.392   9.456  0.1985 -0.3503  0.1968
  147SAPE  C31116273   2.093  -0.495   9.288 -0.0417  0.3422  0.3301
  147SAPE  H11X16274   2.029  -0.410   9.256 -0.3261  0.6088  1.5370
  147SAPE  H11Y16275   2.057  -0.598   9.272 -1.7737  0.8610  0.6962
  147SAPE  C31216276   2.236  -0.486   9.226 -0.9182  0.0828 -0.7268
  147SAPE  H12X16277   2.296  -0.561   9.281  0.3037  1.0636 -0.6622
  147SAPE  H12Y16278   2.281  -0.386   9.245  0.9934 -0.9808  0.7244
  147SAPE  C31316279   2.235  -0.537   9.079 -0.0700 -0.1636  0.4574
  147SAPE  H13X16280   2.200  -0.642   9.083  0.9443 -0.5855 -0.8501
  147SAPE  H13Y16281   2.337  -0.536   9.033 -0.9579  2.0727 -1.6991
  147SAPE  C31416282   2.151  -0.451   8.981  0.1647  0.7314  0.1108
  147SAPE  H14X16283   2.210  -0.366   8.942 -0.4996  0.8665 -0.6379
  147SAPE  H14Y16284   2.063  -0.403   9.028 -0.0832 -0.7353  1.2273
  147SAPE  C31516285   2.100  -0.534   8.865  0.2924 -0.2573  0.0805
  147SAPE  H15X16286   2.010  -0.477   8.831 -0.3869  1.2147  3.8449
  147SAPE  H15Y16287   2.053  -0.629   8.901  2.7855 -1.6080 -0.0488
  147SAPE  C31616288   2.194  -0.570   8.741 -0.9331 -0.2680 -1.1636
  147SAPE  H16X16289   2.134  -0.650   8.693  0.5869 -2.2962  0.1814
  147SAPE  H16Y16290   2.290  -0.618   8.770 -0.6288  0.1513 -1.4611
  147SAPE  C31716291   2.224  -0.452   8.649 -0.1673 -0.7846 -0.0610
  147SAPE  H17X16292   2.274  -0.369   8.703  1.5595 -2.4258  0.9875
  147SAPE  H17Y16293   2.124  -0.424   8.611 -0.8810 -3.1538 -0.1363
  147SAPE  C31816294   2.315  -0.491   8.530 -0.1791  0.0723 -0.5250
  147SAPE  H18X16295   2.408  -0.533   8.572 -1.4838 -0.3471  2.1529
  147SAPE  H18Y16296   2.335  -0.403   8.464 -0.3069  0.4768 -0.0291
  147SAPE  H18Z16297   2.265  -0.560   8.459 -0.5030  1.2899 -1.5267
  148SAPE     N16298   3.744   0.276  10.634  0.0388 -0.4794  0.3088
  148SAPE   HN116299   3.785   0.319  10.548 -0.3213 -1.0760 -0.1688
  148SAPE   HN216300   3.757   0.173  10.636 -0.8150 -0.5802  0.8478
  148SAPE   HN316301   3.642   0.298  10.633 -0.0320 -0.7626 -0.7459
  148SAPE   C1216302   3.818   0.363  10.732 -0.3932  0.0814 -0.6838
  148SAPE  H12A16303   3.832   0.289  10.814 -1.2032  0.0450 -0.5690
  148SAPE  H12B16304   3.749   0.445  10.760  2.0274  2.6135 -1.5838
  148SAPE   C1116305   3.943   0.427  10.678  0.7477  0.1405  0.4314
  148SAPE  H11A16306   4.014   0.346  10.650 -0.4206 -0.1744 -1.8957
  148SAPE  H11B16307   3.994   0.472  10.766 -0.8681  0.1963  1.3684
  148SAPE     P16308   3.929   0.489  10.415 -0.0096 -0.6057 -0.2469
  148SAPE   O1316309   3.856   0.367  10.396 -0.9464  0.0390  0.1187
  148SAPE   O1416310   3.891   0.615  10.340  0.1281 -0.2041 -0.2702
  148SAPE   O1216311   3.917   0.521  10.568 -0.4835 -0.2336  0.0275
  148SAPE   O1116312   4.080   0.462  10.394  0.4720  0.5429 -0.3088
  148SAPE    C116313   4.135   0.333  10.376 -0.5238  0.1011  0.5364
  148SAPE    HA16314   4.240   0.325  10.412 -0.4709  2.6699  1.1569
  148SAPE    HB16315   4.080   0.251  10.428 -1.3176  1.3777  1.8071
  148SAPE    C216316   4.150   0.282  10.232 -0.0242  0.2469 -0.3190
  148SAPE    HS16317   4.235   0.211  10.225  1.3954  1.4199  3.0127
  148SAPE   O2116318   4.175   0.390  10.148  0.2235  0.0210  0.4678
  148SAPE   C2116319   4.289   0.449  10.147 -0.6159 -0.5637  0.3389
  148SAPE   O2216320   4.391   0.416  10.208  0.3953 -0.3462  0.2191
  148SAPE   C2216321   4.269   0.569  10.053 -0.1735  0.1735 -0.0083
  148SAPE   H2R16322   4.161   0.584  10.029 -0.7401  0.0506  2.1769
  148SAPE   H2S16323   4.312   0.651  10.114 -1.7740  0.0668  1.3646
  148SAPE    C316324   4.025   0.205  10.167 -0.5632  0.8062 -0.8866
  148SAPE    HX16325   3.933   0.267  10.168 -1.1156 -0.0025 -0.8905
  148SAPE    HY16326   4.005   0.123  10.239 -1.0960  1.7671  0.0972
  148SAPE   O3116327   4.062   0.141  10.044  0.2859 -0.3254 -0.0983
  148SAPE   C3116328   3.960   0.108   9.967 -0.9203 -0.1701  0.4191
  148SAPE   O3216329   3.843   0.104   9.994  0.2699 -0.4762 -0.2965
  148SAPE   C3216330   4.011   0.051   9.837 -0.2679  0.4108  0.3727
  148SAPE   H2X16331   4.007  -0.060   9.833  0.7403  0.3978 -2.5946
  148SAPE   H2Y16332   4.118   0.077   9.820  0.1055 -1.7746 -1.2102
  148SAPE   C2316333   4.349   0.552   9.920  0.2897  0.7875 -0.7480
  148SAPE   H3R16334   4.460   0.556   9.930  0.4647  1.1144 -2.4060
  148SAPE   H3S16335   4.338   0.639   9.851  1.0768 -1.5777 -4.1048
  148SAPE   C2416336   4.307   0.415   9.847  0.3972 -0.2210 -0.6591
  148SAPE   H4R16337   4.338   0.322   9.900  0.5584 -2.3556 -4.1847
  148SAPE   H4S16338   4.365   0.400   9.753  1.6517  0.6833 -0.0668
  148SAPE   C2516339   4.154   0.411   9.829  0.0419  0.1553  0.0538
  148SAPE   H5R16340   4.103   0.367   9.915  0.1406  1.6723  0.9311
  148SAPE   C2616341   4.084   0.446   9.720 -0.5574 -0.0056  0.0812
  148SAPE   H6R16342   3.974   0.453   9.723 -0.5258  1.6658 -1.1102
  148SAPE   C2716343   4.148   0.501   9.592 -0.3874  0.3869 -0.1067
  148SAPE   H7R16344   4.072   0.496   9.511 -1.9181  0.7731  1.2509
  148SAPE   H7S16345   4.218   0.419   9.566 -0.3460 -0.2798  1.9020
  148SAPE   C2816346   4.209   0.635   9.606  0.7903 -0.4709 -0.0862
  148SAPE   H8R16347   4.175   0.697   9.691  1.4829  0.5862 -0.5603
  148SAPE   C2916348   4.293   0.686   9.517 -0.3389 -0.5642  0.3089
  148SAPE   H9R16349   4.341   0.781   9.544  0.6994 -1.1471  0.5394
  148SAPE  C21016350   4.347   0.618   9.391 -0.4675  0.2041  0.4365
  148SAPE  H10R16351   4.294   0.522   9.372 -0.2932  0.1627  0.1498
  148SAPE  H10S16352   4.457   0.606   9.404 -0.3502  0.9233  0.1233
  148SAPE  C21116353   4.339   0.715   9.276 -0.2507 -0.4457 -0.8574
  148SAPE  H11R16354   4.408   0.800   9.286 -1.5176  0.7484 -1.9694
  148SAPE  C21216355   4.246   0.719   9.176 -0.7256 -0.3414  0.0842
  148SAPE  H12R16356   4.270   0.793   9.099  0.6170 -0.8697 -0.0279
  148SAPE  C21316357   4.129   0.628   9.163  0.0350 -0.0668 -0.1453
  148SAPE  H13R16358   4.052   0.672   9.097 -3.0397 -1.9596  1.9200
  148SAPE  H13S16359   4.094   0.602   9.265 -1.3370 -2.0285 -1.0621
  148SAPE  C21416360   4.146   0.491   9.099 -1.3296 -0.4734  0.4718
  148SAPE  H14R16361   4.139   0.402   9.163 -0.1092 -0.2803  0.9079
  148SAPE  C21516362   4.174   0.475   8.968 -0.1764 -0.0990  0.3702
  148SAPE  H15R16363   4.178   0.376   8.920 -1.3000 -0.1834  0.4223
  148SAPE  C21616364   4.184   0.580   8.860  0.7980 -0.1857  0.1398
  148SAPE  H16R16365   4.175   0.684   8.898 -1.2470  0.5850 -2.1968
  148SAPE  H16S16366   4.090   0.575   8.800 -1.3201  1.1783  3.1049
  148SAPE  C21716367   4.315   0.559   8.783 -0.8284 -0.2195 -0.7030
  148SAPE  H17R16368   4.311   0.456   8.742  2.2639 -0.1212 -1.4887
  148SAPE  H17S16369   4.405   0.543   8.846  0.6700 -2.2141 -3.1802
  148SAPE  C21816370   4.336   0.668   8.681 -0.0449  0.2757  0.4977
  148SAPE  H18R16371   4.386   0.749   8.740 -2.8301  0.7787  2.3714
  148SAPE  H18S16372   4.236   0.692   8.638  0.3199  1.0133  0.0418
  148SAPE  C21916373   4.423   0.621   8.566  0.1163  0.2576 -0.0409
  148SAPE  H19R16374   4.515   0.573   8.606 -0.1421 -0.0304  0.2192
  148SAPE  H19S16375   4.440   0.705   8.495 -0.8785 -1.3168 -2.2954
  148SAPE  C22016376   4.363   0.522   8.465  0.9367 -0.0842  0.3428
  148SAPE  H20R16377   4.298   0.591   8.406  0.5445  0.5082  1.4477
  148SAPE  H20S16378   4.299   0.441   8.504  0.7437 -0.4675 -0.7452
  148SAPE  H20T16379   4.449   0.487   8.403  1.7235  0.4377  1.1098
  148SAPE   C3316380   3.928   0.111   9.719  1.2483 -0.7308  0.0095
  148SAPE   H3X16381   3.917   0.220   9.738  2.1379  0.0295 -3.1538
  148SAPE   H3Y16382   3.832   0.055   9.719  1.1685 -0.5982  0.9279
  148SAPE   C3416383   4.004   0.101   9.586  0.2213 -0.1144  0.4556
  148SAPE   H4X16384   4.028  -0.007   9.575  0.3724  0.0171 -0.6230
  148SAPE   H4Y16385   4.097   0.161   9.596  0.5328 -0.0575 -2.0620
  148SAPE   C3516386   3.928   0.164   9.471  0.6799  0.5499 -0.7959
  148SAPE   H5X16387   3.898   0.269   9.490 -0.1411  0.1683  0.0949
  148SAPE   H5Y16388   3.829   0.116   9.460  0.8296  0.6220 -2.9999
  148SAPE   C3616389   3.999   0.143   9.335 -0.5189 -0.2067 -0.6084
  148SAPE   H6X16390   4.067   0.056   9.343 -0.6692 -0.1734  3.5782
  148SAPE   H6Y16391   4.062   0.228   9.300  1.2235 -0.7878  0.9477
  148SAPE   C3716392   3.884   0.132   9.237  0.3362  0.0819  0.4494
  148SAPE   H7X16393   3.791   0.179   9.276 -0.2613 -1.7214  1.3176
  148SAPE   H7Y16394   3.864   0.023   9.244 -0.0449  0.1518  0.4396
  148SAPE   C3816395   3.904   0.164   9.089  0.4915  0.0500 -0.2512
  148SAPE   H8X16396   3.974   0.094   9.039  0.6520  0.4488 -0.6020
  148SAPE   H8Y16397   3.947   0.267   9.087  0.5135  0.0358 -0.8302
  148SAPE   C3916398   3.772   0.166   9.001 -0.3618  1.2978  0.3512
  148SAPE   H9X16399   3.697   0.225   9.059 -1.8659  0.7084 -0.9081
  148SAPE   H9Y16400   3.733   0.062   9.001  0.1365  1.1059 -0.2481
  148SAPE  C31016401   3.792   0.221   8.862  0.4281  0.1561  0.5901
  148SAPE  H10X16402   3.706   0.194   8.797  0.3482 -0.3173  0.8847
  148SAPE  H10Y16403   3.874   0.168   8.809  0.8774  0.4446  0.9751
  148SAPE  C31116404   3.825   0.373   8.846  0.5443 -0.2426 -0.2576
  148SAPE  H11X16405   3.915   0.400   8.905  0.1969  2.3589 -0.7825
  148SAPE  H11Y16406   3.748   0.436   8.896  1.0642  0.2319 -0.0404
  148SAPE  C31216407   3.838   0.420   8.698 -0.3446 -0.2173  1.0143
  148SAPE  H12X16408   3.765   0.364   8.636 -1.1673  1.2574  0.6061
  148SAPE  H12Y16409   3.941   0.397   8.664 -1.1650 -0.3217 -1.5542
  148SAPE  C31316410   3.817   0.570   8.683  0.2221  0.4603  0.1462
  148SAPE  H13X16411   3.890   0.627   8.744  0.5368  0.8134 -0.5538
  148SAPE  H13Y16412   3.715   0.590   8.721 -0.2479  0.2647 -0.9803
  148SAPE  C31416413   3.822   0.603   8.536  0.7271 -0.3345 -0.0548
  148SAPE  H14X16414   3.760   0.694   8.516  0.7412 -0.2778  0.1522
  148SAPE  H14Y16415   3.770   0.520   8.484 -2.4966  1.6801 -0.3301
  148SAPE  C31516416   3.967   0.615   8.468 -0.5521  0.3779  0.1862
  148SAPE  H15X16417   4.026   0.521   8.472 -2.1996 -0.6924  0.2392
  148SAPE  H15Y16418   4.019   0.692   8.529 -1.0010 -0.4927  1.7266
  148SAPE  C31616419   3.952   0.663   8.320  0.1096  0.1616  0.2211
  148SAPE  H16X16420   3.894   0.757   8.328 -0.4824 -0.2825  1.5068
  148SAPE  H16Y16421   3.903   0.585   8.259  1.8776 -0.7174 -0.1651
  148SAPE  C31716422   4.081   0.702   8.239  0.1298  0.7130  0.3609
  148SAPE  H17X16423   4.135   0.611   8.205 -3.6161 -1.5878 -0.0012
  148SAPE  H17Y16424   4.142   0.773   8.299  0.0902 -0.3337  1.6804
  148SAPE  C31816425   4.036   0.771   8.109 -0.3764  0.9813  0.2577
  148SAPE  H18X16426   4.126   0.795   8.049  0.9300 -0.6425  1.4623
  148SAPE  H18Y16427   3.973   0.861   8.129  0.1965  1.0347  1.9766
  148SAPE  H18Z16428   3.974   0.706   8.044  0.7044  1.8382 -1.7277
  149SAPE     N16429   4.039   3.747  10.891 -0.7662  0.0117  0.2104
  149SAPE   HN116430   4.031   3.788  10.796  0.6916 -1.4937 -0.6005
  149SAPE   HN216431   3.944   3.728  10.930 -1.0105  1.4419  0.3845
  149SAPE   HN316432   4.085   3.819  10.951 -1.3567 -0.0054  0.7013
  149SAPE   C1216433   4.127   3.633  10.883  0.2285 -0.6343 -0.1466
  149SAPE  H12A16434   4.088   3.550  10.819  0.7460  0.3419 -1.7755
  149SAPE  H12B16435   4.116   3.590  10.985 -0.1158  0.3922  0.2548
  149SAPE   C1116436   4.272   3.668  10.856 -0.8392 -0.0512 -0.2971
  149SAPE  H11A16437   4.277   3.694  10.748  1.7598 -1.2728 -0.5618
  149SAPE  H11B16438   4.329   3.578  10.886  1.5597  1.8397  1.2140
  149SAPE     P16439   4.444   3.813  11.004 -0.1719 -0.1785  0.6851
  149SAPE   O1316440   4.429   3.955  11.049  0.1126 -0.0632 -0.0205
  149SAPE   O1416441   4.476   3.705  11.101 -0.0282  0.2068 -0.2706
  149SAPE   O1216442   4.318   3.780  10.932 -0.0219  0.5243 -0.0139
  149SAPE   O1116443   4.555   3.818  10.887 -0.1617  0.4105  0.2133
  149SAPE    C116444   4.594   3.709  10.803  0.3086 -0.1159 -0.9602
  149SAPE    HA16445   4.699   3.680  10.828 -0.7073 -1.7648  1.8015
  149SAPE    HB16446   4.540   3.613  10.819 -1.3091  0.4154 -2.7890
  149SAPE    C216447   4.576   3.732  10.654  0.3590 -0.6766  0.3084
  149SAPE    HS16448   4.474   3.699  10.627  0.0443  0.4223  0.1037
  149SAPE   O2116449   4.679   3.667  10.585 -0.3149  0.1722  0.6987
  149SAPE   C2116450   4.658   3.540  10.563  0.7687  0.7409  0.3070
  149SAPE   O2216451   4.565   3.473  10.600  0.4275 -0.1798  0.3263
  149SAPE   C2216452   4.782   3.499  10.485 -0.4772  0.5588  0.0413
  149SAPE   H2R16453   4.874   3.556  10.511 -0.0902 -0.9777  2.3308
  149SAPE   H2S16454   4.821   3.404  10.526 -1.3684  0.9053  1.8465
  149SAPE    C316455   4.579   3.890  10.620 -0.3824  0.0088 -0.5330
  149SAPE    HX16456   4.686   3.918  10.618 -0.5592  0.7721 -0.0344
  149SAPE    HY16457   4.543   3.953  10.705  1.0349 -0.2183  0.2585
  149SAPE   O3116458   4.518   3.915  10.497  0.1413  0.1752  0.6241
  149SAPE   C3116459   4.403   3.982  10.501  0.3935  0.8897  0.0025
  149SAPE   O3216460   4.335   4.017  10.593 -0.1160  0.1837 -0.0433
  149SAPE   C3216461   4.361   4.008  10.350  0.3962 -0.1918 -0.0955
  149SAPE   H2X16462   4.331   3.910  10.307 -1.1578  0.0833  0.2861
  149SAPE   H2Y16463   4.450   4.041  10.293  0.0461  2.1901  0.6481
  149SAPE   C2316464   4.743   3.487  10.332 -0.6383 -0.5591 -0.7968
  149SAPE   H3R16465   4.831   3.474  10.265 -0.3408 -0.7166 -0.3793
  149SAPE   H3S16466   4.697   3.583  10.300 -0.9237 -0.5275 -0.2913
  149SAPE   C2416467   4.651   3.365  10.306 -0.6286 -0.1794 -0.3119
  149SAPE   H4R16468   4.581   3.359  10.393 -1.3224 -0.6860 -0.8901
  149SAPE   H4S16469   4.715   3.276  10.314 -0.6476 -0.0108  4.1615
  149SAPE   C2516470   4.581   3.385  10.173  0.1425 -0.9873 -0.3638
  149SAPE   H5R16471   4.614   3.466  10.107 -0.7663 -1.0653 -0.9280
  149SAPE   C2616472   4.484   3.309  10.121  0.1209  0.2322  0.0203
  149SAPE   H6R16473   4.457   3.323  10.015 -1.5261  0.8324  0.4859
  149SAPE   C2716474   4.429   3.180  10.182  0.0692  0.4792 -0.1667
  149SAPE   H7R16475   4.320   3.196  10.194  0.0490  0.4911 -0.3771
  149SAPE   H7S16476   4.468   3.152  10.283 -2.0316 -0.1816  0.5072
  149SAPE   C2816477   4.459   3.058  10.096  0.3313  0.4339 -0.1660
  149SAPE   H8R16478   4.536   2.987  10.132 -1.4047 -1.2182  0.4563
  149SAPE   C2916479   4.392   3.021   9.988  0.2201  0.2037 -0.3104
  149SAPE   H9R16480   4.435   2.942   9.925 -1.2278 -0.6471 -0.2809
  149SAPE  C21016481   4.266   3.087   9.936  0.8130  0.4342 -0.5012
  149SAPE  H10R16482   4.250   3.047   9.833  1.4993 -0.5835 -0.2134
  149SAPE  H10S16483   4.279   3.195   9.913  2.2997  0.6162  1.0538
  149SAPE  C21116484   4.137   3.058  10.012  1.0281 -0.0618 -0.3197
  149SAPE  H11R16485   4.157   3.018  10.112  0.3458  0.5630  0.0719
  149SAPE  C21216486   4.013   3.079   9.971  0.8373 -0.1831 -0.3113
  149SAPE  H12R16487   3.932   3.047  10.038  0.4436 -2.6092 -1.8148
  149SAPE  C21316488   3.966   3.126   9.835 -0.4839  0.8479 -0.3289
  149SAPE  H13R16489   4.051   3.123   9.763 -0.1082 -0.1006  0.1359
  149SAPE  H13S16490   3.932   3.232   9.837  0.9049  1.3565 -1.3899
  149SAPE  C21416491   3.857   3.040   9.779  0.2920  1.1430 -0.4091
  149SAPE  H14R16492   3.810   2.966   9.846  2.2327 -1.5128 -1.7982
  149SAPE  C21516493   3.812   3.055   9.651  0.2424  0.2710 -0.0048
  149SAPE  H15R16494   3.730   2.991   9.615 -0.1060  0.3465  0.6292
  149SAPE  C21616495   3.847   3.157   9.541 -0.2561 -0.9595 -0.1607
  149SAPE  H16R16496   3.914   3.233   9.585  0.4273 -1.1509 -0.8333
  149SAPE  H16S16497   3.755   3.209   9.510  0.3048 -1.3606 -2.7442
  149SAPE  C21716498   3.918   3.095   9.426 -0.5367 -0.4589 -0.4710
  149SAPE  H17R16499   3.865   3.004   9.392  0.1031 -0.4082 -1.6642
  149SAPE  H17S16500   4.021   3.073   9.460 -0.2993  0.2459 -0.7101
  149SAPE  C21816501   3.928   3.185   9.298  0.5214  0.2491 -0.2131
  149SAPE  H18R16502   3.990   3.273   9.327 -1.1407  0.9691  1.3164
  149SAPE  H18S16503   3.827   3.220   9.270 -0.0130 -0.0452  1.2395
  149SAPE  C21916504   3.991   3.112   9.174 -0.5296 -0.5270 -0.0503
  149SAPE  H19R16505   3.935   3.019   9.151  1.3768 -2.0631  1.2053
  149SAPE  H19S16506   4.099   3.092   9.192 -0.6422  0.5453  2.1253
  149SAPE  C22016507   3.987   3.195   9.049  0.0708  0.5629 -0.4176
  149SAPE  H20R16508   3.886   3.186   9.004 -0.2861  0.4942  0.3787
  149SAPE  H20S16509   4.062   3.166   8.972 -0.6700  0.6108 -1.1744
  149SAPE  H20T16510   3.999   3.301   9.078  0.8739  0.2768  0.3315
  149SAPE   C3316511   4.252   4.118  10.326  0.5754  0.4482 -0.2545
  149SAPE   H3X16512   4.300   4.218  10.322 -1.1225  1.2723 -1.2014
  149SAPE   H3Y16513   4.168   4.116  10.398 -0.4429  2.3270 -1.3083
  149SAPE   C3416514   4.175   4.111  10.190 -0.6779 -0.2293 -0.0088
  149SAPE   H4X16515   4.104   4.195  10.206 -0.3154 -0.3670  2.8354
  149SAPE   H4Y16516   4.133   4.007  10.191 -0.5536 -0.2789  0.2549
  149SAPE   C3516517   4.268   4.139  10.073 -0.2233 -0.5216  0.6469
  149SAPE   H5X16518   4.363   4.083  10.089  1.0326  1.5988  0.9333
  149SAPE   H5Y16519   4.300   4.244  10.060 -1.0584 -0.5940 -3.0399
  149SAPE   C3616520   4.216   4.100   9.933  0.3828  0.1932 -0.1884
  149SAPE   H6X16521   4.107   4.116   9.918 -0.0021 -1.4535  0.6373
  149SAPE   H6Y16522   4.219   3.990   9.916 -0.3656  0.3162 -1.2316
  149SAPE   C3716523   4.294   4.152   9.819  0.1107 -0.9851 -0.3585
  149SAPE   H7X16524   4.402   4.139   9.840  0.3573  1.5867  0.3641
  149SAPE   H7Y16525   4.278   4.262   9.816  0.4733 -0.9607 -1.8376
  149SAPE   C3816526   4.231   4.096   9.691 -0.2159 -0.4250  0.5284
  149SAPE   H8X16527   4.122   4.117   9.701  0.1075  1.6322  0.1184
  149SAPE   H8Y16528   4.237   3.985   9.695  1.3062 -0.3935 -0.2393
  149SAPE   C3916529   4.292   4.159   9.561 -0.1112  0.4086 -0.4463
  149SAPE   H9X16530   4.402   4.152   9.572 -0.1032  2.0964  1.0909
  149SAPE   H9Y16531   4.264   4.266   9.564 -0.8586  0.2287 -0.7602
  149SAPE  C31016532   4.245   4.092   9.431  0.1117  0.6532 -0.5490
  149SAPE  H10X16533   4.134   4.087   9.420 -0.0384  0.2107  0.9734
  149SAPE  H10Y16534   4.289   3.990   9.431  1.5419  1.2442  0.4660
  149SAPE  C31116535   4.294   4.166   9.305  0.5843  0.8510  0.9222
  149SAPE  H11X16536   4.404   4.163   9.319  0.4166 -1.0643  2.1884
  149SAPE  H11Y16537   4.251   4.268   9.298 -2.8395 -0.4352  1.3159
  149SAPE  C31216538   4.271   4.088   9.172  0.1937 -0.0801 -0.4326
  149SAPE  H12X16539   4.163   4.083   9.146 -0.3414  1.4523  1.3011
  149SAPE  H12Y16540   4.311   3.986   9.189  2.8589  1.0728  0.7304
  149SAPE  C31316541   4.351   4.150   9.057 -0.2942  0.1623 -0.5138
  149SAPE  H13X16542   4.459   4.148   9.085 -0.6704 -0.7084  0.9612
  149SAPE  H13Y16543   4.321   4.257   9.057  1.1484  0.6177  0.9577
  149SAPE  C31416544   4.330   4.091   8.917  0.0699 -0.4307  0.5700
  149SAPE  H14X16545   4.364   3.988   8.893 -0.5523 -0.2850 -1.0861
  149SAPE  H14Y16546   4.393   4.158   8.855 -0.8512  1.1426  1.2664
  149SAPE  C31516547   4.188   4.091   8.874  0.6603  0.0940  0.0017
  149SAPE  H15X16548   4.138   4.185   8.906  0.3947  0.9102 -2.5578
  149SAPE  H15Y16549   4.125   4.009   8.914 -0.0516 -0.9528 -2.9976
  149SAPE  C31616550   4.194   4.076   8.720 -0.4946  0.5269 -0.2134
  149SAPE  H16X16551   4.279   4.134   8.680 -0.3432 -0.0097 -0.6783
  149SAPE  H16Y16552   4.099   4.115   8.678 -0.6379 -2.1492 -2.6960
  149SAPE  C31716553   4.203   3.927   8.679 -0.3486  0.0695  0.2716
  149SAPE  H17X16554   4.109   3.876   8.709  1.3635 -1.6971  3.1147
  149SAPE  H17Y16555   4.281   3.873   8.737  0.0910 -0.8456 -1.1319
  149SAPE  C31816556   4.236   3.908   8.530  0.3487  0.2363 -0.5329
  149SAPE  H18X16557   4.152   3.945   8.468 -0.4672 -1.9163 -0.7952
  149SAPE  H18Y16558   4.252   3.800   8.509 -2.0197 -0.4302  0.6983
  149SAPE  H18Z16559   4.321   3.973   8.501 -1.2367  2.6152 -0.1122
  150SAPE     N16560   1.078   3.146  10.792  0.0424 -0.6916 -1.0085
  150SAPE   HN116561   1.012   3.132  10.871  1.1652 -0.5278 -0.0100
  150SAPE   HN216562   1.177   3.129  10.821  0.8160  1.8002 -1.9559
  150SAPE   HN316563   1.077   3.250  10.788  1.5694 -0.5190  1.2363
  150SAPE   C1216564   1.043   3.097  10.654  0.0727 -0.7048  0.0834
  150SAPE  H12A16565   1.056   2.986  10.651  1.5147 -0.5439 -3.1606
  150SAPE  H12B16566   1.101   3.149  10.576  0.2578  0.0709  0.7200
  150SAPE   C1116567   0.891   3.131  10.635 -1.0296  0.0122  0.0816
  150SAPE  H11A16568   0.864   3.082  10.539 -2.3878  1.9006 -0.5639
  150SAPE  H11B16569   0.873   3.241  10.627  0.1891  0.3710  1.7051
  150SAPE     P16570   0.658   3.112  10.756 -0.0795  0.3168 -0.1625
  150SAPE   O1316571   0.588   2.998  10.819  0.2247 -0.1064 -0.5674
  150SAPE   O1416572   0.658   3.245  10.822  0.3642 -0.3298 -0.1062
  150SAPE   O1216573   0.812   3.077  10.740 -0.2743  0.4681  0.1415
  150SAPE   O1116574   0.627   3.127  10.608  0.0662  0.0270 -0.0209
  150SAPE    C116575   0.533   3.035  10.538 -0.0840  0.5176 -0.6839
  150SAPE    HA16576   0.574   2.932  10.537 -2.6422 -0.7735  3.1024
  150SAPE    HB16577   0.437   3.026  10.594  1.1873 -3.2009  1.2463
  150SAPE    C216578   0.505   3.085  10.395 -0.1864 -0.9496  0.1023
  150SAPE    HS16579   0.436   3.017  10.340 -0.3782 -1.7150  1.2636
  150SAPE   O2116580   0.630   3.128  10.324 -0.0823 -0.0206 -0.2571
  150SAPE   C2116581   0.705   3.027  10.289 -0.3582 -0.2679  0.4639
  150SAPE   O2216582   0.680   2.909  10.307 -0.2554  0.8082 -0.1459
  150SAPE   C2216583   0.833   3.082  10.223 -0.0492 -0.0845  0.3854
  150SAPE   H2R16584   0.811   3.123  10.122 -0.1561  1.0031  0.8431
  150SAPE   H2S16585   0.880   3.165  10.279  2.3615 -1.7275  1.0033
  150SAPE    C316586   0.406   3.211  10.412  0.1592 -0.5142 -0.2430
  150SAPE    HX16587   0.447   3.292  10.476 -2.0288  0.9112 -0.5390
  150SAPE    HY16588   0.310   3.185  10.462 -1.3665  2.7364 -1.2026
  150SAPE   O3116589   0.362   3.274  10.290  0.0959 -0.2687 -0.8453
  150SAPE   C3116590   0.254   3.220  10.240 -0.0446 -0.0559 -0.1807
  150SAPE   O3216591   0.191   3.119  10.276 -0.2207  0.0658 -0.0161
  150SAPE   C3216592   0.212   3.310  10.128 -0.3932 -0.6034  0.1538
  150SAPE   H2X16593   0.294   3.375  10.090 -0.6573  1.0064  2.1555
  150SAPE   H2Y16594   0.138   3.381  10.170  0.8474 -0.0190  1.4841
  150SAPE   C2316595   0.941   2.975  10.196 -0.8403  0.5287  1.2238
  150SAPE   H3R16596   0.928   2.896  10.272  0.3472 -2.0322 -1.0486
  150SAPE   H3S16597   1.045   3.015  10.194 -0.0869 -1.3457  0.7299
  150SAPE   C2416598   0.911   2.914  10.059  0.2862 -0.2144 -0.3496
  150SAPE   H4R16599   0.807   2.878  10.054 -0.4974  2.0265 -3.2222
  150SAPE   H4S16600   0.971   2.821  10.050  1.0043 -0.1950  3.0315
  150SAPE   C2516601   0.946   3.002   9.942 -0.1455 -0.5741 -0.1117
  150SAPE   H5R16602   1.053   3.014   9.922  0.0506 -1.9621 -0.0336
  150SAPE   C2616603   0.865   3.056   9.849  0.1092  0.1344  0.0177
  150SAPE   H6R16604   0.912   3.119   9.772  2.3077  0.6466  1.6760
  150SAPE   C2716605   0.714   3.036   9.837 -0.3667 -0.4126  0.3156
  150SAPE   H7R16606   0.683   3.128   9.782 -0.3265 -0.4406  0.2456
  150SAPE   H7S16607   0.664   3.030   9.936  0.4479  0.4416  0.7890
  150SAPE   C2816608   0.685   2.906   9.771 -0.1532 -0.0590 -0.3270
  150SAPE   H8R16609   0.664   2.822   9.839 -0.0656  1.5369  1.7948
  150SAPE   C2916610   0.667   2.880   9.646 -0.2144 -0.3994 -0.2562
  150SAPE   H9R16611   0.650   2.780   9.603  0.2331 -1.3892  1.7654
  150SAPE  C21016612   0.692   2.984   9.540  0.5340 -0.3459  0.2000
  150SAPE  H10R16613   0.750   3.071   9.578  0.3984 -0.1169 -0.1130
  150SAPE  H10S16614   0.588   3.014   9.515  0.8848  1.8082  1.1229
  150SAPE  C21116615   0.764   2.933   9.421  0.1975 -0.0233 -0.7743
  150SAPE  H11R16616   0.873   2.937   9.438 -0.0985  1.2237  1.0610
  150SAPE  C21216617   0.717   2.890   9.305  0.2115 -0.4376  0.1841
  150SAPE  H12R16618   0.789   2.863   9.227  1.8178  1.7394  0.8282
  150SAPE  C21316619   0.571   2.878   9.274  0.6328  0.0238 -0.1333
  150SAPE  H13R16620   0.538   2.971   9.223 -0.9888 -0.5314 -0.1531
  150SAPE  H13S16621   0.504   2.874   9.363 -1.7428 -0.7539 -1.8462
  150SAPE  C21416622   0.548   2.757   9.193 -0.5292 -0.0518 -0.2469
  150SAPE  H14R16623   0.509   2.671   9.249 -1.4415 -1.5590 -3.0313
  150SAPE  C21516624   0.567   2.733   9.059  0.7823  0.2767  0.0502
  150SAPE  H15R16625   0.528   2.641   9.012  0.2476  1.7225 -2.5328
  150SAPE  C21616626   0.607   2.835   8.957  0.5879 -0.2365 -0.0504
  150SAPE  H16R16627   0.648   2.924   9.008 -0.3450  1.0370 -1.4232
  150SAPE  H16S16628   0.523   2.884   8.903 -0.9109 -1.0407  1.4633
  150SAPE  C21716629   0.714   2.787   8.867 -0.2323  0.4478  0.2241
  150SAPE  H17R16630   0.788   2.747   8.939 -0.2838 -1.1458 -0.5550
  150SAPE  H17S16631   0.758   2.873   8.812 -0.7538 -0.0033 -0.9409
  150SAPE  C21816632   0.689   2.686   8.752 -0.0469  0.2023 -0.4560
  150SAPE  H18R16633   0.607   2.727   8.689  0.4355  0.6989 -0.7711
  150SAPE  H18S16634   0.655   2.590   8.797  1.2536  0.5445  1.3765
  150SAPE  C21916635   0.807   2.646   8.665  0.6201  0.0629 -0.1735
  150SAPE  H19R16636   0.882   2.594   8.728 -1.5620 -1.9624  0.9280
  150SAPE  H19S16637   0.853   2.740   8.630 -0.9669  0.4556 -1.3424
  150SAPE  C22016638   0.776   2.550   8.548 -0.5454  0.0202  0.7151
  150SAPE  H20R16639   0.855   2.539   8.471 -1.6877 -0.5613 -0.4078
  150SAPE  H20S16640   0.687   2.571   8.485 -0.2515  0.4884  0.4484
  150SAPE  H20T16641   0.754   2.448   8.586 -1.6842 -0.2971 -0.7182
  150SAPE   C3316642   0.144   3.239  10.009 -0.4177 -0.6784 -0.5899
  150SAPE   H3X16643   0.118   3.323   9.941  0.6926 -1.1841 -1.6746
  150SAPE   H3Y16644   0.063   3.177  10.052  0.1360 -2.1394 -1.5864
  150SAPE   C3416645   0.247   3.150   9.935  0.5157 -0.2667  0.7317
  150SAPE   H4X16646   0.262   3.057   9.993  0.9662 -0.9850 -0.5092
  150SAPE   H4Y16647   0.343   3.206   9.931 -0.0924  0.7312 -0.7807
  150SAPE   C3516648   0.220   3.114   9.788 -0.3405 -0.3702 -0.2827
  150SAPE   H5X16649   0.223   3.209   9.732  1.4187  1.5290  2.7506
  150SAPE   H5Y16650   0.120   3.066   9.787 -1.3997  1.7544 -0.2672
  150SAPE   C3616651   0.336   3.030   9.729 -0.1547 -1.1226  0.3806
  150SAPE   H6X16652   0.398   2.968   9.797 -0.1665 -1.3248  0.2107
  150SAPE   H6Y16653   0.403   3.106   9.683 -1.3817 -0.6508 -0.6956
  150SAPE   C3716654   0.291   2.935   9.618  0.8652 -0.0902  0.0530
  150SAPE   H7X16655   0.196   2.885   9.647  0.9221  0.7729  1.9427
  150SAPE   H7Y16656   0.367   2.862   9.585  1.1219  0.6628 -1.0854
  150SAPE   C3816657   0.271   3.027   9.490 -0.6788  0.2502 -0.0650
  150SAPE   H8X16658   0.375   3.053   9.462 -0.1528  0.2501  1.7408
  150SAPE   H8Y16659   0.222   3.123   9.516  3.5436  2.5418  0.2260
  150SAPE   C3916660   0.191   2.953   9.384  0.5146 -0.4641  0.6015
  150SAPE   H9X16661   0.086   2.954   9.422  1.1991 -2.6503  2.7996
  150SAPE   H9Y16662   0.209   2.845   9.366 -1.2974 -1.2197  2.7914
  150SAPE  C31016663   0.200   3.024   9.245 -0.4909 -0.6047  0.1880
  150SAPE  H10X16664   0.308   3.035   9.222  0.1256 -2.2369  2.0861
  150SAPE  H10Y16665   0.154   3.122   9.270 -1.3637 -1.3219  1.5026
  150SAPE  C31116666   0.153   2.935   9.125  0.6068  0.1576 -0.2589
  150SAPE  H11X16667   0.053   2.893   9.146  1.1938 -1.3492 -0.3377
  150SAPE  H11Y16668   0.230   2.855   9.114 -0.0819 -0.8981  1.9233
  150SAPE  C31216669   0.151   3.022   9.003  0.4048 -0.6415  0.8870
  150SAPE  H12X16670   0.248   3.074   8.996 -0.4678  0.8300 -2.7180
  150SAPE  H12Y16671   0.077   3.104   9.022 -0.0198 -0.8543  0.1924
  150SAPE  C31316672   0.124   2.950   8.870 -0.2803 -0.2648  0.3219
  150SAPE  H13X16673   0.102   3.027   8.793 -0.8770 -0.0815  0.6626
  150SAPE  H13Y16674   0.038   2.882   8.892 -0.1430  0.1570  2.4399
  150SAPE  C31416675   0.244   2.867   8.827 -0.4790  0.1662  0.7647
  150SAPE  H14X16676   0.270   2.782   8.894  0.6707  1.0932  1.5411
  150SAPE  H14Y16677   0.337   2.926   8.817  0.6442 -1.5724  0.5038
  150SAPE  C31516678   0.216   2.818   8.681 -0.0824 -0.1394  0.6291
  150SAPE  H15X16679   0.172   2.901   8.622  0.4049 -1.0889 -1.1588
  150SAPE  H15Y16680   0.158   2.723   8.681  2.3796 -1.7628  1.9389
  150SAPE  C31616681   0.343   2.771   8.618  0.4785 -0.4138 -0.6532
  150SAPE  H16X16682   0.377   2.669   8.644  2.0548 -0.2008 -1.7207
  150SAPE  H16Y16683   0.423   2.845   8.637 -1.9195  1.9969  0.8200
  150SAPE  C31716684   0.332   2.755   8.465  0.3488 -0.3921 -0.3120
  150SAPE  H17X16685   0.335   2.859   8.426 -1.3732 -0.5646 -1.0004
  150SAPE  H17Y16686   0.240   2.707   8.425  0.4348  0.3202 -1.4156
  150SAPE  C31816687   0.445   2.670   8.407 -0.0896 -0.4410  0.0337
  150SAPE  H18X16688   0.439   2.677   8.296  1.9205  1.0413 -0.0479
  150SAPE  H18Y16689   0.432   2.565   8.441  0.1331 -0.3048  0.5462
  150SAPE  H18Z16690   0.546   2.701   8.443  1.6566 -2.0994 -2.9810
  151SAPE     N16691   5.222   6.237  10.708 -0.5014  0.0215  0.3713
  151SAPE   HN116692   5.305   6.263  10.766  1.4687 -1.7723 -1.4473
  151SAPE   HN216693   5.191   6.318  10.651 -1.0675 -0.7105 -0.3816
  151SAPE   HN316694   5.141   6.203  10.763 -0.5117  1.2765  1.1774
  151SAPE   C1216695   5.275   6.122  10.624 -0.1110  0.4072 -0.2478
  151SAPE  H12A16696   5.244   6.128  10.517 -1.6238  2.0491  0.2184
  151SAPE  H12B16697   5.216   6.033  10.656 -1.9115  0.5897 -2.7099
  151SAPE   C1116698   5.425   6.110  10.636 -0.6543  0.4539  0.2996
  151SAPE  H11A16699   5.464   6.028  10.572 -0.4878  0.3576  0.5220
  151SAPE  H11B16700   5.449   6.080  10.740  1.0266 -2.4839 -0.8053
  151SAPE     P16701   5.645   6.238  10.578 -0.2840  0.2460 -0.0700
  151SAPE   O1316702   5.723   6.260  10.706 -0.4668 -0.4380  0.0200
  151SAPE   O1416703   5.696   6.128  10.496  0.3086 -0.6928  0.2469
  151SAPE   O1216704   5.493   6.230  10.608 -0.3856 -0.3566 -0.3149
  151SAPE   O1116705   5.671   6.366  10.488 -0.3203  0.4202 -0.7579
  151SAPE    C116706   5.586   6.487  10.480  0.2605  0.4177 -0.2031
  151SAPE    HA16707   5.508   6.481  10.559  0.7007 -0.7148  0.1675
  151SAPE    HB16708   5.657   6.568  10.508  1.7369 -1.3151  1.3165
  151SAPE    C216709   5.536   6.514  10.338  0.4837  0.0034  0.2300
  151SAPE    HS16710   5.460   6.446  10.294  2.8384 -0.7303 -3.0768
  151SAPE   O2116711   5.643   6.506  10.250  0.5076 -0.0292 -0.4073
  151SAPE   C2116712   5.674   6.394  10.196  0.6111  0.4243  0.3430
  151SAPE   O2216713   5.603   6.290  10.200 -0.3630  0.4227 -0.7525
  151SAPE   C2216714   5.799   6.406  10.115 -0.6880 -0.3276 -0.0667
  151SAPE   H2R16715   5.867   6.468  10.178 -1.0224  1.2468 -1.1857
  151SAPE   H2S16716   5.850   6.312  10.086 -2.2982 -1.3109  0.1730
  151SAPE    C316717   5.479   6.649  10.330 -0.5092 -0.7350 -0.0273
  151SAPE    HX16718   5.570   6.712  10.334 -2.1550  2.0295 -2.0240
  151SAPE    HY16719   5.421   6.684  10.417  0.7989 -2.4478  1.6078
  151SAPE   O3116720   5.405   6.665  10.211 -0.6175 -0.3365  0.6925
  151SAPE   C3116721   5.470   6.731  10.108  0.0611  0.5330  0.1203
  151SAPE   O3216722   5.569   6.798  10.126  0.2312 -0.4980  0.5605
  151SAPE   C3216723   5.392   6.712   9.983  0.4168  0.6431  0.1993
  151SAPE   H2X16724   5.329   6.803   9.973 -1.9663 -0.7661  1.3159
  151SAPE   H2Y16725   5.314   6.637  10.009 -0.9364  2.1820  0.7949
  151SAPE   C2316726   5.778   6.487   9.982 -0.2173 -0.5058  0.0880
  151SAPE   H3R16727   5.874   6.541   9.972 -0.2564 -0.5836 -0.8108
  151SAPE   H3S16728   5.704   6.567  10.005  2.0824  1.2479  1.8949
  151SAPE   C2416729   5.740   6.409   9.851  0.2994  0.1154 -0.8308
  151SAPE   H4R16730   5.836   6.374   9.808 -0.6609 -1.3748 -1.8890
  151SAPE   H4S16731   5.705   6.477   9.770 -1.1385  0.0172 -0.3195
  151SAPE   C2516732   5.635   6.304   9.883  0.2097  0.8027 -0.3059
  151SAPE   H5R16733   5.555   6.337   9.950 -1.1676  0.1341 -1.5558
  151SAPE   C2616734   5.643   6.181   9.836 -0.3333  0.9693 -0.5833
  151SAPE   H6R16735   5.568   6.108   9.868 -0.3075  1.9281  1.8509
  151SAPE   C2716736   5.750   6.114   9.744  0.5213  0.0962 -0.6588
  151SAPE   H7R16737   5.774   6.017   9.793 -0.4640  1.1552  2.0731
  151SAPE   H7S16738   5.842   6.175   9.730  2.0930 -2.3478 -1.6818
  151SAPE   C2816739   5.712   6.096   9.601  0.1493  0.6072 -0.1171
  151SAPE   H8R16740   5.627   6.157   9.567 -1.6935 -2.1207 -0.7108
  151SAPE   C2916741   5.773   6.012   9.518 -0.1699  0.1856 -0.0922
  151SAPE   H9R16742   5.739   6.003   9.413  3.0359  1.8843 -1.4060
  151SAPE  C21016743   5.885   5.919   9.555  0.1500 -0.1430 -0.2502
  151SAPE  H10R16744   5.836   5.819   9.550 -0.0442 -0.0089 -1.2945
  151SAPE  H10S16745   5.912   5.924   9.663 -2.6529  2.2224  0.4684
  151SAPE  C21116746   6.004   5.934   9.464 -0.2589  0.2285  0.0065
  151SAPE  H11R16747   6.094   5.985   9.500 -0.9562  1.2207  0.3845
  151SAPE  C21216748   6.001   5.897   9.336  0.7897 -0.6422  0.3178
  151SAPE  H12R16749   6.090   5.912   9.273  1.7408 -0.6552  1.6144
  151SAPE  C21316750   5.886   5.837   9.259  0.1198  0.7316  0.1435
  151SAPE  H13R16751   5.838   5.917   9.198 -0.7506 -1.1043 -1.6870
  151SAPE  H13S16752   5.801   5.813   9.327  0.7334  0.6643  0.9020
  151SAPE  C21416753   5.921   5.710   9.183 -0.7013 -0.7556  0.0972
  151SAPE  H14R16754   5.894   5.616   9.233 -1.3998 -0.8673 -0.4719
  151SAPE  C21516755   5.988   5.700   9.071 -0.0264  0.0282  0.0467
  151SAPE  H15R16756   6.012   5.596   9.041 -0.6096 -1.3414  3.8248
  151SAPE  C21616757   6.034   5.808   8.979 -0.4007 -0.2277  0.1007
  151SAPE  H16R16758   6.133   5.784   8.935 -0.0178 -2.4818  1.9989
  151SAPE  H16S16759   6.055   5.894   9.046  0.3573  0.9146 -1.5299
  151SAPE  C21716760   5.932   5.863   8.869 -0.5281  0.2702 -0.8580
  151SAPE  H17R16761   5.986   5.950   8.826  0.1021 -0.2714 -1.1688
  151SAPE  H17S16762   5.834   5.895   8.910 -0.4419 -0.8831  0.3145
  151SAPE  C21816763   5.915   5.754   8.762 -0.8541 -0.2312 -0.7213
  151SAPE  H18R16764   5.827   5.693   8.788 -0.5656  0.1883  1.4126
  151SAPE  H18S16765   6.004   5.687   8.765 -1.3564 -0.8687  1.3869
  151SAPE  C21916766   5.889   5.809   8.620 -0.1248  0.1240  0.2741
  151SAPE  H19R16767   5.978   5.875   8.611  0.2184 -0.2653  0.7567
  151SAPE  H19S16768   5.796   5.869   8.619  0.5869  1.2574  0.1130
  151SAPE  C22016769   5.889   5.688   8.517 -0.1886 -0.3561  0.6734
  151SAPE  H20R16770   5.857   5.731   8.420  1.1114  0.8721  0.7495
  151SAPE  H20S16771   5.817   5.608   8.545  1.2131 -1.7166  0.5441
  151SAPE  H20T16772   5.987   5.635   8.509 -1.0366 -1.8492 -0.3516
  151SAPE   C3316773   5.476   6.688   9.866 -0.5759  0.9546  0.6921
  151SAPE   H3X16774   5.546   6.603   9.875 -0.3387  0.7121 -2.3787
  151SAPE   H3Y16775   5.540   6.777   9.848  2.3201 -1.2009 -0.2502
  151SAPE   C3416776   5.376   6.651   9.749 -0.0768 -0.0610  1.5705
  151SAPE   H4X16777   5.310   6.740   9.738 -0.0918 -0.1813  0.6905
  151SAPE   H4Y16778   5.305   6.570   9.774  0.0869 -0.5852  0.3834
  151SAPE   C3516779   5.447   6.621   9.617 -0.0453  0.7204 -0.4565
  151SAPE   H5X16780   5.513   6.535   9.640 -0.6513  0.5750  0.8562
  151SAPE   H5Y16781   5.516   6.706   9.599  1.7082 -0.4416  0.4984
  151SAPE   C3616782   5.352   6.595   9.501 -0.0959 -0.4566 -0.2751
  151SAPE   H6X16783   5.283   6.680   9.486 -0.8978 -1.2383 -1.1262
  151SAPE   H6Y16784   5.301   6.497   9.513  0.8517 -0.7558  1.8504
  151SAPE   C3716785   5.442   6.583   9.377 -0.2659  0.3969  0.6369
  151SAPE   H7X16786   5.515   6.501   9.391 -0.0130  0.6255  0.6585
  151SAPE   H7Y16787   5.494   6.681   9.375 -3.5361  2.3620  2.9411
  151SAPE   C3816788   5.367   6.562   9.244 -0.0303  0.1810  0.0388
  151SAPE   H8X16789   5.282   6.497   9.273 -0.0607 -0.5679 -1.6498
  151SAPE   H8Y16790   5.429   6.504   9.172 -0.0085  1.7056 -1.2236
  151SAPE   C3916791   5.324   6.689   9.169  0.2080 -0.4694 -0.5535
  151SAPE   H9X16792   5.404   6.766   9.169 -0.6058  0.4358  1.1707
  151SAPE   H9Y16793   5.237   6.731   9.224  1.7624  0.4929  1.2856
  151SAPE  C31016794   5.295   6.658   9.023  0.3400  0.1908 -0.1144
  151SAPE  H10X16795   5.248   6.749   8.979  2.7742  1.5722  0.0028
  151SAPE  H10Y16796   5.213   6.583   9.018 -0.7193  1.2158  1.1781
  151SAPE  C31116797   5.424   6.620   8.939  0.3152  0.2681 -0.7820
  151SAPE  H11X16798   5.507   6.576   8.997 -0.0955  0.1935 -0.2388
  151SAPE  H11Y16799   5.462   6.718   8.903  2.9923 -0.8006 -1.0962
  151SAPE  C31216800   5.378   6.529   8.824 -0.2572  0.3383  0.1652
  151SAPE  H12X16801   5.277   6.563   8.793 -0.1771 -0.1538 -0.6575
  151SAPE  H12Y16802   5.379   6.421   8.847 -0.4390 -0.0879 -1.6926
  151SAPE  C31316803   5.467   6.550   8.702  0.3568  0.5857  0.1478
  151SAPE  H13X16804   5.567   6.506   8.721 -0.0452 -0.2625  0.3386
  151SAPE  H13Y16805   5.473   6.658   8.678  1.3776 -0.0546 -2.9526
  151SAPE  C31416806   5.410   6.490   8.567  0.0436 -0.0869  0.3288
  151SAPE  H14X16807   5.322   6.553   8.542  0.9490  0.5690 -1.3682
  151SAPE  H14Y16808   5.391   6.384   8.592 -1.5670 -0.2072 -1.2005
  151SAPE  C31516809   5.506   6.489   8.448 -0.1650 -1.1790 -0.7316
  151SAPE  H15X16810   5.510   6.385   8.409 -0.2375 -1.3779 -0.2146
  151SAPE  H15Y16811   5.609   6.520   8.475 -0.1950 -1.9949  0.4011
  151SAPE  C31616812   5.458   6.573   8.330 -0.2534 -0.5247  0.0491
  151SAPE  H16X16813   5.347   6.564   8.331 -0.4808  1.8018  1.5769
  151SAPE  H16Y16814   5.509   6.541   8.237 -1.2635  1.9131 -1.4399
  151SAPE  C31716815   5.486   6.726   8.348  0.0214  0.0522 -0.3138
  151SAPE  H17X16816   5.593   6.752   8.338 -0.1782  2.0975  1.9681
  151SAPE  H17Y16817   5.449   6.746   8.451  2.3107 -1.8630  0.9991
  151SAPE  C31816818   5.396   6.814   8.255 -0.1465 -0.1945 -0.0020
  151SAPE  H18X16819   5.427   6.821   8.148 -1.0722  1.0475 -0.2073
  151SAPE  H18Y16820   5.394   6.921   8.285  1.7858 -0.0207 -0.3417
  151SAPE  H18Z16821   5.287   6.793   8.257 -0.2082  0.1821  1.0165
  152SAPE     N16822   1.642   5.624  10.814 -0.5667  1.2689 -0.3229
  152SAPE   HN116823   1.743   5.633  10.793 -0.8488  3.3098 -1.0601
  152SAPE   HN216824   1.618   5.670  10.904  1.4939 -0.5242  1.2730
  152SAPE   HN316825   1.622   5.522  10.812  0.9164  0.9604 -0.3728
  152SAPE   C1216826   1.587   5.684  10.685  0.3703  0.4785 -0.0408
  152SAPE  H12A16827   1.672   5.749  10.655  2.7288 -0.9144  3.1046
  152SAPE  H12B16828   1.508   5.759  10.703  0.0320  0.4234 -1.2010
  152SAPE   C1116829   1.533   5.571  10.592  1.2744 -0.0534  1.2153
  152SAPE  H11A16830   1.460   5.512  10.651  0.4567 -0.6470 -0.3357
  152SAPE  H11B16831   1.613   5.494  10.583  1.9163  0.7434 -0.2644
  152SAPE     P16832   1.355   5.688  10.439  0.0187  0.6388 -0.6791
  152SAPE   O1316833   1.364   5.819  10.503 -0.0353  0.5880  0.5518
  152SAPE   O1416834   1.325   5.690  10.297 -0.0410 -0.5159  0.4481
  152SAPE   O1216835   1.488   5.607  10.461  0.4181 -0.1726 -0.0166
  152SAPE   O1116836   1.247   5.605  10.513  0.2960  0.4134  0.0027
  152SAPE    C116837   1.226   5.470  10.510  0.5618 -0.0100  0.1547
  152SAPE    HA16838   1.304   5.414  10.455 -1.2854 -1.0702 -1.5149
  152SAPE    HB16839   1.212   5.434  10.614  1.4567 -0.5720  0.0929
  152SAPE    C216840   1.096   5.431  10.432 -0.1322 -0.3636 -0.2778
  152SAPE    HS16841   1.088   5.323  10.457  0.5469 -0.5827 -0.9622
  152SAPE   O2116842   1.108   5.462  10.292 -0.0266  0.1340 -0.1982
  152SAPE   C2116843   1.201   5.396  10.219  0.0584 -0.4778 -0.0024
  152SAPE   O2216844   1.250   5.293  10.257 -0.1143 -0.3638  0.3488
  152SAPE   C2216845   1.227   5.463  10.089 -0.2164 -0.3703  0.3896
  152SAPE   H2R16846   1.177   5.562  10.088 -1.1272 -0.8126 -1.1219
  152SAPE   H2S16847   1.334   5.494  10.099 -1.2183  3.6527  0.1742
  152SAPE    C316848   0.973   5.497  10.496 -0.3756  0.4818 -0.2458
  152SAPE    HX16849   0.973   5.603  10.465  2.1882  0.1568 -1.6683
  152SAPE    HY16850   0.977   5.484  10.606 -0.4772  2.0752 -0.0396
  152SAPE   O3116851   0.857   5.421  10.447 -0.1037 -0.5948  0.1499
  152SAPE   C3116852   0.742   5.487  10.424  0.3034  0.1393  0.0641
  152SAPE   O3216853   0.716   5.597  10.470 -0.2267  0.2033  0.4359
  152SAPE   C3216854   0.646   5.407  10.334 -0.0201 -0.3112 -0.2064
  152SAPE   H2X16855   0.560   5.376  10.397  0.9643 -0.2232  1.2218
  152SAPE   H2Y16856   0.693   5.310  10.306 -2.2866 -0.9443 -2.1671
  152SAPE   C2316857   1.192   5.390   9.963 -0.0399 -0.3089 -0.0526
  152SAPE   H3R16858   1.085   5.364   9.953 -0.1882 -0.0382  0.7611
  152SAPE   H3S16859   1.252   5.297   9.955  1.3981  0.7429 -2.8493
  152SAPE   C2416860   1.235   5.476   9.839  0.1190 -0.0544  0.3023
  152SAPE   H4R16861   1.340   5.512   9.851  0.1225  1.1922 -2.5705
  152SAPE   H4S16862   1.176   5.571   9.839  0.5863  0.2442  1.0897
  152SAPE   C2516863   1.221   5.401   9.710  0.0371  0.4259 -0.0631
  152SAPE   H5R16864   1.163   5.307   9.715  1.4473 -0.5809 -1.7086
  152SAPE   C2616865   1.273   5.438   9.592  0.6527 -0.1015 -0.3223
  152SAPE   H6R16866   1.263   5.379   9.500 -0.7344  1.9658 -1.6083
  152SAPE   C2716867   1.352   5.565   9.573 -0.2748 -0.5913  0.6360
  152SAPE   H7R16868   1.426   5.543   9.494  1.4945 -2.3666  2.6890
  152SAPE   H7S16869   1.412   5.590   9.663 -1.9156 -0.2367  1.6828
  152SAPE   C2816870   1.272   5.687   9.533 -0.0681 -0.5268  0.1446
  152SAPE   H8R16871   1.251   5.755   9.617  0.1057 -1.2559  0.7918
  152SAPE   C2916872   1.230   5.704   9.405 -0.3505  0.1776  0.7128
  152SAPE   H9R16873   1.179   5.797   9.375  0.5272  0.9085  1.4399
  152SAPE  C21016874   1.254   5.613   9.285 -0.3264 -0.2887  0.0024
  152SAPE  H10R16875   1.222   5.507   9.294 -1.7767  0.1017 -0.3235
  152SAPE  H10S16876   1.362   5.621   9.261 -0.3773 -1.5369 -0.7505
  152SAPE  C21116877   1.190   5.650   9.157  0.4031 -0.0929 -0.2551
  152SAPE  H11R16878   1.104   5.585   9.137  1.0958 -0.9709 -0.4751
  152SAPE  C21216879   1.216   5.751   9.070 -0.5683  0.5492  0.8214
  152SAPE  H12R16880   1.168   5.760   8.972 -0.4421 -0.8755  0.6215
  152SAPE  C21316881   1.332   5.847   9.092  0.9124  1.0069  0.7209
  152SAPE  H13R16882   1.353   5.879   9.197  1.8679  1.1272  0.5029
  152SAPE  H13S16883   1.315   5.944   9.042  0.6213  0.8449  0.5076
  152SAPE  C21416884   1.451   5.772   9.039  0.0999 -0.1345 -0.3138
  152SAPE  H14R16885   1.498   5.701   9.109 -1.0457 -0.8365 -0.2450
  152SAPE  C21516886   1.518   5.809   8.927 -0.7281  0.1042  0.3091
  152SAPE  H15R16887   1.613   5.756   8.910 -0.1306  0.7355  1.5336
  152SAPE  C21616888   1.495   5.929   8.842 -0.2867 -0.3554 -0.1981
  152SAPE  H16R16889   1.451   6.005   8.910  0.3089  0.7011 -0.9735
  152SAPE  H16S16890   1.420   5.904   8.764 -0.3591  1.5425 -0.7960
  152SAPE  C21716891   1.607   5.992   8.747 -0.3406 -0.5228  0.4392
  152SAPE  H17R16892   1.627   5.908   8.677 -0.2188 -0.9908  1.0273
  152SAPE  H17S16893   1.697   6.003   8.812 -0.8350  0.5980  0.9445
  152SAPE  C21816894   1.570   6.120   8.672 -0.0682 -0.4682  0.0470
  152SAPE  H18R16895   1.523   6.197   8.737 -1.6965 -0.3467 -1.2339
  152SAPE  H18S16896   1.500   6.090   8.592  1.1081  0.1420 -1.2482
  152SAPE  C21916897   1.683   6.177   8.579  1.1241  0.1586  0.5068
  152SAPE  H19R16898   1.628   6.248   8.514 -0.0686 -0.6709  0.5715
  152SAPE  H19S16899   1.729   6.101   8.511  0.1867  1.1090 -1.2766
  152SAPE  C22016900   1.798   6.245   8.657 -0.6288 -1.0600 -0.2055
  152SAPE  H20R16901   1.878   6.265   8.583 -0.4310  0.4004  0.3760
  152SAPE  H20S16902   1.842   6.173   8.730 -1.6856 -2.6523 -1.0801
  152SAPE  H20T16903   1.766   6.340   8.704 -2.3361 -0.9667 -1.4391
  152SAPE   C3316904   0.602   5.487  10.203 -0.5437  0.7625 -0.0482
  152SAPE   H3X16905   0.562   5.586  10.235 -0.7700  0.0751  1.8790
  152SAPE   H3Y16906   0.522   5.441  10.141  0.0101  2.1909 -1.9282
  152SAPE   C3416907   0.724   5.519  10.108  0.4267  0.4047  0.1812
  152SAPE   H4X16908   0.779   5.422  10.102 -0.4044 -0.4874  4.0578
  152SAPE   H4Y16909   0.797   5.588  10.154 -0.0053  0.2627  1.1093
  152SAPE   C3516910   0.665   5.568   9.972  0.1799  0.1199  0.2151
  152SAPE   H5X16911   0.645   5.676   9.987  1.2408  0.5737 -1.3267
  152SAPE   H5Y16912   0.577   5.509   9.941 -0.0591  1.2745 -1.4742
  152SAPE   C3616913   0.760   5.547   9.855 -0.5026 -0.3465 -0.2927
  152SAPE   H6X16914   0.771   5.438   9.840  1.4650 -0.2011 -0.2543
  152SAPE   H6Y16915   0.861   5.575   9.892 -0.7045  0.5448 -0.3889
  152SAPE   C3716916   0.720   5.624   9.728 -0.6317  0.3626  0.3718
  152SAPE   H7X16917   0.716   5.735   9.739 -2.0219  0.4831 -0.9834
  152SAPE   H7Y16918   0.622   5.577   9.706  0.7572 -1.3761 -2.7487
  152SAPE   C3816919   0.813   5.603   9.608 -0.0282  0.3455  0.0635
  152SAPE   H8X16920   0.851   5.498   9.610  1.1838  0.7239 -1.3104
  152SAPE   H8Y16921   0.905   5.664   9.619 -1.7218  2.9323  0.7723
  152SAPE   C3916922   0.761   5.633   9.468  0.0844  0.1068  1.1060
  152SAPE   H9X16923   0.707   5.730   9.460 -0.1134 -0.0356  0.6458
  152SAPE   H9Y16924   0.682   5.556   9.453 -0.5392  0.8351  0.6050
  152SAPE  C31016925   0.866   5.615   9.356  0.1045 -0.1499 -0.7258
  152SAPE  H10X16926   0.935   5.533   9.384  1.0530  1.8489  3.7052
  152SAPE  H10Y16927   0.921   5.711   9.358 -1.8502  1.1328 -3.1006
  152SAPE  C31116928   0.814   5.597   9.212  0.2630  0.4243 -0.6648
  152SAPE  H11X16929   0.729   5.526   9.214  0.0906  0.6357 -0.4095
  152SAPE  H11Y16930   0.894   5.550   9.152  0.2850  0.8956 -1.0102
  152SAPE  C31216931   0.766   5.723   9.139  0.2692  0.6801 -0.0465
  152SAPE  H12X16932   0.840   5.801   9.169  0.6854  0.0642  0.5821
  152SAPE  H12Y16933   0.673   5.754   9.190 -0.1903 -0.8010  0.0563
  152SAPE  C31316934   0.750   5.718   8.988  0.2702 -0.9833 -0.3072
  152SAPE  H13X16935   0.673   5.794   8.966  0.8222 -0.6649 -1.2101
  152SAPE  H13Y16936   0.725   5.612   8.964  0.0611 -0.6818 -1.5228
  152SAPE  C31416937   0.876   5.762   8.915  0.0192  0.0128  0.7555
  152SAPE  H14X16938   0.959   5.701   8.955  1.1659  0.7334 -0.4370
  152SAPE  H14Y16939   0.897   5.867   8.947 -1.2711  0.2900  0.7650
  152SAPE  C31516940   0.865   5.771   8.763 -0.4498  0.3640 -0.4359
  152SAPE  H15X16941   0.776   5.824   8.724 -0.8017 -1.0866 -1.7224
  152SAPE  H15Y16942   0.864   5.668   8.721  1.1416  0.6407 -1.1974
  152SAPE  C31616943   0.993   5.831   8.700 -0.2069  0.5161 -0.0753
  152SAPE  H16X16944   1.077   5.780   8.751 -1.1133  0.6242  1.6062
  152SAPE  H16Y16945   1.009   5.936   8.735 -1.2500  1.2615 -1.7160
  152SAPE  C31716946   1.004   5.828   8.546  0.3563  0.2828 -0.0127
  152SAPE  H17X16947   0.901   5.853   8.514  0.6284 -0.5908 -1.6484
  152SAPE  H17Y16948   1.028   5.735   8.491 -0.4593  1.3709 -2.3157
  152SAPE  C31816949   1.102   5.934   8.494  0.4964 -0.4274  0.4229
  152SAPE  H18X16950   1.058   6.033   8.520  1.0401 -0.3132  0.9370
  152SAPE  H18Y16951   1.113   5.917   8.385 -0.8425 -0.1459  0.2269
  152SAPE  H18Z16952   1.202   5.924   8.541 -0.1280 -0.0946  1.9014
  153SAPE     N16953   0.178   0.653  10.540  0.0420 -0.2261  0.4943
  153SAPE   HN116954   0.081   0.666  10.504 -0.1550 -1.6663  0.4234
  153SAPE   HN216955   0.170   0.621  10.639  0.3383  0.4332  0.7373
  153SAPE   HN316956   0.215   0.747  10.563  2.3130 -1.5555  2.9179
  153SAPE   C1216957   0.278   0.556  10.479  0.9120 -0.5089  0.1016
  153SAPE  H12A16958   0.303   0.600  10.381 -1.1677  3.4622  1.1145
  153SAPE  H12B16959   0.226   0.460  10.458 -0.4413  0.1872  0.1398
  153SAPE   C1116960   0.387   0.544  10.589 -0.4822  0.3866  1.1017
  153SAPE  H11A16961   0.449   0.468  10.537  0.1955  2.4272 -1.2762
  153SAPE  H11B16962   0.353   0.492  10.682  0.0826 -0.8623  0.6387
  153SAPE     P16963   0.603   0.698  10.601 -0.1951 -0.1583 -0.3028
  153SAPE   O1316964   0.634   0.844  10.618  0.4179  0.0336  0.5057
  153SAPE   O1416965   0.675   0.604  10.689  0.1562 -0.1032  0.4242
  153SAPE   O1216966   0.451   0.671  10.621 -0.1250 -0.0201 -0.2245
  153SAPE   O1116967   0.633   0.657  10.450  0.1663 -0.1981  0.2164
  153SAPE    C116968   0.585   0.741  10.339 -0.6557  0.3527 -0.7569
  153SAPE    HA16969   0.530   0.678  10.266  2.8957 -2.6996 -1.1330
  153SAPE    HB16970   0.514   0.815  10.381  1.5233  1.8610  0.4603
  153SAPE    C216971   0.702   0.815  10.266 -0.1337 -0.0511  0.8137
  153SAPE    HS16972   0.652   0.890  10.201  1.3064  0.3095  0.0998
  153SAPE   O2116973   0.786   0.723  10.192 -0.1243  0.0518  0.5371
  153SAPE   C2116974   0.734   0.683  10.081  0.2739  0.2493 -0.0664
  153SAPE   O2216975   0.628   0.718  10.036 -0.7108  0.2739  0.1119
  153SAPE   C2216976   0.822   0.568  10.028 -0.6780 -1.2355 -0.7838
  153SAPE   H2R16977   0.929   0.599  10.017 -0.4851 -1.7754 -0.4390
  153SAPE   H2S16978   0.819   0.483  10.098 -1.9950 -0.8312 -0.3206
  153SAPE    C316979   0.797   0.885  10.367 -0.2048  0.7290 -0.0178
  153SAPE    HX16980   0.823   0.825  10.457 -2.6526  0.1052  0.3520
  153SAPE    HY16981   0.729   0.959  10.414 -0.3868  0.8178 -0.4159
  153SAPE   O3116982   0.903   0.957  10.304  0.0766 -0.1426 -0.1576
  153SAPE   C3116983   1.021   0.899  10.313  0.0542  0.0898  0.3206
  153SAPE   O3216984   1.046   0.789  10.365  0.2320 -0.5872  0.0240
  153SAPE   C3216985   1.128   0.971  10.225  0.6196 -0.4013 -0.0103
  153SAPE   H2X16986   1.229   0.966  10.271  1.1016 -0.2627 -1.0202
  153SAPE   H2Y16987   1.105   1.077  10.202 -0.3646 -0.3958  0.9178
  153SAPE   C2316988   0.762   0.521   9.893 -0.0175  0.0561 -0.5701
  153SAPE   H3R16989   0.758   0.613   9.831  0.3060  0.2650 -0.2878
  153SAPE   H3S16990   0.661   0.487   9.925  0.2055 -0.3828 -0.3304
  153SAPE   C2416991   0.840   0.410   9.820  0.1350 -0.4469 -0.4182
  153SAPE   H4R16992   0.866   0.337   9.899 -0.0502 -1.2967 -1.1331
  153SAPE   H4S16993   0.934   0.460   9.789 -0.2391  1.0663  0.7122
  153SAPE   C2516994   0.768   0.356   9.700 -0.5178 -0.0312 -0.3388
  153SAPE   H5R16995   0.724   0.435   9.638 -0.0972 -1.6809 -2.9019
  153SAPE   C2616996   0.762   0.229   9.655  0.0562 -0.6628 -0.2140
  153SAPE   H6R16997   0.696   0.211   9.569 -1.0425 -1.3233  0.7347
  153SAPE   C2716998   0.829   0.114   9.719 -0.3990  0.0683  0.2989
  153SAPE   H7R16999   0.759   0.047   9.773 -1.1733  0.1928 -0.5151
  153SAPE   H7S17000   0.903   0.151   9.792 -0.1672 -0.5963  0.4155
  153SAPE   C2817001   0.902   0.016   9.622  0.1397 -0.7790  0.6302
  153SAPE   H8R17002   0.882  -0.092   9.627 -3.5494 -0.2277  0.5634
  153SAPE   C2917003   0.997   0.052   9.527  0.5569 -0.0400  0.0072
  153SAPE   H9R17004   1.052  -0.026   9.473  1.5708  1.1865 -0.8050
  153SAPE  C21017005   1.057   0.191   9.490 -0.0419 -0.5173  0.5374
  153SAPE  H10R17006   1.165   0.181   9.464 -0.3641 -1.4081 -0.5592
  153SAPE  H10S17007   1.036   0.249   9.582 -2.1338 -0.0634 -0.1671
  153SAPE  C21117008   0.996   0.267   9.380 -0.5407  0.0240  0.6229
  153SAPE  H11R17009   0.943   0.359   9.411  1.3014  1.6301 -0.7198
  153SAPE  C21217010   1.008   0.242   9.251 -0.1444  0.5972  0.7308
  153SAPE  H12R17011   0.952   0.305   9.180  0.4844  0.9705  0.5518
  153SAPE  C21317012   1.086   0.139   9.174  0.3630 -0.0534  0.2484
  153SAPE  H13R17013   1.161   0.108   9.250  2.0249  2.3432 -0.3273
  153SAPE  H13S17014   1.129   0.184   9.082  2.8434 -0.6310  1.0389
  153SAPE  C21417015   0.997   0.028   9.118  0.3028 -0.6998  0.2321
  153SAPE  H14R17016   0.996  -0.059   9.187 -2.5828 -1.2714 -0.3777
  153SAPE  C21517017   0.910   0.025   9.016 -0.1282 -0.4234  0.7525
  153SAPE  H15R17018   0.853  -0.067   8.995 -1.0588  0.5823 -1.4642
  153SAPE  C21617019   0.873   0.137   8.921 -0.1129 -0.8841 -0.4798
  153SAPE  H16R17020   0.886   0.242   8.957 -1.1191 -0.2300 -1.9530
  153SAPE  H16S17021   0.764   0.134   8.899 -0.6147  2.4034  0.8663
  153SAPE  C21717022   0.954   0.130   8.783  0.5561 -0.2610  0.2812
  153SAPE  H17R17023   0.909   0.046   8.726  1.7107 -1.4812  1.0900
  153SAPE  H17S17024   1.059   0.100   8.803  0.8204  0.3773 -0.1061
  153SAPE  C21817025   0.947   0.255   8.699  0.1124  0.5954  0.4227
  153SAPE  H18R17026   1.052   0.289   8.690  0.0588  0.4250 -1.1415
  153SAPE  H18S17027   0.896   0.338   8.753 -0.2478  1.2262 -0.8294
  153SAPE  C21917028   0.892   0.248   8.553 -0.0561 -0.4462 -0.5719
  153SAPE  H19R17029   0.888   0.351   8.511 -1.2339 -1.0496 -2.0217
  153SAPE  H19S17030   0.784   0.220   8.551 -0.6207  1.2079  1.7070
  153SAPE  C22017031   0.971   0.151   8.461  0.0104  0.6096 -0.0439
  153SAPE  H20R17032   1.002   0.062   8.519 -1.6095  0.6746  0.9853
  153SAPE  H20S17033   1.067   0.196   8.429  0.5820 -0.1389  0.5924
  153SAPE  H20T17034   0.922   0.130   8.364  1.0846  2.1810 -0.9754
  153SAPE   C3317035   1.154   0.887  10.096 -0.0162 -0.0162  0.3623
  153SAPE   H3X17036   1.187   0.961  10.019 -0.5749 -1.4818 -1.3640
  153SAPE   H3Y17037   1.072   0.826  10.052  1.7407 -1.8675 -0.5260
  153SAPE   C3417038   1.288   0.808  10.107 -0.0509 -1.0398 -1.4249
  153SAPE   H4X17039   1.274   0.736  10.190  0.1525  0.4952 -0.0089
  153SAPE   H4Y17040   1.381   0.865  10.126  0.4982 -1.5602 -2.4649
  153SAPE   C3517041   1.320   0.735   9.977 -0.3907  0.7587 -0.5204
  153SAPE   H5X17042   1.228   0.682   9.946 -0.2383 -0.6391  1.2379
  153SAPE   H5Y17043   1.390   0.651   9.998 -1.0023  0.2180 -0.6500
  153SAPE   C3617044   1.374   0.820   9.861 -0.0586 -0.1648  0.0679
  153SAPE   H6X17045   1.469   0.870   9.887 -0.4309  0.0003  1.1358
  153SAPE   H6Y17046   1.305   0.907   9.852  0.1147 -0.0760 -0.4324
  153SAPE   C3717047   1.398   0.735   9.734  0.2278  0.2518 -0.0303
  153SAPE   H7X17048   1.313   0.666   9.714 -1.5331  1.6577  2.1085
  153SAPE   H7Y17049   1.487   0.674   9.762 -0.3943 -1.3405 -1.3472
  153SAPE   C3817050   1.438   0.807   9.597 -0.7390  0.0761 -0.2887
  153SAPE   H8X17051   1.504   0.890   9.632 -1.5502  1.1941 -1.3176
  153SAPE   H8Y17052   1.358   0.865   9.547 -0.7593 -0.8127 -1.3287
  153SAPE   C3917053   1.525   0.713   9.509 -0.4138  0.1838  0.6720
  153SAPE   H9X17054   1.455   0.626   9.502 -0.0151 -0.0265 -1.5450
  153SAPE   H9Y17055   1.613   0.678   9.567  0.8715  1.9702 -0.1230
  153SAPE  C31017056   1.564   0.768   9.373  0.0292  0.8881 -0.5296
  153SAPE  H10X17057   1.632   0.854   9.384 -0.1112  1.0622 -0.9984
  153SAPE  H10Y17058   1.477   0.796   9.310  0.2551 -0.9202 -1.7130
  153SAPE  C31117059   1.628   0.656   9.285  0.0951 -0.1498 -0.0829
  153SAPE  H11X17060   1.556   0.571   9.273 -0.6418  0.1699  1.7902
  153SAPE  H11Y17061   1.706   0.612   9.350 -1.0074  0.4004  1.6911
  153SAPE  C31217062   1.681   0.713   9.153 -0.5287  0.6223  0.4418
  153SAPE  H12X17063   1.747   0.798   9.179  0.7705  0.6515 -2.5604
  153SAPE  H12Y17064   1.595   0.746   9.091 -0.1540  1.9845  0.6216
  153SAPE  C31317065   1.770   0.611   9.079  0.9135  0.6120  0.3644
  153SAPE  H13X17066   1.717   0.514   9.062  2.5775 -0.4328  0.8929
  153SAPE  H13Y17067   1.841   0.571   9.154  0.0352 -2.7791 -0.3966
  153SAPE  C31417068   1.838   0.663   8.947 -0.4287  0.0402 -0.4190
  153SAPE  H14X17069   1.928   0.601   8.927  0.4604  0.5272  1.7952
  153SAPE  H14Y17070   1.877   0.764   8.970 -0.3332  0.1104 -0.8821
  153SAPE  C31517071   1.745   0.688   8.829 -0.3627  0.6919 -0.3796
  153SAPE  H15X17072   1.663   0.756   8.860  0.4285  2.6460 -2.2929
  153SAPE  H15Y17073   1.700   0.591   8.800 -1.0809  0.5572  1.1038
  153SAPE  C31617074   1.827   0.731   8.713 -0.0886 -0.0920  0.3784
  153SAPE  H16X17075   1.907   0.659   8.688 -0.2530 -0.6235  1.3624
  153SAPE  H16Y17076   1.875   0.825   8.747  0.4816 -0.0677 -0.4510
  153SAPE  C31717077   1.736   0.769   8.590 -0.4112 -0.2771  0.3516
  153SAPE  H17X17078   1.797   0.836   8.526 -3.0690  0.7973 -1.2289
  153SAPE  H17Y17079   1.652   0.835   8.622 -1.4906 -1.1679 -0.5390
  153SAPE  C31817080   1.675   0.646   8.520 -0.0818 -0.0151  0.2116
  153SAPE  H18X17081   1.762   0.592   8.478  0.0899  2.1915 -2.6659
  153SAPE  H18Y17082   1.609   0.671   8.434  0.1788 -2.1732 -0.6803
  153SAPE  H18Z17083   1.622   0.573   8.585 -0.6124 -1.6546 -1.9424
  154SAPE     N17084   2.406   0.960  10.693 -0.1970  0.0202 -0.0311
  154SAPE   HN117085   2.501   0.953  10.734 -1.9378 -2.3205  4.3489
  154SAPE   HN217086   2.339   0.960  10.773 -0.0859 -1.7778  0.1055
  154SAPE   HN317087   2.393   0.869  10.645 -0.2091 -0.9569  1.7124
  154SAPE   C1217088   2.393   1.080  10.602 -0.4502 -0.1208 -0.9230
  154SAPE  H12A17089   2.301   1.066  10.541 -1.2645 -0.2285  0.2905
  154SAPE  H12B17090   2.480   1.074  10.532 -0.5426 -0.2084 -1.0309
  154SAPE   C1117091   2.382   1.210  10.684  1.1691 -0.7536  0.0766
  154SAPE  H11A17092   2.396   1.295  10.614 -1.1433 -0.4659 -0.1258
  154SAPE  H11B17093   2.469   1.205  10.753  0.4919 -1.6535  0.8912
  154SAPE     P17094   2.140   1.310  10.699  0.2290  0.0663 -0.3001
  154SAPE   O1317095   2.013   1.288  10.771  0.2383 -0.1187 -0.0126
  154SAPE   O1417096   2.188   1.449  10.692 -0.1977 -0.7469  0.6254
  154SAPE   O1217097   2.258   1.224  10.767 -0.2065  0.2749  0.5267
  154SAPE   O1117098   2.131   1.267  10.554 -0.3497  0.5326 -0.5113
  154SAPE    C117099   2.020   1.201  10.494  0.4336 -0.4046  0.6407
  154SAPE    HA17100   1.991   1.113  10.555  2.6699 -0.9061  1.0579
  154SAPE    HB17101   1.935   1.272  10.493  0.5631 -0.1863  2.2688
  154SAPE    C217102   2.045   1.143  10.351 -0.0844  0.2206  0.3363
  154SAPE    HS17103   1.944   1.113  10.317  0.0577  1.3080 -1.1182
  154SAPE   O2117104   2.136   1.034  10.358  0.3241 -0.3609  0.6855
  154SAPE   C2117105   2.083   0.919  10.313  0.0556  0.4310  0.4021
  154SAPE   O2217106   1.975   0.905  10.260  0.3159 -0.7193  0.3184
  154SAPE   C2217107   2.194   0.808  10.306  0.0744  0.3612 -0.2856
  154SAPE   H2R17108   2.274   0.833  10.379  0.8998  1.5311 -1.5327
  154SAPE   H2S17109   2.150   0.710  10.333  0.0144  0.6618  0.7705
  154SAPE    C317110   2.095   1.260  10.262  0.4125 -0.8222  0.1498
  154SAPE    HX17111   2.204   1.274  10.280  0.7591 -1.9176 -0.9526
  154SAPE    HY17112   2.053   1.356  10.301  2.1241 -0.4188  1.1354
  154SAPE   O3117113   2.069   1.246  10.124 -0.1832 -0.3653 -0.0927
  154SAPE   C3117114   2.097   1.351  10.045  0.1300  0.3353 -0.2482
  154SAPE   O3217115   2.133   1.462  10.078  0.6700 -0.0250 -0.0544
  154SAPE   C3217116   2.061   1.306   9.898  0.5488 -0.0448 -0.5712
  154SAPE   H2X17117   1.950   1.309   9.890  0.1405 -1.1725  2.9970
  154SAPE   H2Y17118   2.102   1.207   9.869 -3.8460 -1.9192 -1.1822
  154SAPE   C2317119   2.257   0.805  10.168  0.3394 -0.2229  0.0287
  154SAPE   H3R17120   2.345   0.739  10.182 -1.5043 -2.9176 -0.3045
  154SAPE   H3S17121   2.301   0.907  10.169  1.7843 -0.7981  2.1484
  154SAPE   C2417122   2.167   0.749  10.053  0.0532  0.3085  0.2419
  154SAPE   H4R17123   2.086   0.822  10.031  1.6228  1.1593 -3.4302
  154SAPE   H4S17124   2.119   0.652  10.080 -0.5098  0.4369 -0.2704
  154SAPE   C2517125   2.244   0.733   9.922  0.6601  0.5655 -0.3068
  154SAPE   H5R17126   2.248   0.629   9.886 -1.4703  0.1255  0.6205
  154SAPE   C2617127   2.305   0.821   9.847  0.2073  1.1850 -0.5576
  154SAPE   H6R17128   2.331   0.792   9.744  0.1166  1.1568 -0.5731
  154SAPE   C2717129   2.313   0.965   9.875 -0.1595  0.0438 -0.1822
  154SAPE   H7R17130   2.276   0.994   9.976 -0.0482 -3.2354  0.9095
  154SAPE   H7S17131   2.252   1.023   9.803  0.6703 -3.1816 -3.8068
  154SAPE   C2817132   2.458   1.004   9.862 -0.6318  0.0808  0.1756
  154SAPE   H8R17133   2.501   1.002   9.963 -0.6949  0.5818  0.2111
  154SAPE   C2917134   2.535   1.022   9.753  0.5030 -0.7785  0.3576
  154SAPE   H9R17135   2.642   1.034   9.775 -0.0362 -0.1399  3.0943
  154SAPE  C21017136   2.481   1.004   9.614 -0.5070 -0.9447 -0.0841
  154SAPE  H10R17137   2.478   1.102   9.562  2.5390 -1.2999 -1.1150
  154SAPE  H10S17138   2.375   0.971   9.618 -0.5422 -0.7344  1.9058
  154SAPE  C21117139   2.555   0.906   9.524 -0.1248  0.7325 -0.4196
  154SAPE  H11R17140   2.514   0.806   9.506 -0.7463  0.9533 -0.2329
  154SAPE  C21217141   2.665   0.930   9.453  0.3589 -0.2452 -0.1832
  154SAPE  H12R17142   2.711   0.851   9.391 -0.4965 -0.5792 -0.4164
  154SAPE  C21317143   2.743   1.054   9.452  0.0763  0.1623 -0.4989
  154SAPE  H13R17144   2.830   1.021   9.514 -1.8224  0.0070  2.2653
  154SAPE  H13S17145   2.698   1.135   9.514  2.5830  0.4923  1.0926
  154SAPE  C21417146   2.788   1.112   9.312  0.0702 -0.1439 -0.6531
  154SAPE  H14R17147   2.702   1.169   9.273  0.8882  0.1364 -2.1107
  154SAPE  C21517148   2.898   1.091   9.245  0.5758  0.4582  0.5303
  154SAPE  H15R17149   2.913   1.138   9.146 -1.7426  0.3905  0.1073
  154SAPE  C21617150   3.019   1.008   9.292  0.1313  0.4732  0.0136
  154SAPE  H16R17151   3.004   0.950   9.385 -0.8886 -0.2546 -0.5805
  154SAPE  H16S17152   3.107   1.072   9.316  0.9053 -1.1993  1.9128
  154SAPE  C21717153   3.058   0.930   9.167  0.2257  0.1325 -0.2382
  154SAPE  H17R17154   2.979   0.860   9.133 -0.8147  0.8559  0.6096
  154SAPE  H17S17155   3.136   0.858   9.200 -1.0947 -0.9536  0.6293
  154SAPE  C21817156   3.122   1.007   9.055  0.1096 -0.8168 -0.8999
  154SAPE  H18R17157   3.206   1.057   9.108 -1.1322 -0.0233  0.3908
  154SAPE  H18S17158   3.062   1.090   9.014 -1.2377 -0.9552  0.7219
  154SAPE  C21917159   3.177   0.934   8.942  0.2799  0.7797  0.4375
  154SAPE  H19R17160   3.094   0.882   8.891 -0.2938 -0.5764  2.5934
  154SAPE  H19S17161   3.260   0.868   8.976  0.1183 -0.1733 -0.9612
  154SAPE  C22017162   3.235   1.025   8.835 -0.4388 -0.3037  0.2206
  154SAPE  H20R17163   3.156   1.087   8.787  0.7237 -0.3642 -1.8564
  154SAPE  H20S17164   3.299   0.979   8.757 -1.3444 -0.2388 -0.5877
  154SAPE  H20T17165   3.291   1.098   8.898  0.4485 -1.0893  0.3514
  154SAPE   C3317166   2.115   1.413   9.792  1.2935 -0.3887 -0.0961
  154SAPE   H3X17167   2.222   1.430   9.816  0.4987  2.6369  1.8681
  154SAPE   H3Y17168   2.064   1.510   9.807  2.9662  0.3712  1.0357
  154SAPE   C3417169   2.102   1.364   9.645  0.3106 -0.2137  0.0553
  154SAPE   H4X17170   2.088   1.455   9.584 -1.5649 -0.8957 -0.5892
  154SAPE   H4Y17171   2.005   1.314   9.626 -1.3768  2.1395  1.8655
  154SAPE   C3517172   2.232   1.309   9.594 -0.3607  0.1259 -0.3203
  154SAPE   H5X17173   2.248   1.200   9.608  1.3290  0.5751  1.7121
  154SAPE   H5Y17174   2.319   1.357   9.644 -0.0331 -1.4620  0.6764
  154SAPE   C3617175   2.248   1.346   9.444 -0.0809 -0.2393 -0.3298
  154SAPE   H6X17176   2.256   1.456   9.429 -2.5990  0.1795  0.8413
  154SAPE   H6Y17177   2.150   1.316   9.401  0.5985 -0.1810 -1.9802
  154SAPE   C3717178   2.358   1.266   9.378 -0.5858  0.0443 -0.0781
  154SAPE   H7X17179   2.354   1.156   9.392  0.6351  0.0839  0.6531
  154SAPE   H7Y17180   2.454   1.294   9.425 -0.3470 -0.3633 -0.3157
  154SAPE   C3817181   2.377   1.282   9.226  0.4904  0.8608 -0.2640
  154SAPE   H8X17182   2.429   1.192   9.188 -0.1711 -0.1716  1.1752
  154SAPE   H8Y17183   2.446   1.369   9.217  0.0847  1.4920  1.9279
  154SAPE   C3917184   2.243   1.301   9.157  0.6512 -0.1643  0.0501
  154SAPE   H9X17185   2.200   1.399   9.188  1.4395  0.1457  0.1879
  154SAPE   H9Y17186   2.171   1.221   9.183 -0.4443  1.2002  1.3617
  154SAPE  C31017187   2.243   1.315   9.002  0.1217  0.2157  0.2210
  154SAPE  H10X17188   2.319   1.395   8.993 -2.0884  2.7597  2.5714
  154SAPE  H10Y17189   2.147   1.344   8.955 -0.0907 -1.5997 -0.5637
  154SAPE  C31117190   2.288   1.185   8.930 -0.2450  0.3015 -0.2771
  154SAPE  H11X17191   2.216   1.105   8.955  0.3121  0.6493  2.7332
  154SAPE  H11Y17192   2.387   1.156   8.970 -0.5772  1.2088  1.2752
  154SAPE  C31217193   2.302   1.214   8.786 -0.0338  0.3359  0.2012
  154SAPE  H12X17194   2.209   1.260   8.745  0.0879 -0.9986 -1.7170
  154SAPE  H12Y17195   2.309   1.121   8.726  0.9013 -1.3038  2.7161
  154SAPE  C31317196   2.405   1.317   8.749 -0.1287 -0.4765 -0.2407
  154SAPE  H13X17197   2.509   1.281   8.766 -0.8115 -0.9628  3.9621
  154SAPE  H13Y17198   2.408   1.407   8.814 -0.1821 -1.4826  1.2027
  154SAPE  C31417199   2.390   1.375   8.607  0.2445 -0.2068  0.7192
  154SAPE  H14X17200   2.480   1.439   8.592  0.0305 -0.4959 -2.6038
  154SAPE  H14Y17201   2.299   1.440   8.609  0.1016 -0.4156  1.0188
  154SAPE  C31517202   2.381   1.280   8.491  0.3903  0.2771  0.4359
  154SAPE  H15X17203   2.356   1.331   8.396  1.4053  0.1996  0.1207
  154SAPE  H15Y17204   2.295   1.211   8.509  0.2468  0.4770  0.5207
  154SAPE  C31617205   2.509   1.201   8.459 -0.1675  0.1456  0.2376
  154SAPE  H16X17206   2.550   1.131   8.535 -2.5752 -2.6742 -0.8207
  154SAPE  H16Y17207   2.584   1.280   8.441 -2.0991  2.3087  1.1786
  154SAPE  C31717208   2.481   1.124   8.332 -0.0217 -0.7602  0.3494
  154SAPE  H17X17209   2.442   1.188   8.251 -1.3027  2.1208  3.0214
  154SAPE  H17Y17210   2.418   1.034   8.351  1.4379 -2.2660 -1.5566
  154SAPE  C31817211   2.608   1.065   8.284  0.3204 -0.1265 -0.5067
  154SAPE  H18X17212   2.679   1.139   8.240  0.5540 -0.1695 -0.2007
  154SAPE  H18Y17213   2.586   1.001   8.196 -0.3033  0.2958 -0.6695
  154SAPE  H18Z17214   2.660   1.001   8.358  1.1707 -0.5820 -1.4722
  155SAPE     N17215   3.451   2.858  10.775 -0.2264 -0.3521 -0.0661
  155SAPE   HN117216   3.489   2.951  10.750 -1.9551  0.9177  1.7213
  155SAPE   HN217217   3.420   2.871  10.873  1.1859  1.3478  0.1944
  155SAPE   HN317218   3.516   2.777  10.768 -2.2296 -2.0227 -0.4470
  155SAPE   C1217219   3.331   2.843  10.694 -0.6662 -0.1444  1.2615
  155SAPE  H12A17220   3.357   2.788  10.602  0.3922 -1.5851  2.3748
  155SAPE  H12B17221   3.295   2.947  10.677 -2.3167 -0.6591  1.4415
  155SAPE   C1117222   3.232   2.757  10.773 -0.1884 -1.1270 -0.0754
  155SAPE  H11A17223   3.135   2.755  10.719 -0.4449 -1.0655  0.3834
  155SAPE  H11B17224   3.221   2.809  10.870  0.9092 -0.9148 -0.0471
  155SAPE     P17225   3.189   2.512  10.849  0.1187  0.0226 -0.1945
  155SAPE   O1317226   3.267   2.408  10.921  0.3850 -0.5622  0.0326
  155SAPE   O1417227   3.071   2.560  10.919  0.0033  0.7814  0.0496
  155SAPE   O1217228   3.282   2.626  10.797  0.2610  0.0326  0.2374
  155SAPE   O1117229   3.141   2.452  10.706  0.0119  0.1792 -0.3141
  155SAPE    C117230   3.218   2.454  10.593 -0.8308 -0.1159 -0.4413
  155SAPE    HA17231   3.324   2.480  10.617 -0.1991 -2.6958 -0.0624
  155SAPE    HB17232   3.237   2.348  10.565  1.9131 -0.3436  1.8358
  155SAPE    C217233   3.164   2.529  10.475  0.8089 -0.6135 -0.5171
  155SAPE    HS17234   3.171   2.636  10.504 -1.3715 -1.1976  2.8067
  155SAPE   O2117235   3.039   2.476  10.433 -0.3774  0.1217  0.1455
  155SAPE   C2117236   2.932   2.525  10.498  0.8629 -0.3602 -0.4492
  155SAPE   O2217237   2.924   2.631  10.557 -0.7426 -0.2224  0.3347
  155SAPE   C2217238   2.817   2.437  10.460  0.5921 -0.2049 -0.3242
  155SAPE   H2R17239   2.814   2.437  10.349  1.6980 -0.7816 -0.3688
  155SAPE   H2S17240   2.845   2.334  10.492 -2.5617 -0.8357  0.8491
  155SAPE    C317241   3.267   2.520  10.360  0.2871 -0.1433 -0.5628
  155SAPE    HX17242   3.273   2.412  10.335 -3.3471 -0.9051  1.1526
  155SAPE    HY17243   3.371   2.551  10.380  0.7652 -1.9823 -0.0241
  155SAPE   O3117244   3.207   2.584  10.254 -0.0215 -0.4523 -0.1387
  155SAPE   C3117245   3.237   2.718  10.240 -0.3602 -0.3123 -0.5154
  155SAPE   O3217246   3.329   2.772  10.305 -0.4360  0.9052  0.2231
  155SAPE   C3217247   3.150   2.801  10.144  0.4396  0.7030 -0.6414
  155SAPE   H2X17248   3.049   2.757  10.132 -0.3457  2.4604 -0.8371
  155SAPE   H2Y17249   3.207   2.809  10.049  0.3393 -0.2998 -0.7951
  155SAPE   C2317250   2.679   2.485  10.516 -0.2982 -0.3773 -0.5876
  155SAPE   H3R17251   2.672   2.594  10.498  0.9235 -0.2339 -0.2319
  155SAPE   H3S17252   2.674   2.475  10.626  2.3747 -1.1631 -0.4781
  155SAPE   C2417253   2.569   2.403  10.446  1.0155  0.2970 -0.2846
  155SAPE   H4R17254   2.593   2.295  10.457 -1.1537 -0.0820  1.3308
  155SAPE   H4S17255   2.582   2.427  10.338  1.6473  2.7989  0.2804
  155SAPE   C2517256   2.430   2.434  10.500  0.8437  0.2753 -0.1410
  155SAPE   H5R17257   2.433   2.437  10.609 -1.4471  3.1996 -0.0508
  155SAPE   C2617258   2.317   2.464  10.430  0.4903 -0.8820  0.1099
  155SAPE   H6R17259   2.227   2.502  10.482 -0.2804 -2.0382 -0.3542
  155SAPE   C2717260   2.308   2.476  10.277 -0.4527  0.0981  0.4048
  155SAPE   H7R17261   2.409   2.483  10.229 -0.3228 -1.0892  0.4690
  155SAPE   H7S17262   2.258   2.566  10.236 -0.8540 -0.7712 -1.1297
  155SAPE   C2817263   2.255   2.355  10.201  0.4668 -0.1069 -0.1776
  155SAPE   H8R17264   2.232   2.266  10.262  0.5323  0.4755  0.7213
  155SAPE   C2917265   2.232   2.338  10.068  0.4455 -0.0063  0.1073
  155SAPE   H9R17266   2.194   2.240  10.035  0.3057 -0.3972  1.3552
  155SAPE  C21017267   2.262   2.437   9.960 -0.6508  0.2412  0.4940
  155SAPE  H10R17268   2.349   2.399   9.902 -1.6239 -1.8028  0.3165
  155SAPE  H10S17269   2.294   2.533  10.007 -1.7409  0.3026  1.1372
  155SAPE  C21117270   2.143   2.459   9.869  0.4698  0.3468  0.3473
  155SAPE  H11R17271   2.097   2.560   9.869 -1.9229 -0.6098  2.7322
  155SAPE  C21217272   2.085   2.367   9.786 -0.6191 -0.5705 -0.0296
  155SAPE  H12R17273   1.998   2.397   9.725 -0.5335  2.0707  1.0448
  155SAPE  C21317274   2.121   2.223   9.768 -0.0404 -0.1175  0.3686
  155SAPE  H13R17275   2.102   2.169   9.863  0.3100  0.9744  1.0887
  155SAPE  H13S17276   2.230   2.213   9.750  0.1266 -1.7714  2.0534
  155SAPE  C21417277   2.037   2.151   9.665  0.8136  0.0279 -0.2214
  155SAPE  H14R17278   1.939   2.133   9.712  0.9887 -0.4599 -0.0422
  155SAPE  C21517279   2.070   2.132   9.535 -0.2081  0.0775  0.2097
  155SAPE  H15R17280   1.998   2.082   9.468 -0.4166  0.3429  0.2366
  155SAPE  C21617281   2.196   2.171   9.470 -0.3457  0.1154  0.6375
  155SAPE  H16R17282   2.278   2.096   9.471  1.8399  2.3029 -1.9394
  155SAPE  H16S17283   2.237   2.256   9.528 -1.2679  0.5175  0.7295
  155SAPE  C21717284   2.191   2.205   9.323 -0.0090  0.4210  1.2914
  155SAPE  H17R17285   2.163   2.115   9.265  2.7933  1.0514 -1.2703
  155SAPE  H17S17286   2.292   2.228   9.284  0.2478  1.9063  2.6650
  155SAPE  C21817287   2.095   2.322   9.288  0.5103 -0.0099  0.3279
  155SAPE  H18R17288   2.127   2.418   9.335 -1.3183  0.1111  1.4214
  155SAPE  H18S17289   1.996   2.305   9.336 -0.1508 -0.5194 -1.1506
  155SAPE  C21917290   2.089   2.344   9.139  0.5304  0.4945 -0.8876
  155SAPE  H19R17291   1.992   2.385   9.106 -1.6909 -3.3192  0.3110
  155SAPE  H19S17292   2.090   2.246   9.086 -0.4358 -0.5889  0.9870
  155SAPE  C22017293   2.207   2.430   9.080  0.1339 -0.2857  0.0030
  155SAPE  H20R17294   2.184   2.445   8.973  2.3695 -1.2773 -0.6612
  155SAPE  H20S17295   2.304   2.376   9.088  0.1567 -0.4092 -0.9809
  155SAPE  H20T17296   2.204   2.522   9.142  0.5982 -1.7838  2.3825
  155SAPE   C3317297   3.132   2.940  10.205  0.3904  0.7606 -0.0334
  155SAPE   H3X17298   3.225   2.999  10.198 -0.3369  1.9210 -0.2137
  155SAPE   H3Y17299   3.110   2.941  10.314  0.7696  3.1496  0.0704
  155SAPE   C3417300   3.026   3.029  10.129 -0.4264 -0.1309 -0.3580
  155SAPE   H4X17301   3.029   3.124  10.185  0.6234 -0.8709  0.9005
  155SAPE   H4Y17302   2.924   2.985  10.139 -0.5412  0.3334  0.6870
  155SAPE   C3517303   3.079   3.050   9.982 -0.2476 -0.2239 -0.9374
  155SAPE   H5X17304   3.090   2.954   9.929 -0.3071  0.3877 -2.0796
  155SAPE   H5Y17305   3.179   3.095   9.997 -1.3827  1.6495  2.2057
  155SAPE   C3617306   2.992   3.136   9.893 -0.2671  0.6665  0.2835
  155SAPE   H6X17307   3.065   3.182   9.824  0.5021 -2.7339 -1.3885
  155SAPE   H6Y17308   2.932   3.219   9.938 -0.7329  0.8356 -0.6188
  155SAPE   C3717309   2.912   3.053   9.796  0.2257  0.4084  0.0748
  155SAPE   H7X17310   2.842   2.987   9.850  2.6936 -0.3458  2.5795
  155SAPE   H7Y17311   2.987   2.988   9.747  1.0445 -2.3671  4.4692
  155SAPE   C3817312   2.833   3.145   9.701  0.3140  0.1630 -0.1800
  155SAPE   H8X17313   2.901   3.220   9.656  0.5566 -1.3462 -2.5091
  155SAPE   H8Y17314   2.756   3.195   9.763 -0.7031 -1.9560  0.3815
  155SAPE   C3917315   2.762   3.065   9.591  0.5712  0.3280  0.0238
  155SAPE   H9X17316   2.681   3.009   9.643 -1.6467  2.8355 -0.5144
  155SAPE   H9Y17317   2.843   3.006   9.542 -0.3884 -1.9546  1.0357
  155SAPE  C31017318   2.689   3.159   9.499  0.9045  0.2743  0.0774
  155SAPE  H10X17319   2.730   3.258   9.470 -1.2694  1.1018 -0.3615
  155SAPE  H10Y17320   2.604   3.191   9.564  1.5776 -1.7138  2.0487
  155SAPE  C31117321   2.638   3.078   9.376 -0.3009 -0.0229 -0.2007
  155SAPE  H11X17322   2.551   3.127   9.328  1.4406  2.8847 -0.5501
  155SAPE  H11Y17323   2.604   2.976   9.406  2.1980 -0.6615  0.6685
  155SAPE  C31217324   2.732   3.058   9.254 -0.3864  0.2801  0.2863
  155SAPE  H12X17325   2.825   3.027   9.306  1.5404  2.5127 -1.5391
  155SAPE  H12Y17326   2.761   3.152   9.201  0.7389  0.1548  0.6553
  155SAPE  C31317327   2.699   2.946   9.154 -0.0996 -0.6846  0.6021
  155SAPE  H13X17328   2.599   2.963   9.108  0.7867  2.8623 -0.3712
  155SAPE  H13Y17329   2.708   2.848   9.204  1.6317 -0.9532 -0.1680
  155SAPE  C31417330   2.802   2.940   9.041  0.2292  0.3933 -0.1023
  155SAPE  H14X17331   2.775   2.844   8.991 -0.7475  0.2328  0.7085
  155SAPE  H14Y17332   2.906   2.930   9.080  0.2665 -0.4780 -0.4019
  155SAPE  C31517333   2.787   3.054   8.941 -0.2033  0.1004 -0.2617
  155SAPE  H15X17334   2.788   3.157   8.984 -1.0958  0.5154 -1.2089
  155SAPE  H15Y17335   2.687   3.041   8.895  0.1749 -0.1342 -1.0339
  155SAPE  C31617336   2.891   3.052   8.835  0.4154 -0.3027 -0.7385
  155SAPE  H16X17337   2.910   2.950   8.794  2.6563  0.6393 -2.1812
  155SAPE  H16Y17338   2.990   3.071   8.881  0.4661 -0.3213 -0.8403
  155SAPE  C31717339   2.854   3.143   8.720  1.0012  0.3002  0.4351
  155SAPE  H17X17340   2.859   3.248   8.757 -0.6196 -0.4332  3.0112
  155SAPE  H17Y17341   2.753   3.118   8.681  1.4575  1.6997 -1.8473
  155SAPE  C31817342   2.954   3.138   8.602  1.0714  0.1311  0.2120
  155SAPE  H18X17343   3.011   3.234   8.597  1.2355  0.1573  1.9793
  155SAPE  H18Y17344   2.910   3.126   8.501  1.2935  0.5962  0.0543
  155SAPE  H18Z17345   3.032   3.060   8.612  2.5530  0.9993 -3.2058
  156SAPE     N17346   6.198   5.487  10.417  0.3427  0.0986 -0.1094
  156SAPE   HN117347   6.264   5.517  10.491  0.2578 -0.0441  0.0260
  156SAPE   HN217348   6.241   5.412  10.360  1.2649  0.4889  0.0606
  156SAPE   HN317349   6.177   5.561  10.348 -0.0530 -0.4761 -0.6222
  156SAPE   C1217350   6.062   5.430  10.468  0.5751  0.2433  0.1900
  156SAPE  H12A17351   6.034   5.489  10.558 -1.6759 -1.0655  0.4261
  156SAPE  H12B17352   6.062   5.323  10.497 -2.4054  0.6379  2.1780
  156SAPE   C1117353   5.949   5.438  10.359 -0.7448  0.3524  0.2045
  156SAPE  H11A17354   5.865   5.380  10.404 -0.2378  0.8449  1.8479
  156SAPE  H11B17355   5.988   5.405  10.261  3.6523 -1.0934  2.2007
  156SAPE     P17356   5.956   5.686  10.262  0.0586  0.0338  0.3722
  156SAPE   O1317357   5.886   5.811  10.303  0.0487 -0.3974  0.4190
  156SAPE   O1417358   6.102   5.682  10.267  0.2382 -0.9487  0.3598
  156SAPE   O1217359   5.897   5.575  10.348 -0.2568 -0.0943 -0.0221
  156SAPE   O1117360   5.908   5.638  10.117 -0.8254  0.0950  0.5153
  156SAPE    C117361   5.802   5.699  10.040  0.5925 -0.5551 -0.0578
  156SAPE    HA17362   5.728   5.621  10.014  0.6470 -0.0804 -1.7968
  156SAPE    HB17363   5.745   5.774  10.098 -2.2561 -0.3698 -2.8037
  156SAPE    C217364   5.859   5.762   9.913  0.6427 -0.5548  0.0411
  156SAPE    HS17365   5.775   5.801   9.851 -0.0006  0.1410  1.3089
  156SAPE   O2117366   5.943   5.666   9.847  0.1461  0.0182  1.5170
  156SAPE   C2117367   5.878   5.587   9.763  0.0135 -0.0068 -0.2849
  156SAPE   O2217368   5.754   5.588   9.741  0.6258 -0.0914  0.5078
  156SAPE   C2217369   5.978   5.494   9.694 -0.5122  0.2237 -0.3910
  156SAPE   H2R17370   6.053   5.554   9.637 -0.0059  0.4976  0.5393
  156SAPE   H2S17371   6.039   5.443   9.772  0.3312 -0.6381 -1.5669
  156SAPE    C317372   5.937   5.890   9.963  0.1961 -0.3794 -0.1045
  156SAPE    HX17373   6.003   5.853  10.044  1.0368  0.8647 -0.1845
  156SAPE    HY17374   5.854   5.953  10.003  0.2443  0.9528 -1.9852
  156SAPE   O3117375   6.014   5.961   9.862 -0.2528 -0.0533 -0.7623
  156SAPE   C3117376   6.135   6.002   9.897 -0.4884 -0.2184 -1.2439
  156SAPE   O3217377   6.188   5.968  10.000  0.5955 -0.6534 -0.5730
  156SAPE   C3217378   6.189   6.103   9.794 -0.3421 -0.1882  0.1562
  156SAPE   H2X17379   6.153   6.200   9.835  1.1726  0.1739  0.6826
  156SAPE   H2Y17380   6.132   6.087   9.700  1.5575  1.2082 -1.3066
  156SAPE   C2317381   5.903   5.391   9.615 -0.0015  0.6104  0.5546
  156SAPE   H3R17382   5.851   5.440   9.531  0.2172  0.5733  0.3958
  156SAPE   H3S17383   5.817   5.346   9.670 -1.7858  3.7524  0.5267
  156SAPE   C2417384   5.994   5.274   9.571  0.4128 -0.1265  0.4794
  156SAPE   H4R17385   6.037   5.236   9.666  0.5086  1.5594  1.1366
  156SAPE   H4S17386   6.075   5.316   9.508 -3.2191  2.3061 -3.0035
  156SAPE   C2517387   5.925   5.166   9.487 -0.2723  0.2690 -0.4669
  156SAPE   H5R17388   5.881   5.087   9.550 -0.2214  0.3248 -0.3606
  156SAPE   C2617389   5.898   5.169   9.360  0.3529  0.5694  0.1623
  156SAPE   H6R17390   5.840   5.087   9.315  1.4634 -1.2465  1.9012
  156SAPE   C2717391   5.936   5.274   9.253  0.0043 -0.6959  0.7407
  156SAPE   H7R17392   6.000   5.351   9.301 -0.0007  0.7871 -1.4892
  156SAPE   H7S17393   5.837   5.317   9.224 -0.7028 -3.5404 -1.5686
  156SAPE   C2817394   6.014   5.234   9.137 -0.0243  0.0297 -0.0436
  156SAPE   H8R17395   6.119   5.201   9.146  0.0889  0.8516  2.1453
  156SAPE   C2917396   5.973   5.230   9.011 -0.1823  1.0312  0.7114
  156SAPE   H9R17397   6.048   5.198   8.938 -0.7247  0.4191  0.4184
  156SAPE  C21017398   5.836   5.267   8.953 -0.6894 -0.1649  0.1409
  156SAPE  H10R17399   5.852   5.350   8.881  0.6425 -0.7382 -0.2580
  156SAPE  H10S17400   5.760   5.294   9.029 -0.9986 -1.6308  0.3905
  156SAPE  C21117401   5.779   5.156   8.867  0.6813  0.6041  0.1831
  156SAPE  H11R17402   5.768   5.061   8.922 -0.1953 -0.0756 -1.1042
  156SAPE  C21217403   5.740   5.155   8.735 -0.0800  0.1142 -0.5398
  156SAPE  H12R17404   5.726   5.063   8.677 -0.8935  1.2575 -2.2433
  156SAPE  C21317405   5.727   5.274   8.644  0.4776  1.4103 -0.4221
  156SAPE  H13R17406   5.826   5.282   8.593  0.9076 -1.7423 -0.2374
  156SAPE  H13S17407   5.702   5.367   8.700 -2.1828 -0.0176  0.9593
  156SAPE  C21417408   5.623   5.267   8.540  0.7380  1.0048 -0.5272
  156SAPE  H14R17409   5.520   5.268   8.579  1.1167  0.3651  0.5104
  156SAPE  C21517410   5.637   5.262   8.405  0.6566  0.2361 -0.0004
  156SAPE  H15R17411   5.550   5.252   8.338  1.7443 -0.8282 -1.3351
  156SAPE  C21617412   5.770   5.267   8.333 -0.5778  0.0569  0.8542
  156SAPE  H16R17413   5.783   5.205   8.242 -1.3458  1.0112  0.0660
  156SAPE  H16S17414   5.853   5.227   8.394 -1.1139 -0.2652  1.3883
  156SAPE  C21717415   5.798   5.413   8.274 -0.3026  0.1031  0.7020
  156SAPE  H17R17416   5.906   5.434   8.262 -0.3582 -0.5381 -1.2021
  156SAPE  H17S17417   5.759   5.486   8.348 -2.8032 -2.0672  1.6916
  156SAPE  C21817418   5.711   5.423   8.148 -0.1400 -0.0432 -0.3775
  156SAPE  H18R17419   5.624   5.358   8.172  0.2646 -0.7239 -0.7302
  156SAPE  H18S17420   5.769   5.387   8.061 -0.3428  1.9270 -1.3802
  156SAPE  C21917421   5.661   5.570   8.119 -0.1416 -0.7536 -0.0472
  156SAPE  H19R17422   5.640   5.610   8.221  1.9012 -0.3846  0.2895
  156SAPE  H19S17423   5.570   5.573   8.056  0.9732 -0.7543 -1.7294
  156SAPE  C22017424   5.764   5.650   8.051 -0.3528 -0.1665 -0.1985
  156SAPE  H20R17425   5.788   5.588   7.961 -0.9193 -1.4485  0.5166
  156SAPE  H20S17426   5.854   5.683   8.108  0.3727 -0.7341 -0.9727
  156SAPE  H20T17427   5.730   5.745   8.004 -0.5827 -0.5621 -0.8607
  156SAPE   C3317428   6.345   6.110   9.792  0.8854 -0.0810 -0.6508
  156SAPE   H3X17429   6.367   6.005   9.764  1.6254 -0.1880  0.2927
  156SAPE   H3Y17430   6.384   6.130   9.894 -0.5750 -0.0626 -0.0695
  156SAPE   C3417431   6.398   6.196   9.682 -0.0392 -0.2262  0.4403
  156SAPE   H4X17432   6.509   6.193   9.675 -0.0334 -1.4130  0.9682
  156SAPE   H4Y17433   6.364   6.302   9.690  2.0853  0.7346 -1.6911
  156SAPE   C3517434   6.347   6.143   9.547 -1.0071 -0.2266  0.3007
  156SAPE   H5X17435   6.237   6.141   9.541 -1.3825  0.0431  4.3707
  156SAPE   H5Y17436   6.392   6.041   9.543  0.4004  0.3695  0.1413
  156SAPE   C3617437   6.409   6.213   9.424 -0.7778 -0.2276 -0.9457
  156SAPE   H6X17438   6.519   6.204   9.413  0.2272  3.1697  3.3416
  156SAPE   H6Y17439   6.384   6.320   9.437  0.9585  0.1844 -0.8007
  156SAPE   C3717440   6.350   6.170   9.289 -0.0726  0.2293  0.1608
  156SAPE   H7X17441   6.241   6.190   9.293  0.0532  1.0801 -0.5469
  156SAPE   H7Y17442   6.368   6.061   9.271 -1.2880 -0.1192  0.8944
  156SAPE   C3817443   6.414   6.251   9.179  0.5769  0.0127  0.2240
  156SAPE   H8X17444   6.524   6.235   9.179  0.3879 -1.4249  0.1344
  156SAPE   H8Y17445   6.404   6.361   9.191 -1.9021  0.1295 -2.0345
  156SAPE   C3917446   6.369   6.220   9.042 -0.2088 -0.4280 -0.2446
  156SAPE   H9X17447   6.420   6.286   8.969 -3.8096 -0.4631 -3.0458
  156SAPE   H9Y17448   6.264   6.256   9.034 -0.1352 -0.2802 -0.5750
  156SAPE  C31017449   6.382   6.077   9.001  0.6818  0.4862  0.3518
  156SAPE  H10X17450   6.303   6.015   9.051 -0.9603  1.2277 -1.2109
  156SAPE  H10Y17451   6.481   6.036   9.030  1.2446 -0.6144 -2.7973
  156SAPE  C31117452   6.368   6.063   8.849 -0.0395 -0.0932  0.3361
  156SAPE  H11X17453   6.449   6.124   8.803 -1.8248  2.1171 -0.0554
  156SAPE  H11Y17454   6.268   6.103   8.821 -0.6991 -0.1992  2.3661
  156SAPE  C31217455   6.359   5.921   8.791 -0.6902  0.4291  0.0584
  156SAPE  H12X17456   6.296   5.857   8.856 -1.3664 -1.2734 -2.1463
  156SAPE  H12Y17457   6.464   5.884   8.799 -0.6331  0.1528 -1.6093
  156SAPE  C31317458   6.297   5.913   8.651 -0.0976  0.5912  0.2167
  156SAPE  H13X17459   6.351   5.970   8.572  0.0897  1.0301  0.6530
  156SAPE  H13Y17460   6.191   5.948   8.656 -0.4018 -0.1051 -0.9972
  156SAPE  C31417461   6.297   5.768   8.601  0.1411  0.3753  0.4922
  156SAPE  H14X17462   6.223   5.760   8.518 -1.3092  0.6713  1.7237
  156SAPE  H14Y17463   6.252   5.707   8.682 -0.9437  0.0852 -0.3035
  156SAPE  C31517464   6.430   5.711   8.554  0.7166 -0.2500 -0.0137
  156SAPE  H15X17465   6.421   5.629   8.480  1.9165 -0.1624 -0.2593
  156SAPE  H15Y17466   6.478   5.664   8.643 -1.1089 -1.5377  0.3557
  156SAPE  C31617467   6.531   5.812   8.501  0.8872 -0.1511  0.0749
  156SAPE  H16X17468   6.560   5.884   8.581 -0.4359  1.4088 -0.7759
  156SAPE  H16Y17469   6.509   5.861   8.404  1.5799 -0.9662 -0.5097
  156SAPE  C31717470   6.669   5.754   8.482  0.0071  0.8283 -0.2417
  156SAPE  H17X17471   6.666   5.683   8.396 -2.2286  1.3325 -0.6562
  156SAPE  H17Y17472   6.707   5.688   8.562  0.9796 -0.6601 -1.8566
  156SAPE  C31817473   6.779   5.853   8.447 -0.7819 -0.0402 -0.1365
  156SAPE  H18X17474   6.798   5.944   8.508 -0.2980 -0.2844  0.0812
  156SAPE  H18Y17475   6.761   5.869   8.339 -1.6005  0.7530  0.1048
  156SAPE  H18Z17476   6.878   5.804   8.453 -1.4423 -1.5922 -1.3422
  157SAPE     N17477   4.142   4.874  10.644 -0.5542 -0.4270 -0.2261
  157SAPE   HN117478   4.040   4.866  10.665 -0.2246  0.0681  1.7157
  157SAPE   HN217479   4.183   4.780  10.625 -2.0356 -1.7641  2.5129
  157SAPE   HN317480   4.196   4.907  10.726  1.2372  1.6274 -2.0950
  157SAPE   C1217481   4.188   4.966  10.539  0.5951  0.9026 -0.0857
  157SAPE  H12A17482   4.170   5.071  10.570 -1.7645  1.0472 -1.7461
  157SAPE  H12B17483   4.133   4.949  10.445  0.5036  2.1171 -0.2666
  157SAPE   C1117484   4.337   4.936  10.509  0.3199 -0.1771 -0.0555
  157SAPE  H11A17485   4.378   5.029  10.465  1.1073 -1.1762 -1.5052
  157SAPE  H11B17486   4.341   4.856  10.432  0.4873 -0.9911  0.7739
  157SAPE     P17487   4.549   4.975  10.660 -0.1388  0.0203  0.2645
  157SAPE   O1317488   4.511   5.117  10.662  0.3207 -0.1857  0.1006
  157SAPE   O1417489   4.602   4.913  10.777  0.1238  0.1288 -0.1546
  157SAPE   O1217490   4.420   4.896  10.616 -0.3771 -0.1492  0.1256
  157SAPE   O1117491   4.654   4.962  10.540  0.6143 -0.3548 -0.6127
  157SAPE    C117492   4.678   4.852  10.452  0.0423  0.7408 -0.1797
  157SAPE    HA17493   4.777   4.803  10.468  2.5155  5.1672 -0.3140
  157SAPE    HB17494   4.608   4.769  10.473 -0.6821  0.7791 -2.2127
  157SAPE    C217495   4.669   4.907  10.304  0.0056  0.0451  0.0857
  157SAPE    HS17496   4.743   4.990  10.303  0.7244 -0.5885 -0.1457
  157SAPE   O2117497   4.535   4.951  10.269  0.0536 -0.3697  0.4984
  157SAPE   C2117498   4.517   5.054  10.184  0.0350  0.1382 -0.3204
  157SAPE   O2217499   4.612   5.120  10.142  0.2532 -0.3514 -0.0181
  157SAPE   C2217500   4.369   5.070  10.147 -0.2171  0.1153 -0.0764
  157SAPE   H2R17501   4.330   4.967  10.130 -1.0586  0.6384 -1.4127
  157SAPE   H2S17502   4.323   5.108  10.241  2.3505 -1.5726  2.0210
  157SAPE    C317503   4.727   4.802  10.198  0.8969  0.3508  0.0083
  157SAPE    HX17504   4.648   4.725  10.184 -1.3261  2.5656 -0.4072
  157SAPE    HY17505   4.820   4.770  10.248  0.7827 -0.0262 -0.0180
  157SAPE   O3117506   4.740   4.860  10.066 -0.4862  0.5960  0.0946
  157SAPE   C3117507   4.857   4.914  10.029 -0.3716  0.5031 -0.7739
  157SAPE   O3217508   4.963   4.898  10.091  0.4031 -0.7828 -0.1063
  157SAPE   C3217509   4.830   4.963   9.888  0.1414  0.2355 -0.5062
  157SAPE   H2X17510   4.743   5.032   9.891  1.2109  1.6392 -0.7880
  157SAPE   H2Y17511   4.803   4.868   9.837  0.2118 -1.2743  2.1232
  157SAPE   C2317512   4.333   5.179  10.045 -0.1830  0.5380  0.0310
  157SAPE   H3R17513   4.353   5.281  10.086  5.7514 -0.5942  0.8809
  157SAPE   H3S17514   4.223   5.174  10.030 -0.2590 -0.8351  0.8988
  157SAPE   C2417515   4.406   5.168   9.911  0.7673  0.4798  0.0926
  157SAPE   H4R17516   4.409   5.066   9.867  0.9047  0.1282  0.9106
  157SAPE   H4S17517   4.509   5.209   9.926  0.3633  1.0752  1.4169
  157SAPE   C2517518   4.342   5.268   9.821  0.3205  0.3355  0.4374
  157SAPE   H5R17519   4.327   5.365   9.872 -2.2399  0.3061 -0.0795
  157SAPE   C2617520   4.294   5.256   9.696 -0.1757 -0.1616 -0.5939
  157SAPE   H6R17521   4.224   5.332   9.659 -0.2230  0.3737  0.5348
  157SAPE   C2717522   4.294   5.135   9.605  0.3778 -0.2758 -0.1126
  157SAPE   H7R17523   4.193   5.093   9.582  1.0290 -1.1775 -1.4735
  157SAPE   H7S17524   4.355   5.058   9.656 -0.1850 -1.9326 -1.8205
  157SAPE   C2817525   4.371   5.182   9.481  0.0017 -0.7447 -0.0198
  157SAPE   H8R17526   4.472   5.220   9.502  0.2217 -0.8650 -0.8169
  157SAPE   C2917527   4.329   5.195   9.352  0.3315  0.5364  0.0125
  157SAPE   H9R17528   4.391   5.233   9.269  1.4357 -1.6357 -0.2295
  157SAPE  C21017529   4.189   5.155   9.309  0.0721  0.8335 -0.2753
  157SAPE  H10R17530   4.134   5.246   9.280 -2.1491 -0.2329  0.3652
  157SAPE  H10S17531   4.130   5.099   9.384  0.8430 -0.8679 -0.8802
  157SAPE  C21117532   4.195   5.058   9.193 -0.6486  0.3158 -0.0853
  157SAPE  H11R17533   4.236   4.957   9.209  1.6813  1.3259  0.6594
  157SAPE  C21217534   4.154   5.094   9.072  0.0375 -0.6559  0.5852
  157SAPE  H12R17535   4.150   5.023   8.988 -1.3711  0.1323 -0.0633
  157SAPE  C21317536   4.111   5.230   9.015  0.0475 -0.3284  0.2575
  157SAPE  H13R17537   4.073   5.287   9.103  0.6387 -0.1048  0.3766
  157SAPE  H13S17538   4.026   5.222   8.945  0.4686  0.0759 -0.3073
  157SAPE  C21417539   4.222   5.304   8.944  0.9093 -0.5725 -1.1576
  157SAPE  H14R17540   4.320   5.254   8.937  1.0607 -0.6466  0.7838
  157SAPE  C21517541   4.210   5.425   8.881  0.3330  0.5178 -0.3596
  157SAPE  H15R17542   4.297   5.461   8.822  1.8580 -0.8937  0.9313
  157SAPE  C21617543   4.073   5.496   8.870  0.5387  0.2802 -0.4002
  157SAPE  H16R17544   4.080   5.601   8.906  0.1627  0.8877 -2.0119
  157SAPE  H16S17545   4.004   5.442   8.938  1.2564 -1.6694 -1.1737
  157SAPE  C21717546   4.012   5.491   8.730  0.2866 -0.1830 -0.0875
  157SAPE  H17R17547   3.907   5.526   8.735  0.4296  0.0814  1.9496
  157SAPE  H17S17548   4.012   5.383   8.705  2.8445 -0.0908 -0.8398
  157SAPE  C21817549   4.090   5.570   8.620  0.7836  0.6124 -0.1529
  157SAPE  H18R17550   4.196   5.539   8.621  0.6321  0.0719  1.2099
  157SAPE  H18S17551   4.077   5.678   8.642 -0.4297  0.3263  0.6627
  157SAPE  C21917552   4.041   5.530   8.485  1.3293 -0.7043  0.2341
  157SAPE  H19R17553   3.935   5.562   8.475  1.6041  1.4064  2.7453
  157SAPE  H19S17554   4.048   5.420   8.476  2.1168 -0.6385 -0.0423
  157SAPE  C22017555   4.127   5.594   8.373 -0.7468 -0.7090  0.1274
  157SAPE  H20R17556   4.236   5.584   8.389 -0.7140  1.2968  1.4536
  157SAPE  H20S17557   4.127   5.704   8.365 -0.2527 -0.7175  0.0076
  157SAPE  H20T17558   4.100   5.561   8.270  0.3403 -1.4842  0.0730
  157SAPE   C3317559   4.943   5.026   9.820 -0.0680  0.0666 -0.4701
  157SAPE   H3X17560   5.032   4.970   9.856  0.2157  0.4109 -0.6314
  157SAPE   H3Y17561   4.957   5.131   9.855 -0.5630 -0.1797  0.5196
  157SAPE   C3417562   4.932   5.025   9.664 -0.1610 -0.0198  0.5499
  157SAPE   H4X17563   4.885   4.929   9.635 -1.2408  0.2101  1.4671
  157SAPE   H4Y17564   5.031   5.024   9.614  0.1674  0.6419  1.1703
  157SAPE   C3517565   4.849   5.133   9.595  0.0421 -0.2076 -0.0870
  157SAPE   H5X17566   4.883   5.235   9.624 -1.6009  0.0206  1.1949
  157SAPE   H5Y17567   4.745   5.118   9.629  0.2103  1.5494  1.3362
  157SAPE   C3617568   4.862   5.130   9.442  0.9451 -0.0369 -0.5646
  157SAPE   H6X17569   4.962   5.102   9.401  1.0462 -0.2080 -0.2071
  157SAPE   H6Y17570   4.844   5.236   9.413  2.4812  0.1096 -1.1318
  157SAPE   C3717571   4.754   5.030   9.388 -0.8166  0.1635 -0.1550
  157SAPE   H7X17572   4.657   5.044   9.439 -1.6943 -1.7023 -1.1834
  157SAPE   H7Y17573   4.774   4.924   9.414  2.1963  0.2999 -1.5249
  157SAPE   C3817574   4.738   5.057   9.242  0.3746  0.2981  1.1554
  157SAPE   H8X17575   4.825   5.031   9.178 -0.8307 -0.4426 -0.2384
  157SAPE   H8Y17576   4.714   5.165   9.232  0.4328  0.1906 -0.4452
  157SAPE   C3917577   4.626   4.979   9.171 -0.3385 -0.0125  0.0722
  157SAPE   H9X17578   4.527   4.991   9.220  0.0689 -0.9784  1.1779
  157SAPE   H9Y17579   4.652   4.871   9.176 -2.0216 -0.4421  0.0958
  157SAPE  C31017580   4.608   5.009   9.021 -0.3543 -0.0417  0.1794
  157SAPE  H10X17581   4.528   4.954   8.967 -0.4338  1.7356 -1.6113
  157SAPE  H10Y17582   4.703   4.983   8.970 -0.7111 -1.7339  0.3074
  157SAPE  C31117583   4.588   5.161   8.984  0.0768  0.5081 -0.0314
  157SAPE  H11X17584   4.687   5.209   9.005  1.1027 -0.7744 -1.7018
  157SAPE  H11Y17585   4.513   5.196   9.058 -0.4684 -0.6608 -0.0207
  157SAPE  C31217586   4.536   5.183   8.840 -0.5448  0.4780 -0.1719
  157SAPE  H12X17587   4.495   5.286   8.836 -1.8824 -0.0161  0.4305
  157SAPE  H12Y17588   4.450   5.115   8.822  0.9524 -1.1267 -1.7591
  157SAPE  C31317589   4.644   5.155   8.738  0.0031  0.2243  0.0930
  157SAPE  H13X17590   4.688   5.053   8.744  0.1829  0.2350 -0.8135
  157SAPE  H13Y17591   4.726   5.229   8.749 -0.0558  0.3704 -0.3999
  157SAPE  C31417592   4.597   5.180   8.592  0.5461  0.0644  0.2016
  157SAPE  H14X17593   4.685   5.192   8.525  0.7559  1.3419  0.6849
  157SAPE  H14Y17594   4.533   5.271   8.593 -1.0413 -0.9896 -0.5888
  157SAPE  C31517595   4.507   5.061   8.542  0.6365  0.1464  0.2168
  157SAPE  H15X17596   4.419   5.051   8.610  1.5037 -0.7370  1.2562
  157SAPE  H15Y17597   4.562   4.965   8.542  0.0196 -0.2542 -1.9147
  157SAPE  C31617598   4.457   5.083   8.398  0.3211  0.0321 -0.4473
  157SAPE  H16X17599   4.433   4.987   8.347 -0.1865  1.0412 -2.1879
  157SAPE  H16Y17600   4.529   5.136   8.333  1.8361  1.1199  2.0039
  157SAPE  C31717601   4.315   5.151   8.404 -0.2239  0.3233  0.2397
  157SAPE  H17X17602   4.291   5.181   8.300  0.6095 -0.8836 -0.3231
  157SAPE  H17Y17603   4.323   5.241   8.469 -1.9801  0.8513 -0.2283
  157SAPE  C31817604   4.201   5.052   8.433  0.2441 -0.0749  0.3533
  157SAPE  H18X17605   4.209   4.974   8.354  1.4357 -0.5481  0.9211
  157SAPE  H18Y17606   4.103   5.104   8.444  0.3913 -0.0045  1.4461
  157SAPE  H18Z17607   4.212   5.017   8.538 -0.5891  2.2067  1.2734
  158SAPE     N17608   5.720   5.378  10.706 -0.3971  0.0269  0.1962
  158SAPE   HN117609   5.786   5.343  10.778  0.3490 -0.3777 -0.6660
  158SAPE   HN217610   5.712   5.313  10.625 -2.7298 -0.2739  0.5987
  158SAPE   HN317611   5.754   5.469  10.667 -2.4491 -0.6865 -3.8140
  158SAPE   C1217612   5.578   5.403  10.767 -0.5041  0.2743  0.5682
  158SAPE  H12A17613   5.521   5.464  10.693 -0.7242 -0.4227  0.1486
  158SAPE  H12B17614   5.594   5.470  10.854  0.1554  0.1831  0.5236
  158SAPE   C1117615   5.511   5.266  10.804 -0.5110 -0.0919  0.3101
  158SAPE  H11A17616   5.425   5.293  10.869 -0.0942  0.0842  0.7964
  158SAPE  H11B17617   5.568   5.197  10.870  0.4805  1.3163  0.9831
  158SAPE     P17618   5.371   5.234  10.581  0.0116 -0.2241  0.2453
  158SAPE   O1317619   5.333   5.111  10.507 -0.5899  0.2738  0.1425
  158SAPE   O1417620   5.256   5.304  10.640  0.1138  0.1929 -0.2776
  158SAPE   O1217621   5.475   5.195  10.689  0.4028  0.2981 -0.7942
  158SAPE   O1117622   5.461   5.327  10.492 -0.2660  0.1067  0.3255
  158SAPE    C117623   5.400   5.436  10.421 -0.3458  0.1364 -0.4295
  158SAPE    HA17624   5.306   5.474  10.467 -1.1788  0.3490 -2.2408
  158SAPE    HB17625   5.477   5.516  10.424 -0.5274  0.3154 -0.5150
  158SAPE    C217626   5.382   5.417  10.263 -0.4961  0.1128 -0.2028
  158SAPE    HS17627   5.348   5.516  10.226 -0.6883 -0.1278 -0.6742
  158SAPE   O2117628   5.276   5.318  10.243  0.4182 -0.0986  0.4224
  158SAPE   C2117629   5.153   5.348  10.277 -0.1087  0.5142 -0.0844
  158SAPE   O2217630   5.125   5.442  10.347  0.2517  0.4638  0.4347
  158SAPE   C2217631   5.055   5.242  10.224 -0.0855  0.2031  0.5249
  158SAPE   H2R17632   5.059   5.223  10.115 -1.9920 -2.4298  0.8082
  158SAPE   H2S17633   5.071   5.144  10.275 -1.2745 -1.0784 -1.4383
  158SAPE    C317634   5.514   5.381  10.188 -0.4204 -0.1353  0.1173
  158SAPE    HX17635   5.550   5.282  10.221  2.3301  0.6219 -0.3652
  158SAPE    HY17636   5.599   5.448  10.211 -0.4193 -0.1501  0.1560
  158SAPE   O3117637   5.483   5.398  10.049 -0.0503  0.2345 -0.1616
  158SAPE   C3117638   5.580   5.361   9.963 -0.0358  0.4178 -0.0188
  158SAPE   O3217639   5.696   5.344   9.997  0.1114  0.1424 -0.2354
  158SAPE   C3217640   5.524   5.327   9.823 -0.3816 -0.4589 -0.3963
  158SAPE   H2X17641   5.575   5.233   9.797  1.1417 -0.6144  2.6214
  158SAPE   H2Y17642   5.539   5.408   9.748  0.4284  0.1343  0.3802
  158SAPE   C2317643   4.907   5.272  10.243 -0.1101  0.3136 -0.1253
  158SAPE   H3R17644   4.911   5.307  10.349  1.7913 -0.6234  0.1701
  158SAPE   H3S17645   4.848   5.179  10.232 -0.8494  0.9043 -1.3551
  158SAPE   C2417646   4.838   5.374  10.156 -0.4851 -0.3138 -0.6023
  158SAPE   H4R17647   4.897   5.468  10.153  2.2882 -1.7694  1.9986
  158SAPE   H4S17648   4.740   5.397  10.201 -0.1068 -1.5575  0.9506
  158SAPE   C2517649   4.810   5.316  10.016 -0.4549  0.1830 -0.4702
  158SAPE   H5R17650   4.771   5.214  10.020  1.6256 -0.6282  2.6998
  158SAPE   C2617651   4.826   5.374   9.895  0.7957 -1.2084  0.0876
  158SAPE   H6R17652   4.796   5.318   9.805 -0.8198  0.0397 -0.2026
  158SAPE   C2717653   4.887   5.516   9.867  0.4742 -0.0254 -0.4938
  158SAPE   H7R17654   4.902   5.572   9.962 -1.3221  0.1929 -0.3040
  158SAPE   H7S17655   4.827   5.588   9.807  1.3292  1.2384  0.1383
  158SAPE   C2817656   5.029   5.494   9.806 -0.4554  0.5454  0.1979
  158SAPE   H8R17657   5.093   5.444   9.880 -1.3792 -0.4667  0.3421
  158SAPE   C2917658   5.081   5.536   9.687  0.2281  0.1932 -0.2807
  158SAPE   H9R17659   5.188   5.519   9.670  0.0566 -0.5513 -0.6591
  158SAPE  C21017660   5.009   5.614   9.580 -0.4569 -0.0399  0.7264
  158SAPE  H10R17661   4.911   5.648   9.619 -1.9336 -3.7803  0.6493
  158SAPE  H10S17662   5.002   5.562   9.482 -0.4330 -1.0110  1.2355
  158SAPE  C21117663   5.078   5.746   9.565  0.1919 -0.2415  0.1498
  158SAPE  H11R17664   5.122   5.786   9.658  0.0985 -2.6577  1.3234
  158SAPE  C21217665   5.092   5.810   9.447  0.3982  0.3352 -0.0410
  158SAPE  H12R17666   5.159   5.897   9.440  1.0958 -0.2363 -0.5680
  158SAPE  C21317667   5.050   5.767   9.309 -0.4414  0.1634 -0.1776
  158SAPE  H13R17668   4.963   5.832   9.283 -0.1493  0.5545 -0.1837
  158SAPE  H13S17669   5.021   5.661   9.297  1.3145 -0.3465 -0.0526
  158SAPE  C21417670   5.162   5.765   9.210 -0.1062 -0.2339 -0.3731
  158SAPE  H14R17671   5.264   5.752   9.249  0.1134 -2.7074 -1.5670
  158SAPE  C21517672   5.149   5.758   9.076  0.4735 -0.0447  0.2346
  158SAPE  H15R17673   5.234   5.754   9.006 -0.1797  0.5313 -0.6111
  158SAPE  C21617674   5.017   5.754   9.000 -0.0845  0.7280 -0.2357
  158SAPE  H16R17675   4.999   5.851   8.950  0.0976  0.8037 -0.1528
  158SAPE  H16S17676   4.931   5.742   9.070  0.3543 -0.1114  0.1756
  158SAPE  C21717677   5.010   5.639   8.889 -0.1243 -0.1919 -0.5122
  158SAPE  H17R17678   5.112   5.602   8.868  0.2943  1.1068 -0.8823
  158SAPE  H17S17679   4.955   5.678   8.800 -0.3214  0.3942 -0.1423
  158SAPE  C21817680   4.934   5.514   8.939  0.7807 -0.0411  0.0840
  158SAPE  H18R17681   4.930   5.445   8.852 -0.1885 -0.4501  0.4364
  158SAPE  H18S17682   4.831   5.550   8.958  1.2273  2.2709 -1.4216
  158SAPE  C21917683   4.992   5.449   9.066  0.4268  0.6470 -0.2610
  158SAPE  H19R17684   4.944   5.515   9.141 -0.5044  0.4115 -0.6357
  158SAPE  H19S17685   5.102   5.463   9.058  0.5677  0.0143  0.4208
  158SAPE  C22017686   4.949   5.308   9.084 -0.4361 -0.7613 -0.0266
  158SAPE  H20R17687   4.839   5.309   9.096 -0.3748 -1.9640  0.8352
  158SAPE  H20S17688   5.001   5.256   9.168 -1.3896 -1.5790  0.0707
  158SAPE  H20T17689   4.972   5.244   8.996  1.0228 -0.1735 -0.1030
  158SAPE   C3317690   5.374   5.289   9.823  0.2095  0.6725  0.2175
  158SAPE   H3X17691   5.313   5.378   9.797  0.7717  0.9761 -0.0998
  158SAPE   H3Y17692   5.328   5.252   9.917  0.0240 -0.6980 -0.3983
  158SAPE   C3417693   5.337   5.188   9.706 -0.0680 -0.2366  0.2318
  158SAPE   H4X17694   5.230   5.158   9.710 -0.4305  0.6310 -1.8796
  158SAPE   H4Y17695   5.402   5.098   9.715  0.8845  0.1940 -1.7637
  158SAPE   C3517696   5.358   5.242   9.565 -0.0444  0.0035 -0.1905
  158SAPE   H5X17697   5.465   5.272   9.553  0.2086  0.0334  1.8527
  158SAPE   H5Y17698   5.282   5.322   9.552 -1.0448 -0.6142  1.5490
  158SAPE   C3617699   5.315   5.140   9.451  0.8085  0.1998 -0.6281
  158SAPE   H6X17700   5.207   5.125   9.470  0.4995  4.3619  2.0282
  158SAPE   H6Y17701   5.356   5.037   9.465 -0.4657 -0.3571 -0.7964
  158SAPE   C3717702   5.328   5.184   9.306 -0.1849 -0.4892  0.7375
  158SAPE   H7X17703   5.348   5.294   9.307  1.5482 -0.7166 -1.4879
  158SAPE   H7Y17704   5.229   5.178   9.257  0.8793  0.8336 -1.7593
  158SAPE   C3817705   5.436   5.111   9.222  0.1652  0.2019 -0.8500
  158SAPE   H8X17706   5.413   5.002   9.231 -0.6131  0.5343  2.4555
  158SAPE   H8Y17707   5.537   5.132   9.262  0.7143 -0.7298 -1.7057
  158SAPE   C3917708   5.444   5.151   9.078  0.7749  0.9215  0.5827
  158SAPE   H9X17709   5.527   5.093   9.033  0.9415  0.4819  1.4376
  158SAPE   H9Y17710   5.480   5.257   9.075  0.1290  1.2325  2.5275
  158SAPE  C31017711   5.311   5.132   9.006  0.0953 -0.0121  0.6054
  158SAPE  H10X17712   5.233   5.211   9.016  0.0465  0.1556 -0.8861
  158SAPE  H10Y17713   5.263   5.039   9.042 -0.3877 -0.6935 -1.6370
  158SAPE  C31117714   5.325   5.105   8.849  0.6474  0.4027 -0.6499
  158SAPE  H11X17715   5.265   5.015   8.822 -0.7844  2.0193 -3.2570
  158SAPE  H11Y17716   5.433   5.086   8.836  0.9164  1.9209 -0.7924
  158SAPE  C31217717   5.273   5.210   8.746  0.1243  0.6563  0.5957
  158SAPE  H12X17718   5.282   5.171   8.642  0.2695  1.6223  0.2326
  158SAPE  H12Y17719   5.330   5.305   8.743  1.6391 -0.1561 -3.4838
  158SAPE  C31317720   5.122   5.248   8.765  0.4151 -0.3152 -0.1246
  158SAPE  H13X17721   5.113   5.317   8.852 -2.2086  1.5522 -1.7397
  158SAPE  H13Y17722   5.071   5.153   8.793 -1.2016  0.0856 -1.5764
  158SAPE  C31417723   5.041   5.300   8.648  0.4338 -0.3601  0.2184
  158SAPE  H14X17724   4.935   5.303   8.679  0.2518  2.3184 -0.4006
  158SAPE  H14Y17725   5.038   5.223   8.567  0.8057  0.3511 -0.4880
  158SAPE  C31517726   5.086   5.436   8.599  0.1991 -0.2884 -0.5139
  158SAPE  H15X17727   5.190   5.429   8.561 -0.2275  1.4516 -2.1701
  158SAPE  H15Y17728   5.087   5.511   8.681  2.9721  0.1475 -0.8645
  158SAPE  C31617729   5.002   5.494   8.492  0.5174  0.0291  0.3558
  158SAPE  H16X17730   4.901   5.520   8.531  0.3640 -0.3287  0.1982
  158SAPE  H16Y17731   4.987   5.403   8.431 -0.8561  0.8396 -0.5965
  158SAPE  C31717732   5.059   5.612   8.410 -0.1427  0.1150 -0.2517
  158SAPE  H17X17733   5.161   5.586   8.373  1.0986 -0.1690  3.0086
  158SAPE  H17Y17734   5.071   5.694   8.484  0.7313 -1.9232  1.9884
  158SAPE  C31817735   4.964   5.659   8.295 -0.4902  0.6405  0.3038
  158SAPE  H18X17736   4.863   5.685   8.332 -0.6603 -1.5713  1.5524
  158SAPE  H18Y17737   4.950   5.579   8.219 -0.0061  0.3749  0.4899
  158SAPE  H18Z17738   5.008   5.752   8.253  1.0790 -0.0965  0.2432
  159SAPE     N17739   3.003   2.790   6.391 -0.3309  0.2822 -0.0237
  159SAPE   HN117740   2.980   2.702   6.440 -0.8824  1.6193  2.2798
  159SAPE   HN217741   3.106   2.794   6.374 -0.3889  2.5421 -0.2435
  159SAPE   HN317742   2.991   2.867   6.460  1.0993 -0.0215  0.6100
  159SAPE   C1217743   2.922   2.817   6.273 -0.9568  0.5437 -0.0927
  159SAPE  H12A17744   2.952   2.754   6.187 -0.4895 -0.0994  0.5373
  159SAPE  H12B17745   2.941   2.924   6.249  0.3213  0.1851 -0.8100
  159SAPE   C1117746   2.778   2.795   6.315  0.6023  0.0862 -0.2342
  159SAPE  H11A17747   2.761   2.688   6.335 -1.0097  0.6114  1.4459
  159SAPE  H11B17748   2.720   2.834   6.228  0.7014 -0.3956 -0.5154
  159SAPE     P17749   2.603   2.876   6.482  0.1703 -0.0043  0.5414
  159SAPE   O1317750   2.511   2.893   6.371 -0.2368  0.1989  0.3295
  159SAPE   O1417751   2.582   2.757   6.570  0.2841 -0.0237  0.1457
  159SAPE   O1217752   2.755   2.875   6.424  0.5628 -0.4066 -0.2819
  159SAPE   O1117753   2.591   3.010   6.560 -0.2097  0.1484 -0.3391
  159SAPE    C117754   2.679   3.031   6.669 -0.0539  0.3743  0.5843
  159SAPE    HA17755   2.787   3.020   6.647  0.0256  1.2355  0.4858
  159SAPE    HB17756   2.663   3.136   6.703  1.9404  0.6851  0.6888
  159SAPE    C217757   2.650   2.955   6.802  0.0920 -0.0304 -0.5355
  159SAPE    HS17758   2.661   2.846   6.785 -2.4642 -0.5104  0.4691
  159SAPE   O2117759   2.511   2.977   6.835 -0.6903  0.3521 -0.1919
  159SAPE   C2117760   2.450   2.889   6.907 -0.2952 -0.2387 -0.5257
  159SAPE   O2217761   2.496   2.781   6.948  0.4756 -0.3047  0.2612
  159SAPE   C2217762   2.303   2.942   6.920 -0.2612  0.8745  0.4022
  159SAPE   H2R17763   2.284   3.011   6.834 -1.0531  2.0006  1.4481
  159SAPE   H2S17764   2.243   2.850   6.902  0.7513  0.6289 -2.2222
  159SAPE    C317765   2.747   3.008   6.913  0.4869  0.0421  0.1361
  159SAPE    HX17766   2.727   3.113   6.944 -1.5368  0.5427 -2.5120
  159SAPE    HY17767   2.849   3.008   6.869  0.2041  2.4285 -0.6522
  159SAPE   O3117768   2.737   2.926   7.025  0.2198 -0.1934 -0.2419
  159SAPE   C3117769   2.800   2.810   7.020  1.0355 -0.1873  0.9689
  159SAPE   O3217770   2.866   2.771   6.926 -0.8018  0.3354 -0.4341
  159SAPE   C3217771   2.794   2.746   7.155  0.5797  0.4237 -0.2930
  159SAPE   H2X17772   2.759   2.817   7.233  1.0303 -1.6440  1.9558
  159SAPE   H2Y17773   2.896   2.712   7.182  0.5937 -0.9821 -1.9380
  159SAPE   C2317774   2.278   3.018   7.049  0.1856  0.6123  0.1971
  159SAPE   H3R17775   2.177   3.062   7.052 -0.3635 -0.5364 -0.6061
  159SAPE   H3S17776   2.339   3.110   7.042  0.2927  0.4348 -1.7481
  159SAPE   C2417777   2.301   2.936   7.179 -1.1289  0.4842  0.0235
  159SAPE   H4R17778   2.311   3.013   7.259  0.2975  1.5829 -1.1598
  159SAPE   H4S17779   2.397   2.883   7.166 -0.6137  1.2217  0.7184
  159SAPE   C2517780   2.180   2.853   7.227  0.5158 -0.1271  0.3709
  159SAPE   H5R17781   2.081   2.899   7.206 -0.2094 -1.6442  0.3701
  159SAPE   C2617782   2.182   2.733   7.295  0.3762 -0.1582  0.4232
  159SAPE   H6R17783   2.087   2.689   7.329  0.3606 -1.1081 -0.7724
  159SAPE   C2717784   2.302   2.649   7.331  0.9711  0.5374  0.6438
  159SAPE   H7R17785   2.296   2.595   7.427 -3.0089  0.0021  0.2374
  159SAPE   H7S17786   2.390   2.716   7.345  1.4367  0.5692 -1.9740
  159SAPE   C2817787   2.340   2.544   7.228 -0.3580 -0.0316 -0.0804
  159SAPE   H8R17788   2.399   2.580   7.142 -0.7829 -0.9481 -0.7702
  159SAPE   C2917789   2.323   2.406   7.243  0.2951 -0.4683 -0.4295
  159SAPE   H9R17790   2.363   2.340   7.164 -2.2292 -1.2197 -1.1805
  159SAPE  C21017791   2.265   2.327   7.357 -0.0959 -0.0873  0.2686
  159SAPE  H10R17792   2.265   2.220   7.325  0.0224  0.4020 -1.4575
  159SAPE  H10S17793   2.159   2.345   7.384  0.2186  2.1823  0.1640
  159SAPE  C21117794   2.359   2.323   7.480 -0.4147 -0.8542 -0.5583
  159SAPE  H11R17795   2.464   2.297   7.460 -0.1109 -0.7290  0.7608
  159SAPE  C21217796   2.328   2.351   7.610  0.5182  0.3078 -0.5000
  159SAPE  H12R17797   2.401   2.328   7.690 -0.2977 -2.1592 -0.3880
  159SAPE  C21317798   2.190   2.387   7.657 -0.3564  0.0196  0.1909
  159SAPE  H13R17799   2.171   2.314   7.738  2.0451 -4.1542 -2.6180
  159SAPE  H13S17800   2.113   2.363   7.580  0.9166 -0.3284 -1.0190
  159SAPE  C21417801   2.195   2.532   7.692  0.2819  0.0287 -0.2311
  159SAPE  H14R17802   2.212   2.602   7.609 -0.1006 -0.1884 -0.4993
  159SAPE  C21517803   2.187   2.581   7.816  0.3140 -0.0682  0.0144
  159SAPE  H15R17804   2.200   2.690   7.815 -3.1700  0.4880  0.2036
  159SAPE  C21617805   2.176   2.507   7.951 -0.7239  0.0657  0.9577
  159SAPE  H16R17806   2.224   2.408   7.937 -0.8249  0.3190 -1.5121
  159SAPE  H16S17807   2.069   2.489   7.976 -1.6412 -1.0188 -3.0534
  159SAPE  C21717808   2.248   2.574   8.064 -0.5317  0.3268 -0.4727
  159SAPE  H17R17809   2.195   2.671   8.076 -0.1413  0.3783  1.1297
  159SAPE  H17S17810   2.354   2.595   8.043 -1.1121  1.2452 -2.7276
  159SAPE  C21817811   2.246   2.485   8.197 -0.1333  0.3910  0.3945
  159SAPE  H18R17812   2.288   2.384   8.179 -2.6278 -0.5659 -0.5347
  159SAPE  H18S17813   2.140   2.453   8.205 -0.0669 -0.4256 -1.5475
  159SAPE  C21917814   2.304   2.546   8.320 -0.1315  0.2629 -0.6284
  159SAPE  H19R17815   2.415   2.545   8.321  0.0285 -3.7913 -2.4839
  159SAPE  H19S17816   2.260   2.495   8.408  0.3654  1.5912  0.4335
  159SAPE  C22017817   2.259   2.692   8.347 -0.7882  0.4013  1.0114
  159SAPE  H20R17818   2.148   2.698   8.346 -0.8552 -0.6546  1.2842
  159SAPE  H20S17819   2.299   2.760   8.268 -2.2643  1.5419  1.1977
  159SAPE  H20T17820   2.297   2.721   8.447  0.4886 -1.8679  1.2337
  159SAPE   C3317821   2.709   2.615   7.150 -0.6126 -0.1832 -0.4846
  159SAPE   H3X17822   2.717   2.577   7.046 -2.0800  1.4212 -1.2483
  159SAPE   H3Y17823   2.603   2.646   7.161 -0.1716  1.8315 -1.3884
  159SAPE   C3417824   2.745   2.504   7.250  0.9137 -0.1277 -0.1634
  159SAPE   H4X17825   2.844   2.468   7.214  1.1525 -1.0025  1.2801
  159SAPE   H4Y17826   2.672   2.422   7.237 -0.0027  0.5759  0.4475
  159SAPE   C3517827   2.742   2.554   7.398  0.2572 -0.1623  0.0619
  159SAPE   H5X17828   2.651   2.617   7.408  0.1953  0.0688 -1.6850
  159SAPE   H5Y17829   2.832   2.619   7.399  2.4028 -2.7838 -2.4323
  159SAPE   C3617830   2.750   2.444   7.506  0.1974  0.0089  0.1315
  159SAPE   H6X17831   2.845   2.387   7.513 -1.8759 -3.6671  0.7461
  159SAPE   H6Y17832   2.667   2.376   7.480 -0.1476  0.3853  0.2290
  159SAPE   C3717833   2.726   2.511   7.643  0.6338  0.8340 -0.3032
  159SAPE   H7X17834   2.635   2.574   7.642 -0.7669 -0.9868  1.7045
  159SAPE   H7Y17835   2.814   2.576   7.660 -0.0758  1.8270 -0.3720
  159SAPE   C3817836   2.720   2.411   7.768  0.9382 -0.6380 -0.8135
  159SAPE   H8X17837   2.815   2.352   7.772  2.1542  1.3195  0.7831
  159SAPE   H8Y17838   2.632   2.344   7.765  1.3195 -1.4821  2.6892
  159SAPE   C3917839   2.721   2.490   7.903  0.0239  0.1769  0.4370
  159SAPE   H9X17840   2.642   2.568   7.905  1.0965  1.3337 -0.5242
  159SAPE   H9Y17841   2.818   2.545   7.899 -0.3014  0.7562  0.3507
  159SAPE  C31017842   2.731   2.407   8.033  0.3682 -0.5222 -0.1623
  159SAPE  H10X17843   2.835   2.371   8.049  1.3976  2.5077  0.6086
  159SAPE  H10Y17844   2.661   2.321   8.026 -2.2789  1.2439  2.1766
  159SAPE  C31117845   2.709   2.507   8.151 -0.1140 -0.6254 -0.3457
  159SAPE  H11X17846   2.625   2.579   8.140  1.7338  1.9802  1.2961
  159SAPE  H11Y17847   2.800   2.571   8.146 -0.5586  0.0415 -0.0490
  159SAPE  C31217848   2.701   2.449   8.289 -0.2937  0.0043  0.2939
  159SAPE  H12X17849   2.630   2.365   8.302  1.5566 -1.4033  2.1012
  159SAPE  H12Y17850   2.667   2.533   8.353 -1.1792  3.6310 -4.3830
  159SAPE  C31317851   2.841   2.405   8.350  0.7424  0.3241  0.0891
  159SAPE  H13X17852   2.907   2.493   8.332 -1.1722  1.8073 -0.0583
  159SAPE  H13Y17853   2.883   2.309   8.312 -0.3093  1.2708 -3.9425
  159SAPE  C31417854   2.831   2.394   8.501 -0.0211 -0.3651  0.2884
  159SAPE  H14X17855   2.821   2.490   8.556  0.7900  0.2570 -0.6230
  159SAPE  H14Y17856   2.935   2.370   8.531  0.0208 -0.9461 -0.2884
  159SAPE  C31517857   2.744   2.288   8.568  0.1876  0.1878  0.0631
  159SAPE  H15X17858   2.634   2.308   8.565  0.5062  2.0767 -0.7661
  159SAPE  H15Y17859   2.761   2.275   8.677  1.6915 -0.7170 -0.2518
  159SAPE  C31617860   2.769   2.147   8.502 -0.3680 -0.0513  0.0893
  159SAPE  H16X17861   2.755   2.160   8.393  2.7365  0.0326 -0.3782
  159SAPE  H16Y17862   2.695   2.074   8.541  0.7109 -0.7133  0.9820
  159SAPE  C31717863   2.916   2.096   8.522 -0.0170 -0.1283 -0.5826
  159SAPE  H17X17864   2.967   2.181   8.471  0.1589 -0.6005 -1.1969
  159SAPE  H17Y17865   2.934   2.002   8.467  0.4421 -0.3171 -0.1221
  159SAPE  C31817866   2.975   2.083   8.662  0.4253  0.7923  0.1066
  159SAPE  H18X17867   2.938   2.161   8.731  0.6886  0.0342  1.1211
  159SAPE  H18Y17868   3.086   2.089   8.657  0.4582 -0.4694 -1.5220
  159SAPE  H18Z17869   2.947   1.984   8.703 -0.2814  0.6581 -0.6559
  160SAPE     N17870   2.209   2.932   6.395  0.0579 -0.2588 -0.6090
  160SAPE   HN117871   2.300   2.882   6.400 -0.2253 -1.2431 -3.5341
  160SAPE   HN217872   2.148   2.851   6.372  0.4316 -0.2268 -1.7618
  160SAPE   HN317873   2.210   3.002   6.319 -0.7107 -0.9980 -1.3191
  160SAPE   C1217874   2.154   3.005   6.521  0.2866 -0.1338 -0.0473
  160SAPE  H12A17875   2.174   2.936   6.605  0.5352  0.5002  0.4230
  160SAPE  H12B17876   2.044   3.018   6.517  0.0676 -1.9141 -1.0543
  160SAPE   C1117877   2.214   3.148   6.543 -0.0449  1.1110 -0.1922
  160SAPE  H11A17878   2.320   3.140   6.575  0.4421  0.9715 -1.7618
  160SAPE  H11B17879   2.158   3.196   6.627 -0.9754  0.0437 -0.1741
  160SAPE     P17880   2.158   3.372   6.410 -0.3285 -0.1367 -0.2682
  160SAPE   O1317881   2.238   3.444   6.306 -0.0382 -0.2924  0.1371
  160SAPE   O1417882   2.018   3.363   6.386  0.3031 -0.0196  0.5881
  160SAPE   O1217883   2.214   3.226   6.421 -0.6014  0.4494  0.3856
  160SAPE   O1117884   2.177   3.439   6.557  0.0371 -0.0217 -0.4083
  160SAPE    C117885   2.235   3.569   6.575  0.3390  0.3242  0.4773
  160SAPE    HA17886   2.218   3.632   6.486 -1.3782  0.0262  0.5552
  160SAPE    HB17887   2.174   3.618   6.654  0.3622  2.1499 -0.5912
  160SAPE    C217888   2.383   3.557   6.625  0.4086  0.0763 -0.2690
  160SAPE    HS17889   2.446   3.518   6.543 -0.7188 -0.0089 -1.1220
  160SAPE   O2117890   2.381   3.479   6.747  0.0679 -0.2676  0.0229
  160SAPE   C2117891   2.483   3.409   6.772  0.3553 -0.4253 -0.5455
  160SAPE   O2217892   2.579   3.385   6.699 -0.8771 -0.1599 -0.6103
  160SAPE   C2217893   2.469   3.339   6.912  0.1384  1.0554  0.6519
  160SAPE   H2R17894   2.364   3.303   6.922 -0.0287  1.3111 -0.1466
  160SAPE   H2S17895   2.534   3.250   6.901 -1.5322 -0.2718  1.0012
  160SAPE    C317896   2.440   3.700   6.650 -0.1007 -0.1231 -0.2141
  160SAPE    HX17897   2.437   3.760   6.556  1.3847  0.1824 -0.0957
  160SAPE    HY17898   2.549   3.697   6.669 -0.3889 -1.4522  1.4042
  160SAPE   O3117899   2.355   3.775   6.743 -0.0373 -0.0247 -0.0324
  160SAPE   C3117900   2.416   3.878   6.807 -0.7297 -0.0661  0.3420
  160SAPE   O3217901   2.525   3.918   6.782  0.0031 -0.0205 -0.4025
  160SAPE   C3217902   2.324   3.932   6.926  0.5286 -0.2636  0.0656
  160SAPE   H2X17903   2.218   3.916   6.895 -0.0739  0.2410  1.7121
  160SAPE   H2Y17904   2.327   4.043   6.931 -2.2539 -0.0884 -0.4237
  160SAPE   C2317905   2.487   3.432   7.035  0.4264  0.1624 -0.1289
  160SAPE   H3R17906   2.404   3.505   7.030 -0.4615 -0.9062 -2.2266
  160SAPE   H3S17907   2.581   3.490   7.026  1.9490 -1.8907  1.4746
  160SAPE   C2417908   2.484   3.354   7.171  0.2558 -0.0499  0.5721
  160SAPE   H4R17909   2.382   3.312   7.181  0.6247 -1.4537 -1.0454
  160SAPE   H4S17910   2.488   3.434   7.247 -0.2034  1.1192 -0.5994
  160SAPE   C2517911   2.582   3.240   7.191  0.3611 -0.0145 -0.3093
  160SAPE   H5R17912   2.553   3.135   7.208 -1.5508  1.0014  3.8728
  160SAPE   C2617913   2.718   3.251   7.182 -0.1482  0.0794  0.4629
  160SAPE   H6R17914   2.776   3.159   7.200  0.9515 -0.0824 -3.0130
  160SAPE   C2717915   2.808   3.368   7.159 -0.1114  0.0886  0.3227
  160SAPE   H7R17916   2.759   3.457   7.204 -0.3351  1.6332 -2.7444
  160SAPE   H7S17917   2.821   3.381   7.050  3.6623 -1.1083  0.5089
  160SAPE   C2817918   2.945   3.340   7.223 -0.3476 -0.5833  0.3445
  160SAPE   H8R17919   2.992   3.250   7.182 -0.1996  0.6583 -2.4135
  160SAPE   C2917920   3.001   3.414   7.321 -0.1925  0.0402  0.2172
  160SAPE   H9R17921   3.094   3.372   7.362  0.2082  0.2772 -0.4334
  160SAPE  C21017922   2.955   3.540   7.387 -0.2285 -0.4502  0.4390
  160SAPE  H10R17923   2.932   3.617   7.311  0.2969  0.3265  1.0504
  160SAPE  H10S17924   3.040   3.585   7.442  0.0071 -0.6565  0.2442
  160SAPE  C21117925   2.835   3.533   7.468  0.2282  1.0054  0.1385
  160SAPE  H11R17926   2.748   3.580   7.421  1.7062  2.0606 -1.7150
  160SAPE  C21217927   2.827   3.486   7.593  0.0493  0.0931  0.1586
  160SAPE  H12R17928   2.735   3.495   7.652 -0.1994  0.3024 -0.2622
  160SAPE  C21317929   2.938   3.430   7.675 -0.4872 -0.2701 -0.2268
  160SAPE  H13R17930   3.016   3.377   7.616 -0.0522 -0.8593  0.8407
  160SAPE  H13S17931   2.896   3.354   7.745  1.9680 -1.9442 -0.4412
  160SAPE  C21417932   3.003   3.534   7.768  0.3725 -0.7580 -0.5404
  160SAPE  H14R17933   3.018   3.625   7.708  0.1838 -0.6672 -0.4505
  160SAPE  C21517934   3.046   3.533   7.889 -0.0665 -0.2824  0.2801
  160SAPE  H15R17935   3.090   3.627   7.927  0.2390 -0.2322 -0.1923
  160SAPE  C21617936   3.034   3.419   7.991  0.9159  0.1408  0.0923
  160SAPE  H16R17937   3.130   3.408   8.046 -0.0073 -0.5078  1.6284
  160SAPE  H16S17938   3.012   3.326   7.936 -1.3316  0.4555  0.3867
  160SAPE  C21717939   2.925   3.443   8.094 -0.5745 -0.7738  0.4660
  160SAPE  H17R17940   2.823   3.445   8.049  0.1197 -0.7254 -1.1688
  160SAPE  H17S17941   2.938   3.533   8.158 -2.1159 -0.3619  0.2338
  160SAPE  C21817942   2.906   3.321   8.179  0.8693 -0.4866 -0.0396
  160SAPE  H18R17943   2.988   3.307   8.253  1.2917 -0.6156 -0.5286
  160SAPE  H18S17944   2.918   3.234   8.110 -1.1207  1.1759 -2.6704
  160SAPE  C21917945   2.764   3.319   8.247  0.4152  0.2160  0.2104
  160SAPE  H19R17946   2.741   3.235   8.315  0.1978 -2.9060 -3.4294
  160SAPE  H19S17947   2.692   3.312   8.164  1.6007  0.2483 -0.8529
  160SAPE  C22017948   2.731   3.443   8.330 -0.3709 -0.2538  0.3206
  160SAPE  H20R17949   2.776   3.434   8.431  0.2946  0.8093  0.1384
  160SAPE  H20S17950   2.623   3.462   8.344  0.1886  1.7006  2.6153
  160SAPE  H20T17951   2.763   3.541   8.288 -1.5606 -0.9235 -2.4168
  160SAPE   C3317952   2.340   3.865   7.060  0.0983  0.2736 -0.0466
  160SAPE   H3X17953   2.437   3.895   7.105  0.5645  0.3586 -1.0794
  160SAPE   H3Y17954   2.334   3.756   7.042 -1.4669  0.0179  1.6759
  160SAPE   C3417955   2.238   3.917   7.157  0.9792  0.3710 -0.5135
  160SAPE   H4X17956   2.142   3.877   7.118  1.1814 -1.6090  0.8600
  160SAPE   H4Y17957   2.234   4.027   7.161  2.6145  0.4271  1.5693
  160SAPE   C3517958   2.250   3.855   7.300 -0.3257  0.3623  0.8279
  160SAPE   H5X17959   2.357   3.830   7.317 -0.2101  0.4880  0.2955
  160SAPE   H5Y17960   2.194   3.760   7.296  0.6547 -0.3202  2.4234
  160SAPE   C3617961   2.183   3.940   7.405  0.0061  0.8794  0.2115
  160SAPE   H6X17962   2.077   3.947   7.370  0.2777 -1.3113 -1.2509
  160SAPE   H6Y17963   2.235   4.037   7.396 -0.0340  0.8662 -0.1777
  160SAPE   C3717964   2.181   3.869   7.545  0.3121  0.1613 -0.4538
  160SAPE   H7X17965   2.277   3.819   7.572 -0.1220  0.0906  1.0674
  160SAPE   H7Y17966   2.108   3.786   7.549  0.4493 -0.0207 -1.4770
  160SAPE   C3817967   2.158   3.959   7.665 -0.0479  0.5246  0.4999
  160SAPE   H8X17968   2.065   4.015   7.640  0.5493  1.1646 -0.3535
  160SAPE   H8Y17969   2.241   4.033   7.665 -1.2020  1.8525  0.2633
  160SAPE   C3917970   2.141   3.898   7.801  0.4881 -0.3160 -0.8204
  160SAPE   H9X17971   2.230   3.834   7.819  1.5543  1.5083  0.7342
  160SAPE   H9Y17972   2.050   3.834   7.805 -0.7253  1.2782 -1.4107
  160SAPE  C31017973   2.137   4.002   7.912 -0.3371 -0.4936 -0.1412
  160SAPE  H10X17974   2.040   4.055   7.899 -0.4844 -0.5466  0.6619
  160SAPE  H10Y17975   2.221   4.071   7.891  1.5836 -2.5784  0.2923
  160SAPE  C31117976   2.171   3.942   8.047 -0.1131  0.3135 -0.2032
  160SAPE  H11X17977   2.274   3.901   8.040 -0.0086 -0.2761  2.9627
  160SAPE  H11Y17978   2.089   3.869   8.068 -2.3256  3.2186  2.3131
  160SAPE  C31217979   2.147   4.030   8.164  0.0765 -0.0455 -0.4732
  160SAPE  H12X17980   2.041   4.061   8.166  0.3835  1.1088 -1.3359
  160SAPE  H12Y17981   2.193   4.129   8.146  1.4619  0.1244  3.0816
  160SAPE  C31317982   2.188   3.974   8.305 -0.1809 -0.4515  0.0044
  160SAPE  H13X17983   2.281   3.915   8.298  0.6316  0.9031 -0.9019
  160SAPE  H13Y17984   2.105   3.909   8.341 -0.3324 -1.2612 -1.7193
  160SAPE  C31417985   2.210   4.086   8.410  0.0516  0.8620 -0.7192
  160SAPE  H14X17986   2.272   4.168   8.368  2.1045  0.6780  1.7110
  160SAPE  H14Y17987   2.269   4.041   8.492 -1.0119  0.3345 -0.2247
  160SAPE  C31517988   2.080   4.153   8.461  0.1446  0.4552  0.4154
  160SAPE  H15X17989   2.005   4.071   8.459 -0.6190  1.1042 -2.7570
  160SAPE  H15Y17990   2.048   4.216   8.375  0.8870  1.3499  0.7907
  160SAPE  C31617991   2.091   4.225   8.595 -1.1143  0.0168  0.2393
  160SAPE  H16X17992   2.108   4.148   8.673 -1.8029 -2.0503 -1.5446
  160SAPE  H16Y17993   1.995   4.277   8.616 -1.2413 -0.7770  1.7694
  160SAPE  C31717994   2.203   4.321   8.607 -0.3796 -0.4159 -0.2606
  160SAPE  H17X17995   2.305   4.276   8.609  0.0188  0.4617  1.5648
  160SAPE  H17Y17996   2.196   4.358   8.712 -0.2470 -0.6912 -0.1550
  160SAPE  C31817997   2.196   4.438   8.505 -0.0184  0.6659  0.1486
  160SAPE  H18X17998   2.133   4.526   8.529  0.4932  1.4787 -1.3656
  160SAPE  H18Y17999   2.177   4.415   8.398  1.8947  3.1924 -0.8468
  160SAPE  H18Z18000   2.291   4.495   8.514  0.9851 -1.0110  0.6819
  161SAPE     N18001   5.126   6.263   5.950  0.0413  0.1320 -0.0774
  161SAPE   HN118002   5.196   6.302   5.884 -3.4362  5.0862 -1.4271
  161SAPE   HN218003   5.131   6.159   5.959  0.4431  0.2985  2.1674
  161SAPE   HN318004   5.033   6.296   5.918  0.0756 -1.5633 -2.1502
  161SAPE   C1218005   5.138   6.325   6.085  0.5619  0.0768 -0.0008
  161SAPE  H12A18006   5.154   6.435   6.078  1.8364 -0.0538  0.5977
  161SAPE  H12B18007   5.225   6.277   6.135 -0.0946 -2.4162 -1.0705
  161SAPE   C1118008   5.022   6.291   6.176  0.1831 -0.7515 -0.1454
  161SAPE  H11A18009   4.931   6.349   6.146  0.4741  0.7215  1.6850
  161SAPE  H11B18010   5.038   6.321   6.282 -0.7159 -0.2693 -0.1375
  161SAPE     P18011   5.066   6.042   6.217 -0.4571  0.2576 -0.3280
  161SAPE   O1318012   4.982   5.923   6.216 -0.0426 -1.0302  0.3097
  161SAPE   O1418013   5.190   6.031   6.136 -0.2697 -0.6651 -0.0783
  161SAPE   O1218014   4.975   6.158   6.166 -1.0464  0.1591 -0.0116
  161SAPE   O1118015   5.099   6.101   6.360 -0.1969 -0.2375 -0.1971
  161SAPE    C118016   5.226   6.087   6.421  0.2624 -0.3524 -0.0729
  161SAPE    HA18017   5.316   6.098   6.356  2.4094 -2.6985  2.2264
  161SAPE    HB18018   5.228   6.164   6.500  1.1437 -0.8469  0.4007
  161SAPE    C218019   5.248   5.942   6.479 -0.2715 -0.2747 -0.0427
  161SAPE    HS18020   5.238   5.874   6.392 -2.6613  1.3199 -1.1064
  161SAPE   O2118021   5.163   5.917   6.583 -0.4684 -0.1981  0.0927
  161SAPE   C2118022   5.152   5.789   6.606  0.4166 -0.1413  0.1653
  161SAPE   O2218023   5.205   5.706   6.538 -0.1442 -0.5991  0.5471
  161SAPE   C2218024   5.057   5.765   6.722 -0.4882  0.4449  0.3673
  161SAPE   H2R18025   4.955   5.792   6.687 -0.1994  0.6310 -0.3468
  161SAPE   H2S18026   5.050   5.656   6.743 -0.4975  0.5418  0.8559
  161SAPE    C318027   5.400   5.921   6.520 -0.2016 -0.5888 -0.1428
  161SAPE    HX18028   5.461   5.981   6.449 -1.5463 -0.8413 -1.5781
  161SAPE    HY18029   5.418   5.811   6.511  0.5886 -0.3443 -2.2423
  161SAPE   O3118030   5.435   5.972   6.651  0.3128  0.4301 -0.3099
  161SAPE   C3118031   5.562   5.951   6.685 -0.4408 -0.2909 -0.3281
  161SAPE   O3218032   5.652   5.931   6.609 -0.6750  0.4984  0.3790
  161SAPE   C3218033   5.575   5.967   6.840  0.1828 -0.0852 -0.1083
  161SAPE   H2X18034   5.673   5.920   6.864  0.0485 -0.1919  0.2367
  161SAPE   H2Y18035   5.496   5.921   6.903  0.1135 -0.5129 -0.4972
  161SAPE   C2318036   5.086   5.851   6.852  0.9671  0.0957  0.3065
  161SAPE   H3R18037   5.002   5.847   6.924 -0.2087  0.1181 -1.0248
  161SAPE   H3S18038   5.089   5.960   6.828 -0.2129  0.7796  2.8581
  161SAPE   C2418039   5.217   5.814   6.930 -0.6158  0.7020 -0.0263
  161SAPE   H4R18040   5.235   5.899   7.000  1.9333  0.8465 -0.7469
  161SAPE   H4S18041   5.304   5.817   6.861 -1.0605  0.3679 -0.6087
  161SAPE   C2518042   5.203   5.681   6.981 -0.1222  0.6382  0.1358
  161SAPE   H5R18043   5.193   5.595   6.912 -2.5739  1.4341 -0.5960
  161SAPE   C2618044   5.179   5.655   7.112  0.3192  0.1306  0.3522
  161SAPE   H6R18045   5.160   5.551   7.142 -0.3010  0.3389  0.7020
  161SAPE   C2718046   5.177   5.748   7.231  0.8858  0.0126 -0.2870
  161SAPE   H7R18047   5.122   5.696   7.312  1.8206 -1.9172 -0.8265
  161SAPE   H7S18048   5.120   5.839   7.203 -1.3270 -0.8818  1.0607
  161SAPE   C2818049   5.315   5.800   7.268 -0.4617  0.0603  0.2579
  161SAPE   H8R18050   5.372   5.846   7.186 -0.9230  1.5255  0.7392
  161SAPE   C2918051   5.371   5.797   7.384 -0.4426  0.3060 -0.1548
  161SAPE   H9R18052   5.470   5.843   7.398  0.0064 -1.3437  2.7683
  161SAPE  C21018053   5.319   5.755   7.512  0.2886 -0.2551  0.2602
  161SAPE  H10R18054   5.219   5.707   7.501 -0.7895  2.4704 -4.4511
  161SAPE  H10S18055   5.294   5.842   7.576  0.4222 -0.3655  0.4653
  161SAPE  C21118056   5.389   5.657   7.593 -0.7559 -0.2815  0.6713
  161SAPE  H11R18057   5.425   5.573   7.532 -0.8869 -0.2374  0.5340
  161SAPE  C21218058   5.412   5.673   7.727 -0.0113  0.0195  0.0626
  161SAPE  H12R18059   5.473   5.597   7.778 -0.8377 -0.8972 -0.3084
  161SAPE  C21318060   5.354   5.781   7.824 -0.3774 -0.3294 -0.4739
  161SAPE  H13R18061   5.248   5.804   7.800 -0.2038  0.0035 -0.9499
  161SAPE  H13S18062   5.399   5.882   7.809  1.5592 -1.3042 -1.5979
  161SAPE  C21418063   5.378   5.760   7.970  1.3505 -1.0301 -0.2594
  161SAPE  H14R18064   5.453   5.827   8.015 -1.0181  0.5824  1.4931
  161SAPE  C21518065   5.304   5.676   8.046  0.0146  0.1160 -0.1883
  161SAPE  H15R18066   5.316   5.667   8.155 -1.7125  0.7359  0.0844
  161SAPE  C21618067   5.189   5.590   7.992 -0.5494 -0.3406  0.1816
  161SAPE  H16R18068   5.179   5.599   7.882  0.5517 -0.9603  0.0072
  161SAPE  H16S18069   5.096   5.628   8.038 -1.1190 -0.6782 -0.6715
  161SAPE  C21718070   5.203   5.439   8.000  0.5627  0.2040  0.1920
  161SAPE  H17R18071   5.288   5.401   7.938  0.9886 -1.1652  1.5586
  161SAPE  H17S18072   5.111   5.382   7.973  2.1658 -1.4924 -2.1248
  161SAPE  C21818073   5.229   5.389   8.142  0.0471  0.1806 -0.0601
  161SAPE  H18R18074   5.171   5.449   8.217  0.7285 -1.8430  2.2254
  161SAPE  H18S18075   5.338   5.402   8.160  0.0012  1.6309 -0.7341
  161SAPE  C21918076   5.191   5.242   8.175  0.0240 -0.1953 -0.5134
  161SAPE  H19R18077   5.250   5.217   8.267 -3.9908 -0.7396  2.1831
  161SAPE  H19S18078   5.214   5.177   8.088 -1.7012 -1.9889  0.2934
  161SAPE  C22018079   5.048   5.214   8.216 -0.2558  0.5603 -1.0260
  161SAPE  H20R18080   5.005   5.295   8.278 -0.4731  0.5096 -1.1096
  161SAPE  H20S18081   5.053   5.120   8.276 -0.0873  0.5159 -1.1089
  161SAPE  H20T18082   4.973   5.203   8.134 -0.1950 -0.6560 -0.9444
  161SAPE   C3318083   5.582   6.112   6.883 -0.1589 -0.1772  0.2289
  161SAPE   H3X18084   5.487   6.167   6.865 -0.4863 -0.6783  0.3949
  161SAPE   H3Y18085   5.657   6.160   6.817 -0.5693  0.5682  0.2902
  161SAPE   C3418086   5.640   6.132   7.027  0.7132 -0.0473  0.0495
  161SAPE   H4X18087   5.658   6.240   7.044 -1.0293  0.0801  1.3250
  161SAPE   H4Y18088   5.735   6.073   7.027  0.0768 -1.0885  0.3603
  161SAPE   C3518089   5.562   6.071   7.148 -0.3272  0.4259  0.1477
  161SAPE   H5X18090   5.559   5.960   7.143 -3.3470  0.4485 -0.0440
  161SAPE   H5Y18091   5.455   6.100   7.142 -0.7253 -0.8394  0.7204
  161SAPE   C3618092   5.601   6.104   7.293  0.0220  0.6037  0.0284
  161SAPE   H6X18093   5.532   6.044   7.356  1.9272 -0.5874  1.0957
  161SAPE   H6Y18094   5.585   6.213   7.303 -0.2863  0.5299  0.3370
  161SAPE   C3718095   5.737   6.064   7.344 -0.2330  0.3148  0.2891
  161SAPE   H7X18096   5.751   6.101   7.448 -0.0868 -2.7189  1.4664
  161SAPE   H7Y18097   5.811   6.114   7.278 -1.0893 -0.2948 -1.1806
  161SAPE   C3818098   5.764   5.911   7.347 -0.2394 -0.1100  1.0118
  161SAPE   H8X18099   5.734   5.858   7.254 -0.9681  2.3672 -0.2514
  161SAPE   H8Y18100   5.696   5.874   7.427  0.3089 -0.8314  1.1571
  161SAPE   C3918101   5.889   5.856   7.401 -0.2021 -0.9227 -0.1826
  161SAPE   H9X18102   5.975   5.893   7.342  0.7028 -0.0968  1.5629
  161SAPE   H9Y18103   5.895   5.746   7.389  0.3893 -1.2696  2.6327
  161SAPE  C31018104   5.923   5.898   7.547  0.0599  0.2707  0.2836
  161SAPE  H10X18105   5.904   6.007   7.558  1.3553  0.6211 -0.6602
  161SAPE  H10Y18106   6.032   5.881   7.559 -0.1726 -2.2645 -0.4684
  161SAPE  C31118107   5.866   5.810   7.664 -0.9273 -0.3842  0.1572
  161SAPE  H11X18108   5.821   5.718   7.620  0.2186 -0.9387  0.1202
  161SAPE  H11Y18109   5.792   5.861   7.730  1.3498  2.0597  0.9849
  161SAPE  C31218110   5.985   5.770   7.765  0.2240  0.4884 -0.0377
  161SAPE  H12X18111   6.075   5.742   7.707 -1.0435 -0.4760 -1.6388
  161SAPE  H12Y18112   5.951   5.683   7.826  0.2234  0.7195  0.2888
  161SAPE  C31318113   6.018   5.877   7.869 -0.1113 -0.4832  0.4992
  161SAPE  H13X18114   5.924   5.911   7.918  0.6120 -0.7407  2.1213
  161SAPE  H13Y18115   6.054   5.971   7.820  2.0308 -1.1694  0.6807
  161SAPE  C31418116   6.117   5.842   7.985 -0.1961 -0.0814 -0.2827
  161SAPE  H14X18117   6.221   5.835   7.944  0.0658  0.8143  0.2058
  161SAPE  H14Y18118   6.084   5.743   8.022 -0.9409 -1.2400 -3.6580
  161SAPE  C31518119   6.111   5.944   8.098 -0.0678  0.8713  0.0414
  161SAPE  H15X18120   6.016   5.932   8.154 -0.7358 -0.1423 -1.2773
  161SAPE  H15Y18121   6.107   6.041   8.044 -0.2079  0.1514 -1.2774
  161SAPE  C31618122   6.233   5.930   8.189 -0.0977 -0.6492  0.1035
  161SAPE  H16X18123   6.322   5.925   8.123 -0.2842 -0.5086 -0.1608
  161SAPE  H16Y18124   6.217   5.838   8.249  1.8029 -0.8452  0.3807
  161SAPE  C31718125   6.256   6.053   8.283  0.8691  0.5709 -0.2599
  161SAPE  H17X18126   6.263   6.149   8.229 -1.3001 -0.4117 -2.4811
  161SAPE  H17Y18127   6.344   6.035   8.348  1.0215  3.8501  0.5965
  161SAPE  C31818128   6.128   6.071   8.373  0.0385 -0.5778 -0.0111
  161SAPE  H18X18129   6.033   6.073   8.316  0.1838 -1.4300 -0.2960
  161SAPE  H18Y18130   6.149   6.151   8.448  2.0309 -1.6141  0.6240
  161SAPE  H18Z18131   6.129   5.977   8.432  0.5689 -1.5824 -1.5725
  162SAPE     N18132   6.275   4.916   5.801  0.0405 -0.9577  0.3565
  162SAPE   HN118133   6.342   4.994   5.821 -0.2826 -1.2832  3.1181
  162SAPE   HN218134   6.249   4.890   5.704 -0.3417 -0.3323  0.2889
  162SAPE   HN318135   6.180   4.942   5.835  0.3339 -1.0965  1.3377
  162SAPE   C1218136   6.317   4.796   5.882  0.1801 -0.0474 -0.2236
  162SAPE  H12A18137   6.387   4.731   5.824  0.1311 -2.1109  1.8919
  162SAPE  H12B18138   6.228   4.733   5.901 -1.8129  1.9774 -2.1113
  162SAPE   C1118139   6.376   4.829   6.015 -0.5398  0.5220 -0.1927
  162SAPE  H11A18140   6.398   4.731   6.063 -1.9142  0.5770  0.6297
  162SAPE  H11B18141   6.301   4.884   6.076 -2.2156  0.4993 -2.1240
  162SAPE     P18142   6.512   5.053   6.023  0.0534 -0.1792 -0.3003
  162SAPE   O1318143   6.647   5.109   6.049  0.8091 -0.0361 -0.1832
  162SAPE   O1418144   6.439   5.110   5.913  0.3795  0.4064  0.5611
  162SAPE   O1218145   6.499   4.896   6.004  0.5917 -0.2773 -0.1284
  162SAPE   O1118146   6.415   5.080   6.140 -0.0519 -0.8247  0.3004
  162SAPE    C118147   6.417   5.013   6.263  0.0237 -0.1672 -0.2747
  162SAPE    HA18148   6.317   4.970   6.287 -0.4691  1.1771  0.1459
  162SAPE    HB18149   6.498   4.938   6.277 -0.7331 -0.4373  3.8414
  162SAPE    C218150   6.443   5.124   6.374 -0.2628  0.4367 -0.2034
  162SAPE    HS18151   6.539   5.176   6.355 -0.3916  1.5641  1.9690
  162SAPE   O2118152   6.451   5.062   6.509  0.8459 -1.0528  0.6096
  162SAPE   C2118153   6.501   5.147   6.597  0.8142  0.5098  0.3484
  162SAPE   O2218154   6.546   5.255   6.576 -0.1837 -0.1560  0.0445
  162SAPE   C2218155   6.490   5.069   6.731  0.6419  0.5393  0.8795
  162SAPE   H2R18156   6.397   5.116   6.769 -0.9623  0.2056 -2.2674
  162SAPE   H2S18157   6.463   4.964   6.709 -0.8590  1.0838 -0.0624
  162SAPE    C318158   6.322   5.221   6.377 -0.1101  0.3972  0.4491
  162SAPE    HX18159   6.306   5.249   6.271  1.7397  0.3095  0.1136
  162SAPE    HY18160   6.332   5.316   6.434  0.0338  1.3834 -1.1806
  162SAPE   O3118161   6.203   5.158   6.430 -0.2549  0.9507  0.4389
  162SAPE   C3118162   6.094   5.231   6.402  0.0579 -0.4200 -0.6248
  162SAPE   O3218163   6.091   5.334   6.336 -0.1154  0.3224  0.3095
  162SAPE   C3218164   5.982   5.155   6.478 -0.3446 -0.0530  0.1756
  162SAPE   H2X18165   6.029   5.055   6.488  0.7109  0.5829  2.1001
  162SAPE   H2Y18166   5.894   5.146   6.410  0.7168  1.6812 -1.5054
  162SAPE   C2318167   6.603   5.079   6.826 -0.1921 -0.1426  1.1533
  162SAPE   H3R18168   6.561   5.069   6.929 -2.5723  0.6464  0.3357
  162SAPE   H3S18169   6.637   5.184   6.811  1.3011 -0.3495  2.8178
  162SAPE   C2418170   6.728   4.986   6.802 -0.0658 -0.2474 -0.9870
  162SAPE   H4R18171   6.807   5.022   6.871 -1.5848  0.0121  0.7116
  162SAPE   H4S18172   6.778   5.001   6.704  0.1549  0.3268 -0.7952
  162SAPE   C2518173   6.690   4.845   6.830 -0.6875 -0.4040 -0.5215
  162SAPE   H5R18174   6.668   4.793   6.736  2.4791  0.6785 -2.0021
  162SAPE   C2618175   6.685   4.784   6.943 -0.0323  0.1214 -0.2554
  162SAPE   H6R18176   6.660   4.677   6.939 -0.8237  0.3351 -1.8915
  162SAPE   C2718177   6.726   4.835   7.079  0.0222 -0.8620  0.6102
  162SAPE   H7R18178   6.651   4.905   7.121  0.6457 -0.4406  1.0400
  162SAPE   H7S18179   6.811   4.905   7.068 -1.1970  0.3832 -1.5093
  162SAPE   C2818180   6.770   4.729   7.175  0.4631 -0.4262  0.8075
  162SAPE   H8R18181   6.756   4.626   7.140 -0.5509  0.7607 -2.7124
  162SAPE   C2918182   6.817   4.757   7.293 -0.0278 -0.0155 -0.2045
  162SAPE   H9R18183   6.858   4.681   7.362  1.5993  1.5673  0.6475
  162SAPE  C21018184   6.847   4.889   7.352  0.1853 -0.1869 -0.1304
  162SAPE  H10R18185   6.889   4.960   7.277 -1.1973 -1.9821 -2.7806
  162SAPE  H10S18186   6.936   4.867   7.415  1.2443  0.1534 -1.4581
  162SAPE  C21118187   6.736   4.935   7.448 -0.1346  0.6980 -0.0912
  162SAPE  H11R18188   6.654   4.994   7.405 -0.3231  1.0451  0.7333
  162SAPE  C21218189   6.704   4.896   7.573  0.0466  0.6519  0.1236
  162SAPE  H12R18190   6.620   4.949   7.619 -1.0265 -1.1170  0.3168
  162SAPE  C21318191   6.782   4.797   7.657  0.1155  0.1531 -0.5050
  162SAPE  H13R18192   6.860   4.743   7.600  1.8361  1.2530  0.7283
  162SAPE  H13S18193   6.710   4.728   7.708 -0.1436 -0.3957 -1.5879
  162SAPE  C21418194   6.858   4.866   7.772  0.6019  0.2557 -0.0202
  162SAPE  H14R18195   6.967   4.875   7.759  0.6428 -0.6035 -0.3389
  162SAPE  C21518196   6.804   4.898   7.889  0.8963  0.5289 -0.0381
  162SAPE  H15R18197   6.868   4.949   7.962  0.7179  1.1403 -0.3020
  162SAPE  C21618198   6.657   4.884   7.923  0.0939 -0.2266  0.2527
  162SAPE  H16R18199   6.634   4.779   7.951  1.1224 -1.3436 -2.7203
  162SAPE  H16S18200   6.592   4.907   7.836 -2.4484 -0.7155  1.9043
  162SAPE  C21718201   6.614   4.979   8.040 -0.1607  0.4784  0.4195
  162SAPE  H17R18202   6.505   4.963   8.055  0.1694 -0.1413  2.4031
  162SAPE  H17S18203   6.639   5.082   8.008  1.6743 -0.2434 -0.6637
  162SAPE  C21818204   6.656   4.954   8.181  0.4013 -0.0838 -0.0644
  162SAPE  H18R18205   6.767   4.951   8.182  0.4912  0.6245 -2.2713
  162SAPE  H18S18206   6.614   4.859   8.219 -1.0470  0.5315 -0.0735
  162SAPE  C21918207   6.590   5.069   8.262 -0.8539 -0.4748  0.2739
  162SAPE  H19R18208   6.583   5.040   8.369  2.3194 -2.0835  0.1565
  162SAPE  H19S18209   6.482   5.057   8.239 -0.4947 -1.0270 -1.1993
  162SAPE  C22018210   6.641   5.211   8.240  0.2353 -0.3051 -0.3849
  162SAPE  H20R18211   6.583   5.265   8.162  2.1400  4.3022  1.0445
  162SAPE  H20S18212   6.747   5.208   8.206  0.7611  1.7401  0.8743
  162SAPE  H20T18213   6.627   5.273   8.331 -1.3319  0.0926 -0.8661
  162SAPE   C3318214   5.950   5.206   6.620  0.1564 -0.1494  0.1330
  162SAPE   H3X18215   5.884   5.139   6.678  0.1299 -0.9215 -0.7591
  162SAPE   H3Y18216   5.910   5.310   6.622 -0.4166 -0.3813  1.7098
  162SAPE   C3418217   6.083   5.196   6.712  0.0162  0.3336 -0.1357
  162SAPE   H4X18218   6.168   5.241   6.656  0.1715 -0.6437 -0.7031
  162SAPE   H4Y18219   6.100   5.087   6.719 -3.6412 -0.2797  2.1977
  162SAPE   C3518220   6.062   5.262   6.846  0.7830 -0.6110 -0.6753
  162SAPE   H5X18221   5.971   5.229   6.902  0.5092  1.5401  0.2457
  162SAPE   H5Y18222   6.042   5.369   6.826 -0.3305 -0.5994  0.3886
  162SAPE   C3618223   6.183   5.253   6.943 -0.2914  0.2085 -0.1662
  162SAPE   H6X18224   6.253   5.331   6.905 -0.1909  0.7070  0.9993
  162SAPE   H6Y18225   6.238   5.157   6.947 -1.2960 -0.3320  0.9940
  162SAPE   C3718226   6.160   5.292   7.094  0.5273  0.2799  1.1680
  162SAPE   H7X18227   6.260   5.280   7.142  1.1448  0.7070  0.0368
  162SAPE   H7Y18228   6.086   5.217   7.130  0.9018 -0.7652 -0.1486
  162SAPE   C3818229   6.127   5.439   7.124 -0.0681 -1.3363 -0.6678
  162SAPE   H8X18230   6.033   5.447   7.065 -1.1738 -0.4159  1.1244
  162SAPE   H8Y18231   6.211   5.498   7.082 -0.1442 -1.6909 -1.3230
  162SAPE   C3918232   6.091   5.470   7.271 -0.7135 -1.4321 -0.2049
  162SAPE   H9X18233   5.998   5.422   7.309 -1.3355 -0.3548 -0.3352
  162SAPE   H9Y18234   6.078   5.580   7.281 -3.5165 -1.7583  0.4642
  162SAPE  C31018235   6.207   5.443   7.371  0.4356  0.5940  0.2097
  162SAPE  H10X18236   6.295   5.499   7.330 -0.0052 -1.8260 -4.8959
  162SAPE  H10Y18237   6.240   5.338   7.357  0.3552  0.5453  0.3887
  162SAPE  C31118238   6.190   5.478   7.520  0.2963 -0.3481  0.8770
  162SAPE  H11X18239   6.094   5.434   7.554 -0.1625 -0.4817 -0.5138
  162SAPE  H11Y18240   6.161   5.586   7.523  0.0897 -0.3929  0.6152
  162SAPE  C31218241   6.316   5.458   7.606 -0.7077 -0.2670 -0.1947
  162SAPE  H12X18242   6.409   5.497   7.560 -1.8375  0.4418 -2.0004
  162SAPE  H12Y18243   6.346   5.351   7.599  3.2492  0.3312  3.5728
  162SAPE  C31318244   6.287   5.507   7.748  0.6664  0.0899  0.0326
  162SAPE  H13X18245   6.180   5.493   7.776  0.0711 -1.3045 -2.6320
  162SAPE  H13Y18246   6.302   5.617   7.761 -0.0314  0.0284  1.6473
  162SAPE  C31418247   6.380   5.451   7.854 -0.2698  0.6836  0.0781
  162SAPE  H14X18248   6.484   5.489   7.838 -0.5053  1.4893  0.4138
  162SAPE  H14Y18249   6.384   5.341   7.865 -0.1016  0.7365  0.5543
  162SAPE  C31518250   6.338   5.489   7.999 -0.2551 -0.6087  0.1575
  162SAPE  H15X18251   6.322   5.599   8.003 -1.6855 -0.8154  3.9427
  162SAPE  H15Y18252   6.419   5.474   8.073 -0.2097  1.1065  0.5095
  162SAPE  C31618253   6.208   5.424   8.045  0.3250  0.6289  0.1802
  162SAPE  H16X18254   6.212   5.318   8.011  1.2498  0.8417 -0.4414
  162SAPE  H16Y18255   6.123   5.480   8.001  0.8242 -0.5220 -2.4175
  162SAPE  C31718256   6.192   5.425   8.195  0.8094  0.0440  0.2235
  162SAPE  H17X18257   6.272   5.362   8.240 -0.7551 -0.8641  1.8549
  162SAPE  H17Y18258   6.107   5.358   8.219  1.9646 -2.3904 -1.9703
  162SAPE  C31818259   6.182   5.560   8.265 -0.7071 -0.7240 -0.4178
  162SAPE  H18X18260   6.172   5.547   8.375 -1.8009 -1.1604 -0.5626
  162SAPE  H18Y18261   6.096   5.625   8.240  0.3475  0.5245 -0.9891
  162SAPE  H18Z18262   6.273   5.624   8.251 -1.3231  0.4111  0.5936
  163SAPE     N18263   2.597   2.205   6.356  0.2686 -0.3151 -0.4807
  163SAPE   HN118264   2.657   2.125   6.386  0.3532 -0.1775 -0.2768
  163SAPE   HN218265   2.502   2.181   6.323 -0.2587  0.4859  0.3990
  163SAPE   HN318266   2.645   2.255   6.279 -0.8927  0.3991 -0.7709
  163SAPE   C1218267   2.590   2.313   6.469  0.7003  0.0485 -0.1604
  163SAPE  H12A18268   2.534   2.400   6.427  0.3608  0.2463  0.6734
  163SAPE  H12B18269   2.691   2.353   6.488 -0.6928  3.3199  1.0590
  163SAPE   C1118270   2.510   2.262   6.596 -0.4099 -0.1191  0.5707
  163SAPE  H11A18271   2.516   2.339   6.675  0.1514 -1.5947  2.0332
  163SAPE  H11B18272   2.559   2.169   6.634  0.9666  0.0922 -0.6016
  163SAPE     P18273   2.254   2.323   6.543  0.0646 -0.3806 -0.2768
  163SAPE   O1318274   2.281   2.435   6.443 -0.0508 -0.1691  0.4036
  163SAPE   O1418275   2.143   2.230   6.521 -0.3221  0.3334 -0.0834
  163SAPE   O1218276   2.377   2.220   6.561 -0.3238  0.2966  0.1943
  163SAPE   O1118277   2.226   2.389   6.688 -0.3182  0.8716  0.2904
  163SAPE    C118278   2.242   2.309   6.809 -0.1813  0.4175 -0.4501
  163SAPE    HA18279   2.305   2.221   6.786  1.0479  1.1398  0.0567
  163SAPE    HB18280   2.295   2.374   6.883 -2.0463  1.2240  0.2440
  163SAPE    C218281   2.102   2.269   6.859  1.1835  0.8430 -0.3097
  163SAPE    HS18282   2.047   2.218   6.776 -1.8644  0.2542  1.8907
  163SAPE   O2118283   2.046   2.399   6.901  0.1323  0.7976 -0.0214
  163SAPE   C2118284   1.916   2.419   6.902 -0.6759  0.6170  0.8949
  163SAPE   O2218285   1.829   2.344   6.870  0.4156  0.2270  0.1487
  163SAPE   C2218286   1.877   2.554   6.967  0.3402  0.5385 -0.0399
  163SAPE   H2R18287   1.933   2.639   6.921 -0.8998  0.2276 -2.2434
  163SAPE   H2S18288   1.769   2.559   6.941  0.6895 -1.5369 -2.1884
  163SAPE    C318289   2.090   2.174   6.985 -0.5319  0.4547 -0.5064
  163SAPE    HX18290   1.988   2.150   7.020 -0.2180  0.5377  0.4826
  163SAPE    HY18291   2.134   2.233   7.069 -0.0968  1.0813 -1.1569
  163SAPE   O3118292   2.169   2.060   6.972  0.5223  0.3051 -0.4206
  163SAPE   C3118293   2.107   1.959   6.901 -0.3581 -0.3905 -1.0648
  163SAPE   O3218294   1.998   1.970   6.861 -0.2088  0.3991  0.3026
  163SAPE   C3218295   2.210   1.849   6.876 -0.6655 -0.0150 -0.2391
  163SAPE   H2X18296   2.308   1.889   6.910 -1.0399  0.2165  0.6094
  163SAPE   H2Y18297   2.211   1.835   6.766  0.7456 -0.0945 -0.2317
  163SAPE   C2318298   1.920   2.537   7.119 -0.0366 -0.0445  0.3633
  163SAPE   H3R18299   1.912   2.639   7.162 -2.3305  0.8492 -1.9036
  163SAPE   H3S18300   2.028   2.511   7.120  0.0792  0.3260 -0.8515
  163SAPE   C2418301   1.839   2.442   7.208 -0.5908 -0.8675  0.1705
  163SAPE   H4R18302   1.851   2.336   7.178 -1.0638 -1.2511  1.2911
  163SAPE   H4S18303   1.730   2.464   7.208 -0.2813  0.8284  0.5992
  163SAPE   C2518304   1.876   2.450   7.353  0.2201 -0.1190 -0.2083
  163SAPE   H5R18305   1.907   2.553   7.378  1.8371  0.3053 -3.4387
  163SAPE   C2618306   1.879   2.347   7.446  0.0964  0.0720  0.3312
  163SAPE   H6R18307   1.915   2.372   7.547  2.4056  1.4853 -0.7526
  163SAPE   C2718308   1.851   2.198   7.435  0.4491 -0.1810 -0.5603
  163SAPE   H7R18309   1.775   2.177   7.357 -0.1439  1.7840 -0.5750
  163SAPE   H7S18310   1.790   2.170   7.524  0.3032 -0.1074 -0.6380
  163SAPE   C2818311   1.966   2.108   7.412  0.0881 -0.3790  0.1919
  163SAPE   H8R18312   2.005   2.121   7.310 -0.1837 -1.3805 -0.0548
  163SAPE   C2918313   2.021   2.022   7.500 -0.1550 -0.9202 -0.4891
  163SAPE   H9R18314   2.107   1.958   7.475  1.6730  0.5331  1.6200
  163SAPE  C21018315   1.972   2.001   7.644  0.0939  0.5288  0.1629
  163SAPE  H10R18316   2.013   1.901   7.670  0.2914  1.2677  3.1416
  163SAPE  H10S18317   1.862   1.996   7.643  0.1481 -1.9500 -0.0733
  163SAPE  C21118318   2.015   2.104   7.746 -0.0006 -0.3886  0.1156
  163SAPE  H11R18319   2.025   2.206   7.707  3.5377 -0.2882  0.9281
  163SAPE  C21218320   2.051   2.088   7.868 -0.0744 -0.2710  0.0240
  163SAPE  H12R18321   2.077   2.183   7.917 -2.9874  1.0216 -0.7297
  163SAPE  C21318322   2.038   1.957   7.941  0.3684  0.3857  0.3634
  163SAPE  H13R18323   2.047   1.874   7.867  0.4685 -1.8936  2.7882
  163SAPE  H13S18324   1.931   1.943   7.969  0.5213  0.3706  0.9313
  163SAPE  C21418325   2.130   1.920   8.050 -0.4542 -0.3263 -0.0483
  163SAPE  H14R18326   2.225   1.873   8.023 -0.3258 -0.0186 -0.1343
  163SAPE  C21518327   2.096   1.946   8.180  0.1006 -0.4822 -0.3015
  163SAPE  H15R18328   2.162   1.908   8.260 -0.7676 -3.5105 -0.9053
  163SAPE  C21618329   1.973   2.021   8.235 -0.2225 -0.0934  0.5212
  163SAPE  H16R18330   1.932   1.956   8.315 -1.3218 -0.0903 -0.0220
  163SAPE  H16S18331   1.894   2.022   8.157  0.0478 -1.3782  0.2054
  163SAPE  C21718332   1.996   2.165   8.279 -0.9192  0.2652  0.9420
  163SAPE  H17R18333   2.011   2.229   8.189 -0.8276 -0.0281  0.7442
  163SAPE  H17S18334   2.086   2.180   8.342  0.7671  2.9741 -1.8349
  163SAPE  C21818335   1.879   2.220   8.361  0.2064  0.1745 -0.2325
  163SAPE  H18R18336   1.859   2.158   8.451 -0.7229 -1.0012 -1.2176
  163SAPE  H18S18337   1.784   2.211   8.303 -1.3225 -0.8829  2.2646
  163SAPE  C21918338   1.908   2.363   8.412  0.2950  0.2861  0.1883
  163SAPE  H19R18339   1.918   2.429   8.323 -0.7341  0.6873  0.3572
  163SAPE  H19S18340   1.994   2.360   8.483 -0.5083  0.6836  1.2123
  163SAPE  C22018341   1.782   2.419   8.490 -0.2120  0.3287 -0.8014
  163SAPE  H20R18342   1.787   2.391   8.598 -3.2939 -0.7970 -0.8238
  163SAPE  H20S18343   1.698   2.366   8.439  2.3198 -1.6471 -3.1992
  163SAPE  H20T18344   1.779   2.529   8.479  2.7646  0.3791 -2.0286
  163SAPE   C3318345   2.196   1.727   6.960 -0.4702 -0.2900 -0.4050
  163SAPE   H3X18346   2.257   1.642   6.921  0.4219 -0.5694  1.4369
  163SAPE   H3Y18347   2.088   1.705   6.946 -0.5251  0.8586 -1.9431
  163SAPE   C3418348   2.220   1.751   7.112  1.1311  0.8400 -1.0325
  163SAPE   H4X18349   2.134   1.809   7.153  1.3035  1.3465 -1.3734
  163SAPE   H4Y18350   2.315   1.808   7.110  0.1820  2.4822 -1.3477
  163SAPE   C3518351   2.211   1.620   7.189  0.4614 -0.2127  0.1182
  163SAPE   H5X18352   2.282   1.546   7.146  0.9923  0.0883  0.4603
  163SAPE   H5Y18353   2.106   1.586   7.179  0.6061 -0.2522 -1.5333
  163SAPE   C3618354   2.246   1.642   7.335 -0.0752 -0.0800  0.0220
  163SAPE   H6X18355   2.175   1.713   7.382 -0.5899 -0.8863  0.4697
  163SAPE   H6Y18356   2.345   1.692   7.339  0.0982 -0.2184 -1.7689
  163SAPE   C3718357   2.250   1.522   7.436  0.7153 -0.2176  0.5567
  163SAPE   H7X18358   2.324   1.454   7.388  0.2681 -0.5456  0.3363
  163SAPE   H7Y18359   2.152   1.473   7.420  0.1927  1.5139 -2.1433
  163SAPE   C3818360   2.270   1.578   7.576  0.3438  0.0132 -0.1354
  163SAPE   H8X18361   2.213   1.672   7.593 -0.7423 -0.2578 -2.0345
  163SAPE   H8Y18362   2.377   1.603   7.592  0.7593 -1.8614  0.2337
  163SAPE   C3918363   2.235   1.476   7.687  0.1221 -0.2200 -0.5497
  163SAPE   H9X18364   2.310   1.397   7.704 -1.1950 -0.9892  2.1658
  163SAPE   H9Y18365   2.142   1.416   7.674  0.6088 -0.6828 -2.1149
  163SAPE  C31018366   2.227   1.556   7.817 -0.5117 -0.2762 -0.2579
  163SAPE  H10X18367   2.156   1.642   7.823  0.2075  0.2815  0.3908
  163SAPE  H10Y18368   2.324   1.610   7.824  0.2230 -1.1815 -2.6005
  163SAPE  C31118369   2.219   1.465   7.940 -0.6858 -0.1643 -0.0464
  163SAPE  H11X18370   2.297   1.386   7.927  1.3826  1.4817  1.5809
  163SAPE  H11Y18371   2.116   1.427   7.956 -0.3247 -0.2751  2.4187
  163SAPE  C31218372   2.251   1.544   8.072  0.0448  0.9243 -0.1309
  163SAPE  H12X18373   2.185   1.633   8.088  0.7706  1.5889 -0.7623
  163SAPE  H12Y18374   2.350   1.591   8.054 -0.4115  1.5138 -1.2233
  163SAPE  C31318375   2.241   1.462   8.201 -0.6405  0.8573  0.7426
  163SAPE  H13X18376   2.324   1.494   8.268 -0.3599  2.9092 -0.5073
  163SAPE  H13Y18377   2.273   1.361   8.167 -1.5009  0.1806  1.8818
  163SAPE  C31418378   2.102   1.443   8.261 -0.0795 -0.4613 -0.3598
  163SAPE  H14X18379   2.102   1.371   8.346  2.3306 -0.3464 -0.1907
  163SAPE  H14Y18380   2.043   1.397   8.179  0.5325 -2.8905  0.4642
  163SAPE  C31518381   2.037   1.571   8.324  0.3707 -0.6182  0.2075
  163SAPE  H15X18382   1.930   1.566   8.292  0.6600 -3.0785 -0.5358
  163SAPE  H15Y18383   2.082   1.662   8.280 -0.6664  1.0018  2.2947
  163SAPE  C31618384   2.062   1.584   8.475 -0.9113 -0.2804  0.0077
  163SAPE  H16X18385   2.169   1.586   8.506 -0.9871  1.8073  0.2926
  163SAPE  H16Y18386   2.022   1.497   8.531  0.0687 -0.6129  0.2157
  163SAPE  C31718387   2.007   1.719   8.542 -0.1776  0.3776  0.1125
  163SAPE  H17X18388   2.062   1.802   8.493  0.3734 -0.4577 -0.7332
  163SAPE  H17Y18389   2.044   1.718   8.647 -0.3799 -1.9102  0.2261
  163SAPE  C31818390   1.863   1.741   8.524  0.2994  0.1785 -0.7447
  163SAPE  H18X18391   1.811   1.646   8.551  1.9533 -0.2721  1.1043
  163SAPE  H18Y18392   1.848   1.771   8.418  0.4037  1.5938 -0.3722
  163SAPE  H18Z18393   1.816   1.825   8.579 -0.2221 -0.8232  0.4013
  164SAPE     N18394   1.834   4.800   5.872  0.4401  0.7907 -0.3546
  164SAPE   HN118395   1.909   4.844   5.815  1.2951 -1.2725 -0.9175
  164SAPE   HN218396   1.796   4.709   5.840  0.4925  0.5033  0.3766
  164SAPE   HN318397   1.758   4.869   5.880  0.0295  0.1290  2.9773
  164SAPE   C1218398   1.877   4.783   6.019 -0.3226 -0.1421 -0.0575
  164SAPE  H12A18399   1.934   4.688   6.023  2.3221  1.3585  0.3493
  164SAPE  H12B18400   1.781   4.782   6.075 -0.6926  1.4663 -0.5922
  164SAPE   C1118401   1.958   4.905   6.075 -0.2558 -0.1741 -0.3733
  164SAPE  H11A18402   1.998   4.886   6.176  0.7175  1.0633 -0.4969
  164SAPE  H11B18403   1.882   4.986   6.074 -0.2912 -0.1675  1.2370
  164SAPE     P18404   2.116   5.086   5.985 -0.0584 -0.1383  0.1047
  164SAPE   O1318405   2.259   5.094   5.939 -0.8295  0.1727  0.1237
  164SAPE   O1418406   2.021   5.157   5.894 -0.1894  0.2350 -0.1086
  164SAPE   O1218407   2.073   4.935   5.988 -0.2355  0.0669 -0.2538
  164SAPE   O1118408   2.104   5.138   6.136 -0.3982 -0.1433  0.1423
  164SAPE    C118409   2.173   5.065   6.243 -0.3183  0.0161  0.8609
  164SAPE    HA18410   2.181   4.954   6.233  1.5274  0.0463  1.5716
  164SAPE    HB18411   2.277   5.104   6.236 -0.3028 -0.3760 -3.0175
  164SAPE    C218412   2.115   5.102   6.381  0.9348 -0.3509 -0.6974
  164SAPE    HS18413   2.187   5.068   6.458  1.2579  1.1564 -0.2924
  164SAPE   O2118414   1.979   5.043   6.389  0.4640 -0.1023  0.3866
  164SAPE   C2118415   1.970   4.922   6.438 -0.0398  0.5056  0.0083
  164SAPE   O2218416   2.060   4.851   6.483  0.0877 -0.0053  0.1233
  164SAPE   C2218417   1.816   4.893   6.434  0.2928  0.2259  0.0867
  164SAPE   H2R18418   1.754   4.979   6.467 -0.1977 -0.1315  0.0953
  164SAPE   H2S18419   1.805   4.885   6.324  0.8813 -1.2256  0.1172
  164SAPE    C318420   2.097   5.252   6.402 -0.0015 -0.3001  0.2700
  164SAPE    HX18421   2.033   5.265   6.492 -0.4752 -0.9880  0.0499
  164SAPE    HY18422   2.039   5.303   6.321 -0.8356 -1.2980  0.2077
  164SAPE   O3118423   2.219   5.318   6.420 -0.0303 -0.1796 -0.0117
  164SAPE   C3118424   2.201   5.449   6.457 -0.6847  0.0967  0.1306
  164SAPE   O3218425   2.098   5.506   6.452 -0.3188  0.2032  0.0067
  164SAPE   C3218426   2.324   5.498   6.525  0.4770  0.0123 -0.4408
  164SAPE   H2X18427   2.338   5.607   6.540  2.8842 -0.5075  1.5615
  164SAPE   H2Y18428   2.409   5.483   6.455  0.4496  1.9063 -0.9196
  164SAPE   C2318429   1.778   4.754   6.494 -0.3380  0.2241  0.0319
  164SAPE   H3R18430   1.794   4.760   6.604 -1.3681 -2.4227  0.4115
  164SAPE   H3S18431   1.850   4.679   6.453  0.3356  1.2932 -0.7895
  164SAPE   C2418432   1.635   4.719   6.465 -0.4398 -0.2059 -0.2978
  164SAPE   H4R18433   1.604   4.616   6.491  1.2741 -0.2924  1.6778
  164SAPE   H4S18434   1.628   4.736   6.355  0.3565  2.8287  0.0166
  164SAPE   C2518435   1.543   4.815   6.531 -0.3114 -0.2696 -0.1654
  164SAPE   H5R18436   1.513   4.903   6.472  2.6307  1.0778  0.1549
  164SAPE   C2618437   1.498   4.803   6.660 -0.6413 -0.3745 -0.6956
  164SAPE   H6R18438   1.443   4.890   6.698 -2.8272 -2.8119  2.2651
  164SAPE   C2718439   1.545   4.704   6.757 -0.3058 -0.1117  0.0878
  164SAPE   H7R18440   1.648   4.737   6.779 -0.9527  1.4965  0.8468
  164SAPE   H7S18441   1.573   4.609   6.706  2.1883  1.3127 -1.3977
  164SAPE   C2818442   1.444   4.681   6.869 -0.7720  0.0829  0.8652
  164SAPE   H8R18443   1.352   4.738   6.854  0.1288  0.9976 -1.8774
  164SAPE   C2918444   1.464   4.597   6.971 -0.6846  0.2085  0.2776
  164SAPE   H9R18445   1.404   4.589   7.063 -0.3562 -2.3313  0.3628
  164SAPE  C21018446   1.581   4.505   6.976  0.2238  0.1463  0.6535
  164SAPE  H10R18447   1.670   4.552   7.023  1.1328  0.9928 -1.7318
  164SAPE  H10S18448   1.610   4.486   6.870 -0.4524 -1.0390  0.6695
  164SAPE  C21118449   1.542   4.375   7.040 -0.4406 -0.1418 -0.3274
  164SAPE  H11R18450   1.495   4.296   6.978 -1.3521  0.7536 -0.8090
  164SAPE  C21218451   1.567   4.354   7.172 -0.6312  0.1546 -0.1320
  164SAPE  H12R18452   1.525   4.266   7.221 -0.3376 -0.5514 -1.1149
  164SAPE  C21318453   1.646   4.450   7.264 -0.0663 -0.0686 -0.1415
  164SAPE  H13R18454   1.748   4.467   7.225 -0.3166  0.7936 -0.4624
  164SAPE  H13S18455   1.664   4.395   7.359 -0.6936  2.3116  1.4559
  164SAPE  C21418456   1.583   4.581   7.305  0.0537  0.6737  1.1974
  164SAPE  H14R18457   1.537   4.631   7.219  1.1991 -0.7729 -0.3229
  164SAPE  C21518458   1.570   4.633   7.426  0.0805  0.3446 -0.0071
  164SAPE  H15R18459   1.536   4.738   7.429  1.3652  0.7611  0.7024
  164SAPE  C21618460   1.618   4.576   7.562 -0.0901  0.1468  0.2017
  164SAPE  H16R18461   1.728   4.581   7.572  0.1549 -0.4642 -1.8092
  164SAPE  H16S18462   1.589   4.470   7.572  0.6620  0.1734  3.6072
  164SAPE  C21718463   1.550   4.636   7.683  0.8459 -0.3938 -0.1208
  164SAPE  H17R18464   1.440   4.640   7.669  0.8660  1.3178  0.0976
  164SAPE  H17S18465   1.581   4.742   7.688 -1.5593  0.5048 -2.1706
  164SAPE  C21818466   1.583   4.563   7.814 -0.1203  0.5166  0.2556
  164SAPE  H18R18467   1.693   4.554   7.825  0.0325  1.6580 -0.2874
  164SAPE  H18S18468   1.550   4.458   7.801  1.1674 -0.0676  1.3640
  164SAPE  C21918469   1.507   4.608   7.939  0.7972 -0.8925  0.6646
  164SAPE  H19R18470   1.479   4.715   7.933  1.9887 -0.6052 -0.0535
  164SAPE  H19S18471   1.582   4.601   8.020  1.6307 -1.2668 -0.1237
  164SAPE  C22018472   1.384   4.517   7.967  0.5556 -0.3528 -0.1489
  164SAPE  H20R18473   1.312   4.515   7.883  0.3637 -2.7549  0.0099
  164SAPE  H20S18474   1.332   4.535   8.063  3.1805 -2.2381  1.7817
  164SAPE  H20T18475   1.423   4.413   7.978  2.6752  0.1438 -2.0967
  164SAPE   C3318476   2.348   5.428   6.655 -0.8209  0.3453  0.7820
  164SAPE   H3X18477   2.454   5.441   6.684 -0.3974  0.5990 -0.7839
  164SAPE   H3Y18478   2.330   5.319   6.639 -0.1350  0.3646 -0.2217
  164SAPE   C3418479   2.262   5.466   6.768  0.2436 -0.1700 -1.0784
  164SAPE   H4X18480   2.156   5.457   6.735  1.0181  1.0006 -4.1876
  164SAPE   H4Y18481   2.271   5.570   6.806 -1.5380 -0.2098 -0.4409
  164SAPE   C3518482   2.294   5.365   6.884  0.2721 -0.3540 -0.3782
  164SAPE   H5X18483   2.397   5.347   6.923  0.3698 -0.8996 -0.8678
  164SAPE   H5Y18484   2.261   5.263   6.854  0.9004 -0.2687 -1.3956
  164SAPE   C3618485   2.205   5.412   7.007  0.3860 -0.3077  0.4150
  164SAPE   H6X18486   2.101   5.416   6.967  0.0259  0.2451  1.3793
  164SAPE   H6Y18487   2.246   5.512   7.033 -0.8782  0.8643 -1.7112
  164SAPE   C3718488   2.209   5.313   7.119 -0.1984  0.1676 -0.5488
  164SAPE   H7X18489   2.308   5.313   7.169  0.0943  1.3524 -1.0841
  164SAPE   H7Y18490   2.185   5.212   7.079 -2.3078  0.8843 -1.2526
  164SAPE   C3818491   2.106   5.346   7.226 -0.1974 -0.8656 -0.5611
  164SAPE   H8X18492   2.004   5.327   7.187 -0.0386 -1.6665 -0.6003
  164SAPE   H8Y18493   2.113   5.452   7.258 -0.6392 -1.2199  0.7789
  164SAPE   C3918494   2.149   5.272   7.355 -0.2355 -0.6515 -0.1347
  164SAPE   H9X18495   2.254   5.304   7.375 -0.6653  0.1133  1.0003
  164SAPE   H9Y18496   2.168   5.163   7.338  2.2999 -0.3006  0.0927
  164SAPE  C31018497   2.059   5.293   7.475  0.1659 -0.5298 -0.7906
  164SAPE  H10X18498   1.955   5.255   7.462 -0.2222 -0.4473  1.6250
  164SAPE  H10Y18499   2.054   5.404   7.475  1.6532 -0.4413 -1.6452
  164SAPE  C31118500   2.127   5.241   7.603 -0.4203 -0.0116  0.0284
  164SAPE  H11X18501   2.236   5.234   7.581 -0.3595 -1.1045  0.6204
  164SAPE  H11Y18502   2.105   5.136   7.629  0.4162 -0.0005  0.8622
  164SAPE  C31218503   2.102   5.337   7.718 -0.3858  0.4414 -0.0861
  164SAPE  H12X18504   1.996   5.371   7.717 -0.6872 -0.1156  2.9211
  164SAPE  H12Y18505   2.169   5.425   7.712 -0.4367  0.4807 -0.0797
  164SAPE  C31318506   2.115   5.282   7.867  0.1364  0.1856  0.4007
  164SAPE  H13X18507   2.219   5.249   7.886  0.6958  0.9052 -1.2658
  164SAPE  H13Y18508   2.047   5.195   7.865 -1.1835  1.1876 -1.6396
  164SAPE  C31418509   2.078   5.393   7.959  1.2037  0.3822  0.8803
  164SAPE  H14X18510   1.985   5.449   7.931  1.2536  0.3685  0.6881
  164SAPE  H14Y18511   2.159   5.469   7.962  0.3169  1.3290  1.8606
  164SAPE  C31518512   2.057   5.352   8.104  0.5818 -0.3128 -0.7769
  164SAPE  H15X18513   2.031   5.442   8.163  3.3078 -0.8485  1.4514
  164SAPE  H15Y18514   2.156   5.310   8.135  0.1252 -2.0520 -1.5388
  164SAPE  C31618515   1.958   5.235   8.121  0.2245  0.7972  0.2525
  164SAPE  H16X18516   1.991   5.134   8.087 -0.7473  0.6796 -0.4192
  164SAPE  H16Y18517   1.868   5.262   8.061  1.8715  1.4237 -2.0711
  164SAPE  C31718518   1.899   5.227   8.262  0.0560 -0.5113 -0.2802
  164SAPE  H17X18519   1.873   5.328   8.299 -1.7545 -0.7632 -0.7693
  164SAPE  H17Y18520   1.992   5.194   8.315 -0.0012 -0.9406 -0.4412
  164SAPE  C31818521   1.780   5.134   8.278 -0.3247  0.1453  0.0852
  164SAPE  H18X18522   1.690   5.198   8.289 -0.7330 -0.2780 -0.7221
  164SAPE  H18Y18523   1.782   5.072   8.370 -0.1349  0.2142  0.1299
  164SAPE  H18Z18524   1.765   5.066   8.191 -0.5803 -1.3152  1.2302
  165SAPE     N18525   5.930   0.550   6.479 -0.1897  0.1229 -0.1522
  165SAPE   HN118526   5.887   0.626   6.422  2.9818  1.9375 -0.3977
  165SAPE   HN218527   6.017   0.583   6.525 -0.8343  0.3139  0.9664
  165SAPE   HN318528   5.959   0.463   6.430  1.9374 -0.5634  2.1672
  165SAPE   C1218529   5.833   0.521   6.590  0.5247 -0.2978 -0.0848
  165SAPE  H12A18530   5.835   0.602   6.665  1.8467 -1.2027  0.9058
  165SAPE  H12B18531   5.878   0.431   6.637  1.6085  0.6636  0.7770
  165SAPE   C1118532   5.693   0.502   6.530 -0.4337  0.2168 -0.1697
  165SAPE  H11A18533   5.636   0.454   6.612 -0.7635 -1.7265 -1.4637
  165SAPE  H11B18534   5.701   0.428   6.448 -0.6557  0.2034 -0.1810
  165SAPE     P18535   5.496   0.620   6.405 -0.6967 -0.1795  0.1410
  165SAPE   O1318536   5.472   0.744   6.325 -0.1305  0.6107  0.2289
  165SAPE   O1418537   5.486   0.488   6.335  0.2470  0.8181  1.4603
  165SAPE   O1218538   5.628   0.626   6.493  0.3491  0.5261 -0.0936
  165SAPE   O1118539   5.383   0.632   6.518  0.5812 -0.0623 -0.5652
  165SAPE    C118540   5.393   0.728   6.619  0.6426  0.1869 -0.1244
  165SAPE    HA18541   5.424   0.826   6.577  0.4234  0.6614  0.7877
  165SAPE    HB18542   5.291   0.748   6.657 -0.0581 -1.8170 -0.8346
  165SAPE    C218543   5.487   0.688   6.736  0.2274  0.4362 -0.7016
  165SAPE    HS18544   5.593   0.699   6.707  0.4710 -0.2949 -0.1342
  165SAPE   O2118545   5.456   0.552   6.780  0.1391 -0.7525 -0.3256
  165SAPE   C2118546   5.555   0.497   6.851  0.3443  0.5090  1.3485
  165SAPE   O2218547   5.665   0.540   6.870  0.0220 -0.0716 -0.5058
  165SAPE   C2218548   5.507   0.363   6.890  0.0113 -0.0905  0.9500
  165SAPE   H2R18549   5.405   0.374   6.932 -0.4094  1.7848 -0.4288
  165SAPE   H2S18550   5.506   0.307   6.794  1.9168  1.1069  0.1722
  165SAPE    C318551   5.472   0.788   6.858  0.4172  0.0667  0.1318
  165SAPE    HX18552   5.531   0.873   6.818  1.4400 -0.5786  0.2317
  165SAPE    HY18553   5.512   0.756   6.956 -2.5342 -0.0279  1.4093
  165SAPE   O3118554   5.330   0.818   6.885  0.1547 -0.5147  0.4038
  165SAPE   C3118555   5.281   0.935   6.832  0.5054  0.2468  0.1375
  165SAPE   O3218556   5.346   1.009   6.760  0.1065  0.7124 -0.0454
  165SAPE   C3218557   5.142   0.962   6.893  0.8510 -0.4524  0.1900
  165SAPE   H2X18558   5.095   0.865   6.919 -1.1189  0.7825  1.5632
  165SAPE   H2Y18559   5.069   1.002   6.820 -0.0069 -2.3463 -0.0216
  165SAPE   C2318560   5.608   0.298   6.991  0.7359  0.2393 -0.2176
  165SAPE   H3R18561   5.706   0.276   6.942  0.5233 -1.5827  0.1148
  165SAPE   H3S18562   5.557   0.202   7.014 -0.9253  1.3807  0.9982
  165SAPE   C2418563   5.628   0.375   7.126 -0.6630 -0.6405  0.0655
  165SAPE   H4R18564   5.538   0.422   7.171 -0.7946 -0.1806 -0.6632
  165SAPE   H4S18565   5.696   0.460   7.103 -1.1274 -0.4224 -0.5261
  165SAPE   C2518566   5.708   0.295   7.223  0.1903  0.1995  0.1219
  165SAPE   H5R18567   5.796   0.248   7.176  0.2061  0.3296  0.0194
  165SAPE   C2618568   5.684   0.263   7.349  0.7190 -0.0217 -0.0281
  165SAPE   H6R18569   5.756   0.214   7.415  0.1484 -1.5565 -0.5094
  165SAPE   C2718570   5.560   0.310   7.429 -1.2329  0.1200  0.7047
  165SAPE   H7R18571   5.482   0.359   7.367 -0.3174  1.1083  0.2927
  165SAPE   H7S18572   5.591   0.392   7.497 -1.2753  1.2292 -0.5654
  165SAPE   C2818573   5.486   0.190   7.499  0.3366  0.0523 -0.0529
  165SAPE   H8R18574   5.400   0.153   7.443  1.3446 -0.6352 -1.2001
  165SAPE   C2918575   5.524   0.131   7.612  0.1206 -0.0864  0.2861
  165SAPE   H9R18576   5.467   0.044   7.648  1.0665 -0.4180  1.0146
  165SAPE  C21018577   5.639   0.163   7.705  0.0568  0.0919  0.2229
  165SAPE  H10R18578   5.732   0.142   7.647  0.5077 -0.5956  1.1703
  165SAPE  H10S18579   5.636   0.113   7.804  2.4570  0.2325  0.4347
  165SAPE  C21118580   5.651   0.312   7.735  0.7528  0.7701  0.0065
  165SAPE  H11R18581   5.738   0.358   7.688  0.3741  0.4955 -0.9910
  165SAPE  C21218582   5.574   0.390   7.805 -0.4465  0.0147 -0.3016
  165SAPE  H12R18583   5.615   0.487   7.836  0.7895 -0.5426 -0.1442
  165SAPE  C21318584   5.442   0.366   7.871 -0.0399 -0.0382 -0.1843
  165SAPE  H13R18585   5.390   0.277   7.830 -1.7703  1.2126 -0.8485
  165SAPE  H13S18586   5.377   0.453   7.846 -0.1848  0.0495  0.4640
  165SAPE  C21418587   5.465   0.347   8.023  0.1809  0.4689 -0.5831
  165SAPE  H14R18588   5.484   0.245   8.061  0.2320  0.4867 -0.5612
  165SAPE  C21518589   5.464   0.446   8.107 -0.0057 -0.2103 -0.3419
  165SAPE  H15R18590   5.472   0.421   8.214 -2.8263  1.8524  0.4831
  165SAPE  C21618591   5.434   0.592   8.077 -0.1810  0.1018  0.0120
  165SAPE  H16R18592   5.326   0.601   8.102 -1.2676 -0.5677 -3.8956
  165SAPE  H16S18593   5.455   0.607   7.969 -0.6904 -2.2882 -0.4783
  165SAPE  C21718594   5.533   0.692   8.145  0.1213 -0.2528 -0.3576
  165SAPE  H17R18595   5.641   0.677   8.122  0.7274  1.8349  0.8660
  165SAPE  H17S18596   5.525   0.682   8.255 -0.0423  0.6945 -0.2697
  165SAPE  C21818597   5.499   0.835   8.114 -0.7585 -0.1194  0.2791
  165SAPE  H18R18598   5.396   0.835   8.072 -0.0372 -1.3146 -1.6194
  165SAPE  H18S18599   5.560   0.872   8.029  0.8055 -0.4757  1.2045
  165SAPE  C21918600   5.538   0.942   8.223  0.3165  0.2096 -0.0428
  165SAPE  H19R18601   5.646   0.967   8.227  0.6933 -0.8789 -2.0902
  165SAPE  H19S18602   5.517   0.900   8.323  1.4957 -1.1724 -0.3408
  165SAPE  C22018603   5.453   1.065   8.210 -0.7800  0.1468  0.3644
  165SAPE  H20R18604   5.348   1.038   8.236 -0.7935 -0.1890 -0.0340
  165SAPE  H20S18605   5.459   1.103   8.106 -0.5210 -0.9870 -0.0591
  165SAPE  H20T18606   5.479   1.145   8.283 -0.3395  0.0477  0.3174
  165SAPE   C3318607   5.142   1.062   7.006  0.1181  0.3306  0.3852
  165SAPE   H3X18608   5.039   1.052   7.047  0.3687  1.3183  1.3224
  165SAPE   H3Y18609   5.175   1.165   6.981 -0.4140  1.0498  2.4134
  165SAPE   C3418610   5.221   1.012   7.133  0.1697  0.2461 -0.0216
  165SAPE   H4X18611   5.319   0.982   7.090 -0.2656 -0.4746 -0.5361
  165SAPE   H4Y18612   5.175   0.915   7.163  2.4441 -0.9359 -0.1750
  165SAPE   C3518613   5.226   1.099   7.254  0.4281  0.2614  0.2942
  165SAPE   H5X18614   5.253   1.201   7.220  1.9024 -0.2351 -0.1034
  165SAPE   H5Y18615   5.311   1.063   7.316  1.0392 -1.0146 -1.2185
  165SAPE   C3618616   5.092   1.121   7.331 -0.0157 -0.5143 -0.5884
  165SAPE   H6X18617   5.064   1.027   7.385 -0.7749 -0.0851 -0.2215
  165SAPE   H6Y18618   5.005   1.126   7.263  0.2788  1.6394 -0.8592
  165SAPE   C3718619   5.089   1.247   7.424 -0.7567  0.1169 -0.2018
  165SAPE   H7X18620   5.079   1.339   7.363 -2.5750  0.4381  0.5154
  165SAPE   H7Y18621   5.178   1.264   7.489 -1.0773 -1.4154  0.6739
  165SAPE   C3818622   4.962   1.246   7.509  0.1785  0.0698  0.1342
  165SAPE   H8X18623   4.886   1.185   7.456 -1.6451 -1.8129  4.4875
  165SAPE   H8Y18624   4.914   1.346   7.496  0.7903  0.2053 -1.2444
  165SAPE   C3918625   4.988   1.211   7.653 -0.2044 -0.3369  0.4677
  165SAPE   H9X18626   5.057   1.124   7.647  1.8892  1.2550  0.0459
  165SAPE   H9Y18627   4.892   1.173   7.693 -0.6180 -1.6344 -1.6092
  165SAPE  C31018628   5.037   1.332   7.737 -0.1695  0.5510 -0.5533
  165SAPE  H10X18629   4.963   1.414   7.741 -0.5689  0.3660 -2.7480
  165SAPE  H10Y18630   5.131   1.378   7.701  0.7592 -1.7549 -1.2879
  165SAPE  C31118631   5.069   1.297   7.883 -0.3932  0.0376 -0.1748
  165SAPE  H11X18632   5.156   1.228   7.882 -0.3109  0.1178  0.4930
  165SAPE  H11Y18633   4.987   1.242   7.933 -0.8423  2.2783  1.7866
  165SAPE  C31218634   5.105   1.428   7.963  0.0535 -0.6313  0.3477
  165SAPE  H12X18635   5.037   1.510   7.932  2.3664  0.5358 -2.1232
  165SAPE  H12Y18636   5.200   1.473   7.927 -0.5378 -0.4668 -1.0871
  165SAPE  C31318637   5.119   1.409   8.118  0.3321  0.1937  0.1190
  165SAPE  H13X18638   5.147   1.507   8.161 -1.2670  1.4162 -1.5036
  165SAPE  H13Y18639   5.204   1.343   8.147  1.5604  2.0195  0.8140
  165SAPE  C31418640   4.989   1.356   8.182 -0.3914  0.7478 -0.7694
  165SAPE  H14X18641   4.966   1.255   8.141  2.1440 -0.4134  0.4251
  165SAPE  H14Y18642   4.900   1.417   8.155  1.2304  3.3637 -0.5642
  165SAPE  C31518643   5.020   1.331   8.330  0.5099 -0.4742  0.8191
  165SAPE  H15X18644   5.040   1.429   8.379 -0.0599  0.4103 -0.6308
  165SAPE  H15Y18645   5.098   1.253   8.343  0.5173 -0.6772 -0.3333
  165SAPE  C31618646   4.889   1.297   8.407  0.0477  0.1325 -0.3289
  165SAPE  H16X18647   4.845   1.214   8.349 -0.7962  1.3406 -1.4893
  165SAPE  H16Y18648   4.827   1.388   8.423 -0.2199 -0.1113  0.0325
  165SAPE  C31718649   4.933   1.258   8.545 -0.0694 -0.3323  0.6592
  165SAPE  H17X18650   4.978   1.344   8.598 -1.8098  0.0948  1.5301
  165SAPE  H17Y18651   5.013   1.181   8.547  1.6123  1.3652  0.7612
  165SAPE  C31818652   4.829   1.195   8.643  0.6683 -0.1372  0.2652
  165SAPE  H18X18653   4.876   1.172   8.741 -1.6807  0.0252  1.5022
  165SAPE  H18Y18654   4.781   1.103   8.604 -2.0617  0.8171  1.1351
  165SAPE  H18Z18655   4.747   1.267   8.663  0.9643 -0.0509  1.2248
  166SAPE     N18656   0.524   6.374   5.869  0.4274  0.4977 -0.8838
  166SAPE   HN118657   0.537   6.359   5.767 -0.3727 -4.4398 -0.5080
  166SAPE   HN218658   0.425   6.346   5.885  0.7388 -0.2816 -0.2657
  166SAPE   HN318659   0.540   6.472   5.900  0.4370  0.2415 -0.0612
  166SAPE   C1218660   0.613   6.279   5.951 -0.6580 -0.2979 -0.0117
  166SAPE  H12A18661   0.654   6.199   5.886  0.9793  0.6015 -0.1413
  166SAPE  H12B18662   0.541   6.230   6.020 -1.9411  3.0114  1.2063
  166SAPE   C1118663   0.707   6.346   6.049  0.0299  0.5224  0.1115
  166SAPE  H11A18664   0.762   6.269   6.107  2.6080  1.7294 -0.5925
  166SAPE  H11B18665   0.656   6.404   6.129 -1.8574 -0.9321  0.0311
  166SAPE     P18666   0.823   6.564   5.976 -0.4291 -0.0077  0.3122
  166SAPE   O1318667   0.955   6.597   6.027 -0.6302 -0.3386 -0.1836
  166SAPE   O1418668   0.779   6.603   5.841  0.3783  0.4099 -0.1085
  166SAPE   O1218669   0.813   6.408   5.983  0.2326  0.1780  0.4528
  166SAPE   O1118670   0.718   6.622   6.077 -0.4971  0.5388 -0.1256
  166SAPE    C118671   0.743   6.746   6.151 -0.1644 -0.4173  0.1601
  166SAPE    HA18672   0.849   6.778   6.148 -0.5052  0.8482  1.0209
  166SAPE    HB18673   0.680   6.829   6.112 -0.0746 -0.4325 -0.0196
  166SAPE    C218674   0.710   6.726   6.303  0.3900 -0.5951  0.0167
  166SAPE    HS18675   0.604   6.694   6.299  0.6787 -1.7176  0.6490
  166SAPE   O2118676   0.741   6.841   6.376 -0.1146 -0.1966 -0.9455
  166SAPE   C2118677   0.664   6.853   6.489  0.2785 -0.7199  0.9409
  166SAPE   O2218678   0.560   6.788   6.507 -0.5707 -0.5426 -0.4724
  166SAPE   C2218679   0.715   6.966   6.580  0.0607  0.7306  0.8041
  166SAPE   H2R18680   0.826   6.954   6.588  0.5264  2.0909 -2.2598
  166SAPE   H2S18681   0.709   7.066   6.532  0.0851  0.3976  0.0980
  166SAPE    C318682   0.788   6.600   6.359 -0.4118 -0.0164 -0.0121
  166SAPE    HX18683   0.891   6.638   6.378  0.0555 -1.9011  1.4563
  166SAPE    HY18684   0.790   6.520   6.282 -2.7124 -0.2681  0.1321
  166SAPE   O3118685   0.736   6.547   6.487 -0.0232 -0.0200 -0.4520
  166SAPE   C3118686   0.624   6.479   6.470  1.0833 -0.6397 -0.1515
  166SAPE   O3218687   0.590   6.425   6.368  0.0757 -0.7665  0.4794
  166SAPE   C3218688   0.548   6.471   6.602  0.0734  0.1478  0.1095
  166SAPE   H2X18689   0.470   6.550   6.612  0.0006  0.0831  0.0558
  166SAPE   H2Y18690   0.613   6.504   6.685  0.3497  1.7218 -0.7040
  166SAPE   C2318691   0.646   6.990   6.708 -0.2500  0.5725 -1.0944
  166SAPE   H3R18692   0.538   6.997   6.681 -0.1279  0.5070 -1.5976
  166SAPE   H3S18693   0.692   7.085   6.744  0.1487  0.0105 -0.1002
  166SAPE   C2418694   0.666   6.887   6.817 -0.3215 -0.6918  0.7280
  166SAPE   H4R18695   0.763   6.914   6.864  0.6310 -0.3223 -1.3038
  166SAPE   H4S18696   0.674   6.789   6.766 -1.5388  0.0257 -0.9600
  166SAPE   C2518697   0.553   6.875   6.915 -0.3857  0.4077 -0.2664
  166SAPE   H5R18698   0.462   6.828   6.876  0.3959  0.3995 -2.1691
  166SAPE   C2618699   0.557   6.898   7.044 -0.9779 -0.5427 -0.3336
  166SAPE   H6R18700   0.466   6.885   7.103 -0.7024  0.2274  0.2874
  166SAPE   C2718701   0.678   6.957   7.117  0.8478 -0.3982  1.9064
  166SAPE   H7R18702   0.749   7.014   7.054 -0.6210  0.6603  1.1525
  166SAPE   H7S18703   0.737   6.873   7.160 -0.8797 -1.0509  3.1291
  166SAPE   C2818704   0.626   7.039   7.229  0.5772  0.0830 -0.3907
  166SAPE   H8R18705   0.613   7.147   7.212  0.1528  0.3457  1.4163
  166SAPE   C2918706   0.593   7.001   7.352  0.6348 -0.6173 -0.0761
  166SAPE   H9R18707   0.569   7.080   7.424  3.3084  0.6702 -0.5006
  166SAPE  C21018708   0.605   6.864   7.416  0.0771 -0.0520  0.4704
  166SAPE  H10R18709   0.688   6.865   7.490  0.6774 -2.0932 -0.1013
  166SAPE  H10S18710   0.640   6.785   7.346  2.7313 -0.3859  2.0635
  166SAPE  C21118711   0.476   6.828   7.486 -0.3275  0.6304 -0.4413
  166SAPE  H11R18712   0.398   6.799   7.414  0.0728 -1.2896 -0.1769
  166SAPE  C21218713   0.441   6.831   7.620 -0.1460  0.7335 -0.1093
  166SAPE  H12R18714   0.335   6.813   7.640  0.0489  0.9430  1.2443
  166SAPE  C21318715   0.518   6.874   7.740 -0.1185  0.4132  0.4839
  166SAPE  H13R18716   0.456   6.953   7.788 -1.6355 -0.4446 -0.0021
  166SAPE  H13S18717   0.618   6.909   7.707 -0.4278 -2.1233 -3.9032
  166SAPE  C21418718   0.538   6.760   7.835 -0.1145  0.3245 -0.5513
  166SAPE  H14R18719   0.593   6.675   7.791  0.1422  0.6538 -0.8726
  166SAPE  C21518720   0.509   6.764   7.966  0.4442 -0.1956  0.2423
  166SAPE  H15R18721   0.509   6.671   8.025 -0.5457 -0.9408 -0.8708
  166SAPE  C21618722   0.454   6.875   8.046 -0.8868 -0.2371  0.0382
  166SAPE  H16R18723   0.363   6.849   8.105 -2.8755  2.0646 -1.8285
  166SAPE  H16S18724   0.413   6.952   7.978  0.8222  0.2271 -0.5074
  166SAPE  C21718725   0.543   6.960   8.138  0.1508 -0.5628 -1.0319
  166SAPE  H17R18726   0.482   7.041   8.184  0.0139 -0.9591 -0.5079
  166SAPE  H17S18727   0.619   7.012   8.076  0.0422 -0.4393 -1.0645
  166SAPE  C21818728   0.616   6.892   8.253 -0.0801  0.1007 -0.2741
  166SAPE  H18R18729   0.665   6.973   8.312 -0.1250  0.8878 -1.2911
  166SAPE  H18S18730   0.694   6.826   8.209  1.8473  1.0079  1.5886
  166SAPE  C21918731   0.528   6.808   8.352 -0.4057  0.1258 -0.0428
  166SAPE  H19R18732   0.482   6.729   8.289 -0.4829  0.3880 -0.3232
  166SAPE  H19S18733   0.455   6.886   8.383  1.0044  1.4689  0.0245
  166SAPE  C22018734   0.606   6.752   8.476 -0.5139 -0.5778  0.3374
  166SAPE  H20R18735   0.662   6.661   8.445 -0.0856 -0.2079 -0.0079
  166SAPE  H20S18736   0.544   6.725   8.564  0.3026 -1.2393  0.7241
  166SAPE  H20T18737   0.683   6.826   8.508 -2.2248  1.6981 -0.5451
  166SAPE   C3318738   0.485   6.333   6.619 -0.0095  0.1503  0.2193
  166SAPE   H3X18739   0.449   6.290   6.523  1.3969  0.5080 -0.4973
  166SAPE   H3Y18740   0.401   6.339   6.690 -0.3062  1.7624 -0.2357
  166SAPE   C3418741   0.589   6.229   6.666 -0.4565  0.2841 -0.1580
  166SAPE   H4X18742   0.675   6.215   6.596 -1.6268 -0.4333 -1.5062
  166SAPE   H4Y18743   0.542   6.129   6.672  0.8053 -0.2656  0.9685
  166SAPE   C3518744   0.663   6.262   6.800  0.3651  0.5058  0.2820
  166SAPE   H5X18745   0.742   6.334   6.769 -1.6217  2.1472 -1.2790
  166SAPE   H5Y18746   0.700   6.163   6.835 -2.3738 -1.3827 -1.7181
  166SAPE   C3618747   0.577   6.323   6.910 -0.6003 -0.3012  0.3861
  166SAPE   H6X18748   0.490   6.256   6.926 -1.0598 -0.3942 -2.1573
  166SAPE   H6Y18749   0.533   6.419   6.875 -1.6512 -1.9492 -3.2593
  166SAPE   C3718750   0.645   6.334   7.049  0.4362 -0.4066 -0.6853
  166SAPE   H7X18751   0.729   6.405   7.067 -1.8512  1.7258  2.8193
  166SAPE   H7Y18752   0.680   6.238   7.091  1.5957  0.4947  0.5022
  166SAPE   C3818753   0.541   6.392   7.144  0.2016 -0.7527 -0.8870
  166SAPE   H8X18754   0.469   6.307   7.149  0.3027 -0.7865  0.4432
  166SAPE   H8Y18755   0.503   6.483   7.093 -0.0562 -0.6717 -0.5495
  166SAPE   C3918756   0.581   6.417   7.291 -0.2054 -0.7038  0.4093
  166SAPE   H9X18757   0.681   6.464   7.307  0.5613 -1.0168 -2.8570
  166SAPE   H9Y18758   0.607   6.315   7.327  1.6959  0.1926  1.7422
  166SAPE  C31018759   0.471   6.476   7.378  0.3367  0.5382  0.0858
  166SAPE  H10X18760   0.376   6.418   7.372  1.1771 -0.8160 -0.3716
  166SAPE  H10Y18761   0.438   6.574   7.336 -1.4920 -0.5952 -1.2574
  166SAPE  C31118762   0.510   6.488   7.530  0.1815  0.9833 -0.3783
  166SAPE  H11X18763   0.443   6.567   7.570 -1.5449  0.6324 -2.4342
  166SAPE  H11Y18764   0.608   6.542   7.523  0.4120  0.7846  0.9591
  166SAPE  C31218765   0.509   6.363   7.618 -0.3434 -0.2671  0.4100
  166SAPE  H12X18766   0.592   6.296   7.588  0.3424  0.4985  0.5457
  166SAPE  H12Y18767   0.410   6.314   7.605  0.9732 -2.9534 -0.1290
  166SAPE  C31318768   0.525   6.387   7.769  0.2234 -0.5959  0.2007
  166SAPE  H13X18769   0.458   6.469   7.802 -2.1624 -1.7839 -1.4171
  166SAPE  H13Y18770   0.627   6.429   7.782  0.6921 -1.6863  0.1898
  166SAPE  C31418771   0.506   6.258   7.853  0.9173  0.5152 -0.8319
  166SAPE  H14X18772   0.588   6.261   7.929  0.1042  2.5780  0.0361
  166SAPE  H14Y18773   0.505   6.170   7.785 -1.5590  0.4815 -0.8261
  166SAPE  C31518774   0.371   6.257   7.921 -0.2952 -0.6457 -0.5162
  166SAPE  H15X18775   0.287   6.270   7.849 -1.4806 -3.3353  0.2394
  166SAPE  H15Y18776   0.369   6.353   7.976  2.6499  0.0087 -1.3751
  166SAPE  C31618777   0.345   6.134   8.007  0.5215  0.0125  0.6540
  166SAPE  H16X18778   0.430   6.066   7.983  0.4175 -0.6665  2.1120
  166SAPE  H16Y18779   0.254   6.081   7.971  0.5234  0.1520  0.4412
  166SAPE  C31718780   0.330   6.166   8.156 -0.0733  0.5818  0.3387
  166SAPE  H17X18781   0.239   6.229   8.169 -1.9307 -2.2373  2.2302
  166SAPE  H17Y18782   0.417   6.223   8.195 -0.8177  1.7227  0.3834
  166SAPE  C31818783   0.306   6.039   8.233 -0.5279 -0.3119 -0.3008
  166SAPE  H18X18784   0.383   5.966   8.201 -0.5733  0.6007 -2.6534
  166SAPE  H18Y18785   0.203   6.002   8.220 -0.0370 -1.6580 -0.4595
  166SAPE  H18Z18786   0.321   6.046   8.343 -3.4053  1.4023  0.0768
  167SAPE     N18787   0.236   5.832   5.801 -0.4429 -0.5858  0.7680
  167SAPE   HN118788   0.176   5.855   5.719  0.1168 -0.8119  0.2840
  167SAPE   HN218789   0.326   5.793   5.766 -0.0435  0.3475  0.7343
  167SAPE   HN318790   0.185   5.759   5.856  1.1462 -1.0856  1.6622
  167SAPE   C1218791   0.263   5.954   5.871  0.3091 -0.2371 -0.0585
  167SAPE  H12A18792   0.167   6.008   5.884  0.7020 -0.1371  3.3964
  167SAPE  H12B18793   0.335   6.018   5.816 -0.3656  0.4561 -0.1441
  167SAPE   C1118794   0.330   5.929   6.010  0.0274  0.5477 -0.6943
  167SAPE  H11A18795   0.271   5.849   6.060  1.3274 -0.9856 -1.4786
  167SAPE  H11B18796   0.326   6.022   6.069  1.4290  0.0030  0.2943
  167SAPE     P18797   0.542   5.807   6.103 -0.2536 -0.0076  0.2861
  167SAPE   O1318798   0.463   5.687   6.117 -0.4541  0.1502  0.2862
  167SAPE   O1418799   0.688   5.802   6.072  0.3178 -0.5687 -0.2114
  167SAPE   O1218800   0.474   5.897   6.000  0.8591  0.2278  0.3206
  167SAPE   O1118801   0.525   5.896   6.236 -0.0625 -0.5822 -0.2162
  167SAPE    C118802   0.614   6.014   6.255 -0.0867  0.5958  1.1166
  167SAPE    HA18803   0.659   6.056   6.162 -0.1681 -1.4641  0.0798
  167SAPE    HB18804   0.556   6.098   6.297 -2.4206  2.1493 -4.3506
  167SAPE    C218805   0.721   5.978   6.365 -0.3402  0.2407 -0.4865
  167SAPE    HS18806   0.770   5.883   6.333  1.0995 -0.2642  2.7633
  167SAPE   O2118807   0.645   5.955   6.491 -0.8497 -0.3461  0.0120
  167SAPE   C2118808   0.703   5.865   6.569  0.1178  1.2951  0.3476
  167SAPE   O2218809   0.808   5.812   6.553 -0.0819  0.6412  0.3829
  167SAPE   C2218810   0.614   5.834   6.691 -0.4448  0.3198  0.2576
  167SAPE   H2R18811   0.530   5.907   6.697 -1.2780 -0.3913 -1.9539
  167SAPE   H2S18812   0.563   5.738   6.670  1.3269 -0.4409 -0.7477
  167SAPE    C318813   0.823   6.093   6.373  0.4992  0.2650  0.7169
  167SAPE    HX18814   0.767   6.188   6.381  1.8890  1.1868 -0.0900
  167SAPE    HY18815   0.872   6.098   6.273  1.3686  0.0273  1.1212
  167SAPE   O3118816   0.911   6.089   6.489 -0.6963 -0.1926 -0.3865
  167SAPE   C3118817   1.032   6.037   6.458  0.4765  0.3339  0.3178
  167SAPE   O3218818   1.062   5.995   6.349 -0.0066 -0.0427  0.6398
  167SAPE   C3218819   1.132   6.047   6.575  0.3419 -0.0101  0.0843
  167SAPE   H2X18820   1.203   6.123   6.539 -0.0280  0.2905 -0.0176
  167SAPE   H2Y18821   1.180   5.950   6.601  0.1254 -0.5983 -1.6322
  167SAPE   C2318822   0.687   5.800   6.824 -0.4914 -0.3022  0.0599
  167SAPE   H3R18823   0.773   5.870   6.835  0.4373 -1.0363 -2.1176
  167SAPE   H3S18824   0.713   5.692   6.821 -0.5680 -0.3925  1.6585
  167SAPE   C2418825   0.605   5.827   6.949 -0.2434  1.3297  0.8531
  167SAPE   H4R18826   0.560   5.929   6.945 -1.8856  0.5901 -1.8906
  167SAPE   H4S18827   0.664   5.819   7.043 -2.9816 -0.3259  2.5484
  167SAPE   C2518828   0.492   5.725   6.953 -0.3079 -0.0789  0.3645
  167SAPE   H5R18829   0.423   5.735   6.868 -1.6533 -0.7625  1.3388
  167SAPE   C2618830   0.475   5.630   7.048  0.1287 -0.2326 -0.3901
  167SAPE   H6R18831   0.391   5.560   7.054  0.3682 -0.4353  0.7805
  167SAPE   C2718832   0.576   5.603   7.155 -0.6161  0.1114 -0.2775
  167SAPE   H7R18833   0.678   5.591   7.112  0.0632 -1.5145  1.6630
  167SAPE   H7S18834   0.554   5.499   7.186  2.0816 -1.0762 -1.9812
  167SAPE   C2818835   0.586   5.702   7.267  1.1106  0.3965 -0.4107
  167SAPE   H8R18836   0.593   5.810   7.249 -1.5447  0.6737 -0.2531
  167SAPE   C2918837   0.568   5.671   7.398  0.3626  0.1168 -0.3351
  167SAPE   H9R18838   0.585   5.749   7.473  0.1555 -0.2529  0.1052
  167SAPE  C21018839   0.552   5.527   7.444  0.0111  0.0928  0.0697
  167SAPE  H10R18840   0.612   5.463   7.376 -0.1622 -0.4438  0.4136
  167SAPE  H10S18841   0.446   5.498   7.427 -0.3412  1.6585 -0.5914
  167SAPE  C21118842   0.599   5.502   7.586  1.3582  0.1969 -0.1315
  167SAPE  H11R18843   0.698   5.454   7.589  1.3843  0.2296 -0.5142
  167SAPE  C21218844   0.524   5.513   7.699  0.1064  0.0154 -0.3295
  167SAPE  H12R18845   0.575   5.475   7.789  0.0102 -0.6484 -0.5447
  167SAPE  C21318846   0.383   5.554   7.702 -0.2667  0.2734 -1.0279
  167SAPE  H13R18847   0.331   5.476   7.762 -1.2333  0.7549 -1.2068
  167SAPE  H13S18848   0.334   5.547   7.602 -0.7015 -1.9398 -0.7252
  167SAPE  C21418849   0.379   5.695   7.763 -0.4718 -0.0457  0.0969
  167SAPE  H14R18850   0.408   5.770   7.688  1.3635 -0.6393  0.1509
  167SAPE  C21518851   0.336   5.722   7.885 -0.4678 -0.0223 -0.1618
  167SAPE  H15R18852   0.346   5.827   7.915  2.8890 -0.6255  1.2759
  167SAPE  C21618853   0.285   5.622   7.987  0.6893  0.1466  0.3364
  167SAPE  H16R18854   0.349   5.629   8.077  2.9080 -0.1115 -1.1466
  167SAPE  H16S18855   0.296   5.514   7.964  2.4609 -0.0576  1.9345
  167SAPE  C21718856   0.135   5.645   8.026 -0.0368 -0.0424  0.3481
  167SAPE  H17R18857   0.122   5.715   8.112 -0.3977 -0.5824  0.7383
  167SAPE  H17S18858   0.111   5.544   8.065  1.7623 -0.9651 -0.8289
  167SAPE  C21818859   0.042   5.671   7.904 -0.0450  0.2829 -0.5174
  167SAPE  H18R18860   0.068   5.615   7.811  1.0698  2.3521 -1.5420
  167SAPE  H18S18861   0.059   5.777   7.875  1.4256  0.2841  0.2609
  167SAPE  C21918862  -0.108   5.657   7.934 -0.0340  0.6890 -0.6101
  167SAPE  H19R18863  -0.137   5.561   7.980 -3.2014  1.7201 -0.2186
  167SAPE  H19S18864  -0.169   5.673   7.842 -0.2511  0.0909 -0.5720
  167SAPE  C22018865  -0.149   5.770   8.029 -0.3208 -0.5245 -0.4666
  167SAPE  H20R18866  -0.257   5.772   8.056  0.0298  3.5848  1.2638
  167SAPE  H20S18867  -0.126   5.869   7.985  0.4360 -0.2761  0.4506
  167SAPE  H20T18868  -0.099   5.768   8.128  1.0187 -0.9560 -1.1188
  167SAPE   C3318869   1.065   6.108   6.703 -0.5462 -0.7840  0.0176
  167SAPE   H3X18870   0.985   6.039   6.736 -1.1327 -0.0714  0.1263
  167SAPE   H3Y18871   1.024   6.211   6.690  0.7865 -0.4657 -2.0264
  167SAPE   C3418872   1.169   6.127   6.828 -0.4235 -0.0119  0.6020
  167SAPE   H4X18873   1.249   6.192   6.786 -1.5784  0.3664 -1.1083
  167SAPE   H4Y18874   1.207   6.024   6.838 -1.9298 -0.6970 -0.3531
  167SAPE   C3518875   1.095   6.181   6.959  0.8503  0.6576  0.1517
  167SAPE   H5X18876   1.053   6.277   6.923  0.1295  0.0157 -0.7398
  167SAPE   H5Y18877   1.175   6.212   7.030  0.1703  1.7122  0.4796
  167SAPE   C3618878   0.997   6.086   7.027 -0.5415  0.4084 -0.1695
  167SAPE   H6X18879   1.040   5.986   7.048 -0.8063  0.3045 -0.1274
  167SAPE   H6Y18880   0.902   6.075   6.970 -0.9083  0.8682  0.3450
  167SAPE   C3718881   0.951   6.133   7.161 -0.0250 -0.3236  0.8552
  167SAPE   H7X18882   0.905   6.233   7.145  0.3217  0.0433  2.0260
  167SAPE   H7Y18883   1.042   6.164   7.216  1.0318 -1.9169  0.0782
  167SAPE   C3818884   0.853   6.044   7.237  0.6058  0.1734 -0.1047
  167SAPE   H8X18885   0.898   5.942   7.235  0.1402 -0.0214 -1.0911
  167SAPE   H8Y18886   0.750   6.044   7.197  0.3691  0.0882  0.4938
  167SAPE   C3918887   0.842   6.083   7.390 -0.4409 -0.2734 -0.2652
  167SAPE   H9X18888   0.806   6.187   7.406  0.2083  0.1274 -1.3086
  167SAPE   H9Y18889   0.940   6.088   7.442 -0.1813 -2.4743 -0.4475
  167SAPE  C31018890   0.756   5.994   7.479 -0.2870  0.4810 -0.0637
  167SAPE  H10X18891   0.789   5.888   7.483  1.7122  0.9605 -1.8519
  167SAPE  H10Y18892   0.649   5.994   7.452 -0.2406 -0.0085 -0.2487
  167SAPE  C31118893   0.753   6.036   7.632 -0.6144  0.0098 -0.9663
  167SAPE  H11X18894   0.709   6.136   7.653  2.1365  1.2336 -0.4458
  167SAPE  H11Y18895   0.859   6.050   7.664 -1.0380  0.3858  0.3212
  167SAPE  C31218896   0.708   5.920   7.716  0.6766 -0.1737  0.0143
  167SAPE  H12X18897   0.713   5.828   7.655 -0.4311 -2.0355  2.5541
  167SAPE  H12Y18898   0.602   5.932   7.748 -0.4467 -4.0613 -1.7104
  167SAPE  C31318899   0.786   5.902   7.850 -0.0951  0.3439 -0.8836
  167SAPE  H13X18900   0.784   6.001   7.901 -0.1610 -1.0632  2.0838
  167SAPE  H13Y18901   0.892   5.874   7.835 -0.6881 -2.8148 -0.0244
  167SAPE  C31418902   0.706   5.806   7.946 -0.2544 -0.0511 -0.1005
  167SAPE  H14X18903   0.693   5.712   7.889 -1.3497 -0.0307  0.1055
  167SAPE  H14Y18904   0.608   5.858   7.956  1.0305  2.9170 -1.6375
  167SAPE  C31518905   0.767   5.791   8.086 -0.1680  0.5188 -0.9597
  167SAPE  H15X18906   0.752   5.882   8.148  0.1774 -0.3132  0.3896
  167SAPE  H15Y18907   0.877   5.771   8.086 -0.1137  0.7898  0.0252
  167SAPE  C31618908   0.702   5.676   8.163  0.3158  0.0850  0.1478
  167SAPE  H16X18909   0.720   5.578   8.115 -0.5491  0.2644 -0.5792
  167SAPE  H16Y18910   0.591   5.686   8.156  0.2544 -0.8881 -0.5413
  167SAPE  C31718911   0.731   5.684   8.313 -0.6780 -0.8854  0.3313
  167SAPE  H17X18912   0.681   5.772   8.358 -0.3601  0.5299 -1.9081
  167SAPE  H17Y18913   0.840   5.698   8.328 -0.4760 -1.4978 -0.4592
  167SAPE  C31818914   0.689   5.562   8.389 -0.0089  0.3139 -0.1103
  167SAPE  H18X18915   0.716   5.589   8.494  0.4259  1.9135 -0.5988
  167SAPE  H18Y18916   0.743   5.473   8.352 -0.6616  0.4620 -1.4529
  167SAPE  H18Z18917   0.582   5.534   8.388  0.5536 -1.9614 -0.0262
  168SAPE     N18918   4.258   5.425   5.873 -0.4571  0.2051 -0.1024
  168SAPE   HN118919   4.278   5.447   5.774  0.0858 -3.3328 -0.9094
  168SAPE   HN218920   4.241   5.512   5.928 -2.1955  0.4111 -0.8992
  168SAPE   HN318921   4.346   5.387   5.912 -0.1644  2.3113  1.4833
  168SAPE   C1218922   4.144   5.331   5.894  0.2763  0.6435 -0.0247
  168SAPE  H12A18923   4.171   5.235   5.844 -1.7084  0.7153 -1.3146
  168SAPE  H12B18924   4.054   5.378   5.849  0.8050  1.1505 -0.5800
  168SAPE   C1118925   4.114   5.325   6.041 -0.1241  0.1555 -0.4189
  168SAPE  H11A18926   4.212   5.304   6.089  0.3363  0.2843 -1.2782
  168SAPE  H11B18927   4.042   5.247   6.073 -2.0584  2.0794  0.1546
  168SAPE     P18928   4.015   5.481   6.236 -0.2279  0.2068  0.0509
  168SAPE   O1318929   4.013   5.624   6.276 -0.6842 -0.1669 -0.3534
  168SAPE   O1418930   3.884   5.410   6.233 -0.1756 -0.0537 -0.9139
  168SAPE   O1218931   4.070   5.455   6.089  0.1821  0.2982  0.2201
  168SAPE   O1118932   4.110   5.407   6.326  0.0941  0.1754 -0.4807
  168SAPE    C118933   4.254   5.424   6.340  0.0606 -1.0928  0.5459
  168SAPE    HA18934   4.303   5.334   6.297  1.1952 -0.3575  0.2302
  168SAPE    HB18935   4.294   5.520   6.300  1.6212 -0.9941  2.2211
  168SAPE    C218936   4.289   5.444   6.489 -0.3915 -0.1936  0.4166
  168SAPE    HS18937   4.390   5.490   6.494 -0.9047  0.9540  0.6507
  168SAPE   O2118938   4.278   5.322   6.562  0.3762 -0.1785 -0.2735
  168SAPE   C2118939   4.375   5.237   6.585 -0.3666  0.3860 -0.7550
  168SAPE   O2218940   4.488   5.235   6.534  0.1914 -1.1808 -0.4212
  168SAPE   C2218941   4.323   5.138   6.683  0.8376 -0.5365  0.0096
  168SAPE   H2R18942   4.240   5.170   6.749  0.4927 -3.9298  1.4269
  168SAPE   H2S18943   4.295   5.045   6.631 -0.8741 -0.8016  1.3237
  168SAPE    C318944   4.206   5.566   6.548  0.9094 -0.0636 -0.6206
  168SAPE    HX18945   4.100   5.541   6.525  0.9111 -2.2957  1.3599
  168SAPE    HY18946   4.236   5.662   6.501 -0.9289  0.8556  0.0270
  168SAPE   O3118947   4.206   5.572   6.690 -0.1068 -1.0457 -0.5041
  168SAPE   C3118948   4.301   5.649   6.740  0.3783  0.3361  0.4008
  168SAPE   O3218949   4.379   5.717   6.671 -0.0972 -0.1662  0.2137
  168SAPE   C3218950   4.307   5.654   6.895  0.2700 -0.0935  0.9717
  168SAPE   H2X18951   4.379   5.577   6.929 -0.0340  0.0694  2.0206
  168SAPE   H2Y18952   4.205   5.638   6.937 -0.1635 -2.5330 -0.8047
  168SAPE   C2318953   4.431   5.095   6.787  0.1452  0.4635  0.4292
  168SAPE   H3R18954   4.466   5.188   6.838  2.5046  0.6587 -1.3858
  168SAPE   H3S18955   4.522   5.068   6.729  0.1934 -1.1733  1.2322
  168SAPE   C2418956   4.394   4.983   6.881 -0.1966  0.5982 -0.4755
  168SAPE   H4R18957   4.386   4.898   6.810  1.3026  1.3218 -1.5729
  168SAPE   H4S18958   4.300   5.013   6.932 -0.1191  1.8336 -1.0197
  168SAPE   C2518959   4.511   4.946   6.974 -0.0070  0.0562  0.0686
  168SAPE   H5R18960   4.601   4.925   6.915 -0.8981  0.2805 -1.3997
  168SAPE   C2618961   4.517   4.926   7.109 -0.4474 -0.0537 -0.5357
  168SAPE   H6R18962   4.617   4.906   7.151 -0.4445 -0.5610 -0.7659
  168SAPE   C2718963   4.411   4.947   7.208  0.6593 -0.3976 -0.3115
  168SAPE   H7R18964   4.347   5.033   7.179  2.0103  2.0486  3.3077
  168SAPE   H7S18965   4.456   4.987   7.302 -0.9208  4.4927 -1.3741
  168SAPE   C2818966   4.335   4.824   7.234  0.7649  0.1215 -0.8844
  168SAPE   H8R18967   4.346   4.737   7.167 -2.4238  0.2837 -1.8042
  168SAPE   C2918968   4.263   4.799   7.347  0.6222  0.1928  0.1680
  168SAPE   H9R18969   4.225   4.697   7.359  0.9478 -0.0632 -0.8605
  168SAPE  C21018970   4.247   4.890   7.459 -0.1855  0.1021  0.2255
  168SAPE  H10R18971   4.147   4.876   7.505  0.5384 -0.9066  1.5890
  168SAPE  H10S18972   4.241   4.996   7.427 -0.5290  1.7188  4.9128
  168SAPE  C21118973   4.359   4.873   7.558  0.5050  0.4077 -1.2781
  168SAPE  H11R18974   4.457   4.868   7.508  2.7022  0.2921  2.6375
  168SAPE  C21218975   4.342   4.862   7.696 -0.4344  0.9533  0.4368
  168SAPE  H12R18976   4.432   4.845   7.758  0.9565 -1.0255 -1.9358
  168SAPE  C21318977   4.207   4.868   7.770  0.3730 -0.2361  0.1637
  168SAPE  H13R18978   4.166   4.764   7.771 -1.2257  0.3665  1.6755
  168SAPE  H13S18979   4.137   4.938   7.719 -2.3171 -2.6613  0.2581
  168SAPE  C21418980   4.231   4.891   7.923 -0.1909  0.2953  0.7421
  168SAPE  H14R18981   4.274   4.990   7.941  0.4036  0.3934 -1.0104
  168SAPE  C21518982   4.204   4.814   8.030  0.3071 -0.2085  0.5372
  168SAPE  H15R18983   4.245   4.840   8.129 -0.4455 -2.4917  1.5095
  168SAPE  C21618984   4.137   4.686   8.038  0.2144 -0.2439 -0.0155
  168SAPE  H16R18985   4.206   4.621   8.094  3.4839  3.9986  1.4248
  168SAPE  H16S18986   4.119   4.643   7.937 -1.9419  1.2556 -0.3389
  168SAPE  C21718987   4.003   4.699   8.110  0.6726 -0.3543 -0.0614
  168SAPE  H17R18988   3.970   4.593   8.114  1.9169 -0.7109  1.2847
  168SAPE  H17S18989   3.930   4.753   8.046  1.7499 -0.1381 -1.1552
  168SAPE  C21818990   3.997   4.772   8.250  0.3818 -0.0188 -0.1651
  168SAPE  H18R18991   4.000   4.880   8.223  0.0161 -0.1953 -0.9508
  168SAPE  H18S18992   4.087   4.752   8.311  1.1151  3.0504 -0.1201
  168SAPE  C21918993   3.866   4.737   8.321  0.1589 -0.2505 -0.3634
  168SAPE  H19R18994   3.855   4.627   8.333 -0.4801  0.0883  3.3201
  168SAPE  H19S18995   3.783   4.780   8.261 -2.5930 -0.6928  2.7730
  168SAPE  C22018996   3.852   4.788   8.462  0.1593  0.0334  0.8863
  168SAPE  H20R18997   3.846   4.899   8.466 -0.3795  0.0469 -0.1373
  168SAPE  H20S18998   3.940   4.751   8.520  0.4533 -0.4558  0.1353
  168SAPE  H20T18999   3.763   4.749   8.516 -0.2127 -0.0141  0.2500
  168SAPE   C3319000   4.350   5.795   6.940  0.0317 -0.3271 -1.2489
  168SAPE   H3X19001   4.299   5.880   6.891 -0.9934 -0.8545 -1.1218
  168SAPE   H3Y19002   4.461   5.809   6.938  0.0777  0.4242  1.6703
  168SAPE   C3419003   4.324   5.812   7.096  0.0954  0.0954 -0.0963
  168SAPE   H4X19004   4.214   5.812   7.110  0.0508  0.9152 -0.3827
  168SAPE   H4Y19005   4.371   5.910   7.118  0.9339 -0.0513 -1.1104
  168SAPE   C3519006   4.383   5.705   7.190  0.6390 -0.2159 -0.2713
  168SAPE   H5X19007   4.493   5.703   7.172  0.6891 -1.1218  0.0878
  168SAPE   H5Y19008   4.341   5.603   7.181  0.7485 -0.4620  1.6281
  168SAPE   C3619009   4.369   5.733   7.345 -0.4982 -0.5156  0.3478
  168SAPE   H6X19010   4.366   5.841   7.367 -2.1297 -0.0926 -1.6871
  168SAPE   H6Y19011   4.456   5.687   7.398 -1.1788 -1.2755  0.8310
  168SAPE   C3719012   4.238   5.683   7.406  0.0880  0.3963  0.2785
  168SAPE   H7X19013   4.227   5.572   7.414 -1.4966  0.3223 -1.9634
  168SAPE   H7Y19014   4.154   5.720   7.344 -1.8808 -1.2277  1.8512
  168SAPE   C3819015   4.207   5.734   7.546  0.4153  0.1618 -0.2721
  168SAPE   H8X19016   4.241   5.838   7.564 -1.9896  0.8190  0.8341
  168SAPE   H8Y19017   4.268   5.669   7.614  0.1744 -0.5717 -0.7430
  168SAPE   C3919018   4.067   5.723   7.594  0.2005  0.3433  0.2606
  168SAPE   H9X19019   4.027   5.620   7.583  0.4151  0.1591  1.1682
  168SAPE   H9Y19020   4.013   5.797   7.531 -0.3839  0.4133  0.8356
  168SAPE  C31019021   4.066   5.767   7.748 -0.0679 -0.2186  0.1512
  168SAPE  H10X19022   4.118   5.864   7.755  2.4428 -1.3335 -1.4630
  168SAPE  H10Y19023   4.122   5.692   7.807  0.3028  0.5701  0.8159
  168SAPE  C31119024   3.923   5.774   7.812  1.0313  0.0361  0.3043
  168SAPE  H11X19025   3.866   5.679   7.800  1.4352 -0.1544 -0.1321
  168SAPE  H11Y19026   3.871   5.857   7.759  0.2509 -1.0936 -0.7379
  168SAPE  C31219027   3.929   5.803   7.957  0.0487  0.4859  0.5790
  168SAPE  H12X19028   3.958   5.909   7.971  2.0177 -0.0247  0.7037
  168SAPE  H12Y19029   4.007   5.744   8.009 -0.4163 -0.1315  0.5920
  168SAPE  C31319030   3.809   5.767   8.042 -0.2323  0.0239 -0.9492
  168SAPE  H13X19031   3.822   5.657   8.053  0.2250  0.2805  1.9429
  168SAPE  H13Y19032   3.714   5.790   7.991 -1.0627 -1.1283  0.0348
  168SAPE  C31419033   3.807   5.822   8.186 -0.8906 -0.9351 -0.5870
  168SAPE  H14X19034   3.898   5.784   8.237  0.4281 -1.5998 -3.2652
  168SAPE  H14Y19035   3.714   5.801   8.242  0.4657 -2.6057  1.1675
  168SAPE  C31519036   3.830   5.975   8.196 -0.5545 -0.1109  0.1987
  168SAPE  H15X19037   3.765   6.035   8.128  1.4642  0.4995 -1.2850
  168SAPE  H15Y19038   3.932   6.000   8.161 -0.7675 -1.0823 -1.1778
  168SAPE  C31619039   3.805   6.043   8.340 -0.4370 -0.0071  0.5503
  168SAPE  H16X19040   3.709   6.002   8.377 -0.9389 -0.8100 -1.4749
  168SAPE  H16Y19041   3.803   6.153   8.325  0.4756 -0.1144 -0.5317
  168SAPE  C31719042   3.914   5.999   8.447 -0.5777 -0.1653 -0.1586
  168SAPE  H17X19043   3.988   6.080   8.429 -2.3889  1.5820 -0.0786
  168SAPE  H17Y19044   3.965   5.905   8.417  0.1957  0.8215 -2.0493
  168SAPE  C31819045   3.872   5.994   8.594 -0.9713  0.4405  0.1310
  168SAPE  H18X19046   3.813   6.083   8.626 -0.3251  0.0696  2.5722
  168SAPE  H18Y19047   3.967   5.991   8.652 -1.1616 -0.2520  0.4133
  168SAPE  H18Z19048   3.816   5.900   8.615  0.6810 -0.4981  0.4864
  169SAPE     N19049   5.420   0.808   6.074  0.0009 -0.2117 -0.0536
  169SAPE   HN119050   5.359   0.732   6.036  0.5295 -0.6520 -0.0371
  169SAPE   HN219051   5.458   0.792   6.169 -0.4005 -1.5256 -0.0881
  169SAPE   HN319052   5.370   0.899   6.067 -0.4831 -0.4885 -0.2643
  169SAPE   C1219053   5.539   0.799   5.983  0.1445  0.1819  0.0988
  169SAPE  H12A19054   5.512   0.833   5.880 -0.3368  1.7349  0.7095
  169SAPE  H12B19055   5.581   0.696   5.986  1.9377  0.8523 -0.6262
  169SAPE   C1119056   5.647   0.892   6.035  0.1563  0.1182  0.2154
  169SAPE  H11A19057   5.601   0.992   6.047 -0.3880  0.1067 -1.5110
  169SAPE  H11B19058   5.721   0.897   5.952 -0.7251  1.7775 -0.5161
  169SAPE     P19059   5.851   0.842   6.202  0.3469 -0.5446 -0.3819
  169SAPE   O1319060   5.874   0.729   6.291 -0.1848 -0.0390  0.1821
  169SAPE   O1419061   5.933   0.866   6.081 -0.3522 -0.4034 -0.2319
  169SAPE   O1219062   5.697   0.838   6.157 -0.2233  0.2725 -0.4237
  169SAPE   O1119063   5.853   0.970   6.297 -0.1003  0.2946 -0.3579
  169SAPE    C119064   5.786   0.958   6.424 -0.1035  0.6726  0.2142
  169SAPE    HA19065   5.678   0.931   6.414  0.0893 -0.2473  0.5168
  169SAPE    HB19066   5.831   0.881   6.489  1.0180  1.6805  0.6594
  169SAPE    C219067   5.802   1.091   6.515  0.0839  0.8859  0.7681
  169SAPE    HS19068   5.759   1.172   6.452  1.4519  2.2307  1.4742
  169SAPE   O2119069   5.939   1.123   6.545 -0.3041 -0.4819  0.2516
  169SAPE   C2119070   5.964   1.252   6.581  0.7245 -0.1503  0.3225
  169SAPE   O2219071   5.882   1.342   6.563 -0.6302  0.1083 -0.0638
  169SAPE   C2219072   6.104   1.269   6.644  0.4491  0.2300  0.0191
  169SAPE   H2R19073   6.124   1.182   6.709  0.6758 -1.7410 -2.5206
  169SAPE   H2S19074   6.179   1.282   6.563  0.7037 -0.4708  0.1414
  169SAPE    C319075   5.716   1.073   6.642  0.5307 -0.1361 -0.5330
  169SAPE    HX19076   5.621   1.048   6.590  0.9426  1.6444 -2.2346
  169SAPE    HY19077   5.710   1.167   6.701  2.2211  1.5096 -2.7926
  169SAPE   O3119078   5.754   0.961   6.731 -0.3111  0.1462  0.2950
  169SAPE   C3119079   5.859   0.988   6.810  0.5326  0.3480  0.9152
  169SAPE   O3219080   5.904   1.097   6.825  0.5399 -0.9448  0.0860
  169SAPE   C3219081   5.912   0.857   6.872  0.2761 -0.1179 -0.4183
  169SAPE   H2X19082   6.017   0.836   6.840  0.8602  0.1025  1.2276
  169SAPE   H2Y19083   5.833   0.780   6.863 -1.0249  1.0924  0.3804
  169SAPE   C2319084   6.112   1.397   6.729  0.9957 -0.4297  0.3383
  169SAPE   H3R19085   6.043   1.393   6.816 -0.1285  3.1978 -0.1964
  169SAPE   H3S19086   6.071   1.472   6.658 -0.9223  0.4919  2.3377
  169SAPE   C2419087   6.256   1.427   6.756  0.1751  0.2408 -0.3657
  169SAPE   H4R19088   6.310   1.435   6.660  1.8997  0.2593  0.5617
  169SAPE   H4S19089   6.292   1.346   6.824 -0.9087 -0.3751 -0.5163
  169SAPE   C2519090   6.281   1.562   6.817  0.0626  0.0310 -0.4086
  169SAPE   H5R19091   6.250   1.644   6.750  0.7901  0.8152  0.1965
  169SAPE   C2619092   6.333   1.595   6.943 -0.4732  0.8772 -0.8018
  169SAPE   H6R19093   6.344   1.697   6.982 -1.0506  0.9317 -0.7753
  169SAPE   C2719094   6.374   1.485   7.040 -0.1184 -0.5228  0.0991
  169SAPE   H7R19095   6.449   1.521   7.114 -1.2209  0.5310  0.7459
  169SAPE   H7S19096   6.411   1.394   6.989 -0.3824 -1.2146  1.1107
  169SAPE   C2819097   6.245   1.448   7.114  0.4934  0.0037 -1.0284
  169SAPE   H8R19098   6.162   1.416   7.048  0.4369  1.7712 -1.8658
  169SAPE   C2919099   6.234   1.451   7.250  0.3161  0.3828  0.0038
  169SAPE   H9R19100   6.139   1.419   7.294  1.3209 -1.9491  0.6126
  169SAPE  C21019101   6.344   1.491   7.344  0.2648  0.0460  0.0398
  169SAPE  H10R19102   6.431   1.531   7.288  1.0166 -1.7043 -0.1076
  169SAPE  H10S19103   6.388   1.404   7.396 -0.3927 -0.9896 -1.0843
  169SAPE  C21119104   6.304   1.600   7.443 -0.0979 -0.4893  0.5001
  169SAPE  H11R19105   6.263   1.688   7.392 -0.4517 -1.2242 -0.5345
  169SAPE  C21219106   6.323   1.594   7.579 -0.1670  0.7722 -0.3525
  169SAPE  H12R19107   6.305   1.686   7.636 -0.8768  1.1969 -1.2264
  169SAPE  C21319108   6.378   1.480   7.653  0.1702 -0.2730 -0.0753
  169SAPE  H13R19109   6.487   1.474   7.634  0.7090 -0.8440  2.7055
  169SAPE  H13S19110   6.338   1.381   7.621  1.4979 -0.4485 -1.2913
  169SAPE  C21419111   6.349   1.498   7.802 -0.2220  0.1322  0.2715
  169SAPE  H14R19112   6.255   1.454   7.838  0.5378  0.2333  2.5165
  169SAPE  C21519113   6.427   1.565   7.892  0.0418 -0.7173  0.2221
  169SAPE  H15R19114   6.391   1.569   7.996  0.9535  1.6232  0.5003
  169SAPE  C21619115   6.560   1.640   7.874 -0.1972  0.5293 -0.5888
  169SAPE  H16R19116   6.588   1.648   7.766  1.2591 -0.1659 -0.2892
  169SAPE  H16S19117   6.640   1.587   7.930 -1.4860 -0.9284 -0.0648
  169SAPE  C21719118   6.554   1.777   7.927  0.4187 -0.4284 -1.2759
  169SAPE  H17R19119   6.451   1.815   7.911  0.0031  0.5114  2.6245
  169SAPE  H17S19120   6.612   1.846   7.861  0.1728  0.3394 -0.7042
  169SAPE  C21819121   6.597   1.783   8.082 -0.2436 -0.5324 -0.1337
  169SAPE  H18R19122   6.608   1.892   8.097  1.5627 -0.7793  0.5965
  169SAPE  H18S19123   6.697   1.733   8.084  0.0245 -0.0832 -1.4539
  169SAPE  C21919124   6.497   1.720   8.177 -0.1262 -0.0503 -0.1508
  169SAPE  H19R19125   6.489   1.613   8.151  1.7546  0.0320 -1.3263
  169SAPE  H19S19126   6.397   1.767   8.164  0.0551  1.3381  2.6874
  169SAPE  C22019127   6.541   1.748   8.322 -0.1858  0.4167 -0.0872
  169SAPE  H20R19128   6.651   1.765   8.330 -0.3531  1.4315  0.2403
  169SAPE  H20S19129   6.518   1.658   8.384 -0.5922 -1.1338 -2.3735
  169SAPE  H20T19130   6.480   1.828   8.370 -2.4982 -0.9432 -0.6377
  169SAPE   C3319131   5.917   0.878   7.023  0.7254  0.0773 -0.2006
  169SAPE   H3X19132   5.813   0.905   7.051 -0.7014 -2.1789 -2.8082
  169SAPE   H3Y19133   5.984   0.965   7.041 -1.1628  1.7638 -0.8564
  169SAPE   C3419134   5.969   0.757   7.096  0.6167 -0.3980 -0.0173
  169SAPE   H4X19135   6.063   0.720   7.050  0.8551  0.0755  0.0845
  169SAPE   H4Y19136   5.890   0.680   7.104  1.4345 -1.1356  1.2367
  169SAPE   C3519137   6.008   0.791   7.244 -0.4741 -0.4804  0.8581
  169SAPE   H5X19138   5.935   0.861   7.290  0.0518  0.6250  0.0444
  169SAPE   H5Y19139   6.104   0.845   7.238 -0.4277 -0.5352  1.0991
  169SAPE   C3619140   6.005   0.660   7.315  0.2934 -0.4216  0.5079
  169SAPE   H6X19141   6.079   0.601   7.256  0.0966 -0.9238  0.7617
  169SAPE   H6Y19142   5.906   0.608   7.311 -1.3661  2.5963 -0.4250
  169SAPE   C3719143   6.057   0.665   7.461 -0.5269  0.1162  0.3007
  169SAPE   H7X19144   6.149   0.726   7.475 -0.0727 -0.2220 -1.0825
  169SAPE   H7Y19145   6.093   0.566   7.498  1.6181 -0.4244 -2.8523
  169SAPE   C3819146   5.942   0.704   7.554  0.2783  0.2688 -0.1259
  169SAPE   H8X19147   5.872   0.617   7.550  0.2909  0.2810 -0.9979
  169SAPE   H8Y19148   5.896   0.795   7.508  2.0915  1.5721  0.5279
  169SAPE   C3919149   5.980   0.724   7.707  0.0434 -0.4064  0.2663
  169SAPE   H9X19150   6.057   0.803   7.714 -0.4779 -0.0261  2.2401
  169SAPE   H9Y19151   6.030   0.628   7.733 -0.8715 -0.8235  0.5516
  169SAPE  C31019152   5.867   0.752   7.812  0.5339  0.2278  0.0482
  169SAPE  H10X19153   5.797   0.666   7.802 -0.8606  1.5832 -2.7297
  169SAPE  H10Y19154   5.812   0.843   7.782  0.7542  0.5638  0.6501
  169SAPE  C31119155   5.908   0.776   7.956 -0.1370 -0.4971  0.3726
  169SAPE  H11X19156   5.812   0.793   8.009 -0.5408  2.4320 -1.0926
  169SAPE  H11Y19157   5.965   0.869   7.977  1.9709 -2.3012  3.5013
  169SAPE  C31219158   5.990   0.667   8.020 -0.3831  0.0675  0.7087
  169SAPE  H12X19159   6.090   0.665   7.973 -0.6868 -1.8973  0.0246
  169SAPE  H12Y19160   5.930   0.576   7.996 -0.1353  0.5066 -1.8689
  169SAPE  C31319161   6.005   0.686   8.170  0.1842  0.3309 -0.3988
  169SAPE  H13X19162   5.908   0.702   8.221  0.6065  3.3666 -0.3620
  169SAPE  H13Y19163   6.068   0.775   8.191  0.5747  0.0991 -0.5719
  169SAPE  C31419164   6.071   0.571   8.245 -0.0937  0.4777  0.3822
  169SAPE  H14X19165   6.175   0.568   8.207  0.1395  0.7469  0.9998
  169SAPE  H14Y19166   6.027   0.470   8.235  0.6447  0.0697  1.1994
  169SAPE  C31519167   6.096   0.600   8.399 -0.8210  0.5511 -0.2187
  169SAPE  H15X19168   5.996   0.588   8.446 -0.3226  0.8271  0.9587
  169SAPE  H15Y19169   6.131   0.704   8.420 -1.7580  0.9139 -0.4074
  169SAPE  C31619170   6.199   0.499   8.464 -0.1630 -0.1678  0.1337
  169SAPE  H16X19171   6.291   0.538   8.513  0.3936 -2.0827  0.7254
  169SAPE  H16Y19172   6.244   0.438   8.384 -0.8503  0.6944 -0.9371
  169SAPE  C31719173   6.122   0.396   8.551  0.1301  0.1508  0.4018
  169SAPE  H17X19174   6.057   0.331   8.488  0.1696  1.6048 -1.2285
  169SAPE  H17Y19175   6.056   0.460   8.614  0.2913  0.0389  0.6842
  169SAPE  C31819176   6.200   0.302   8.645 -0.5032 -0.1786 -0.6526
  169SAPE  H18X19177   6.273   0.367   8.697 -0.9958 -1.0594  1.2439
  169SAPE  H18Y19178   6.252   0.228   8.581 -0.2033 -0.1875 -0.3976
  169SAPE  H18Z19179   6.138   0.248   8.720  3.6485 -1.5156  2.1803
  170SAPE     N19180   3.368   6.488   6.094  0.0477 -1.3182  0.2024
  170SAPE   HN119181   3.285   6.518   6.039  0.4296  1.1930  0.8526
  170SAPE   HN219182   3.450   6.514   6.037  1.1577 -0.4730  2.0738
  170SAPE   HN319183   3.365   6.385   6.105 -1.8847 -1.2582  0.6916
  170SAPE   C1219184   3.380   6.563   6.221  0.0644  0.1220 -0.0953
  170SAPE  H12A19185   3.465   6.635   6.222 -0.3150  0.6062  1.6999
  170SAPE  H12B19186   3.401   6.488   6.300  0.8057  1.0093  0.5698
  170SAPE   C1119187   3.245   6.629   6.266  0.1358  0.2598 -0.1193
  170SAPE  H11A19188   3.212   6.715   6.203  0.9759  1.5724  1.1717
  170SAPE  H11B19189   3.265   6.684   6.361  1.2588 -0.0626 -0.1584
  170SAPE     P19190   3.034   6.509   6.177  0.4264  0.6112  0.2628
  170SAPE   O1319191   3.099   6.541   6.050  0.3226 -0.1783  0.2452
  170SAPE   O1419192   2.978   6.370   6.204  0.2601  0.6229  0.8013
  170SAPE   O1219193   3.137   6.533   6.289  0.8660 -0.0930  0.1240
  170SAPE   O1119194   2.934   6.627   6.197  0.4895  0.0152  0.3600
  170SAPE    C119195   2.909   6.706   6.313  0.7353 -0.8014 -0.0339
  170SAPE    HA19196   3.001   6.744   6.361  0.1143  0.5740  0.1174
  170SAPE    HB19197   2.858   6.797   6.275  1.0942  0.0038  1.3321
  170SAPE    C219198   2.824   6.640   6.426 -0.6446 -0.4605  0.1131
  170SAPE    HS19199   2.804   6.532   6.405  0.8586 -1.1723  2.0512
  170SAPE   O2119200   2.703   6.717   6.445  0.5450 -0.1864 -0.1567
  170SAPE   C2119201   2.604   6.660   6.503 -0.2067  0.6522  0.3881
  170SAPE   O2219202   2.589   6.541   6.523  0.1951 -0.4249 -0.1282
  170SAPE   C2219203   2.503   6.764   6.548  0.6305 -0.2196  0.0699
  170SAPE   H2R19204   2.534   6.870   6.533 -2.7643  0.9867  0.6742
  170SAPE   H2S19205   2.415   6.752   6.482 -0.8743  1.1635  1.7361
  170SAPE    C319206   2.899   6.657   6.559 -0.4963  0.3320 -0.4591
  170SAPE    HX19207   2.908   6.765   6.584  0.0520 -0.4099  2.9106
  170SAPE    HY19208   3.003   6.622   6.543 -0.5937  0.7118 -2.1732
  170SAPE   O3119209   2.828   6.600   6.676 -0.7904 -0.4485 -0.3373
  170SAPE   C3119210   2.890   6.504   6.731 -0.8058  0.2466 -0.6925
  170SAPE   O3219211   2.994   6.447   6.694  0.3220  0.4494 -0.2103
  170SAPE   C3219212   2.801   6.458   6.848  0.1340  0.1489 -0.1306
  170SAPE   H2X19213   2.830   6.504   6.945 -0.2413 -1.2137  0.6441
  170SAPE   H2Y19214   2.823   6.349   6.850 -0.3531  0.0538  0.9493
  170SAPE   C2319215   2.440   6.738   6.683  0.8365  0.2713  0.2537
  170SAPE   H3R19216   2.501   6.767   6.771  0.8459  1.3184 -0.0759
  170SAPE   H3S19217   2.413   6.631   6.696 -1.5201  0.5925 -1.3383
  170SAPE   C2419218   2.304   6.821   6.694 -0.4568  0.2051  0.4184
  170SAPE   H4R19219   2.234   6.765   6.760 -0.5198 -2.9569 -2.0605
  170SAPE   H4S19220   2.254   6.821   6.595  2.1197 -0.1259 -0.9816
  170SAPE   C2519221   2.331   6.967   6.726  0.5026 -0.6563  0.0898
  170SAPE   H5R19222   2.380   7.034   6.654  0.5328  0.6255  1.2651
  170SAPE   C2619223   2.294   7.027   6.840 -0.9184  0.1983 -0.0522
  170SAPE   H6R19224   2.320   7.132   6.860  1.1954 -0.3422  0.2139
  170SAPE   C2719225   2.229   6.967   6.957  0.3736 -0.7827 -0.0459
  170SAPE   H7R19226   2.121   6.946   6.941  0.0746 -1.1131  2.0681
  170SAPE   H7S19227   2.216   7.051   7.028 -0.6626 -0.4246 -0.6500
  170SAPE   C2819228   2.288   6.846   7.024 -0.2243 -0.2499 -0.6580
  170SAPE   H8R19229   2.354   6.788   6.957  0.4109 -1.2808  0.8008
  170SAPE   C2919230   2.286   6.817   7.154  0.2495  0.8385 -0.2761
  170SAPE   H9R19231   2.330   6.721   7.184 -0.6933  0.9496  1.6646
  170SAPE  C21019232   2.228   6.906   7.260  0.2476  0.4655  0.6986
  170SAPE  H10R19233   2.155   6.982   7.225 -1.6534 -0.0979  3.1613
  170SAPE  H10S19234   2.316   6.955   7.308  1.1355 -0.9604  0.5683
  170SAPE  C21119235   2.162   6.832   7.371  0.3983  0.1370  0.1935
  170SAPE  H11R19236   2.221   6.743   7.397  0.8468  0.3601 -0.0477
  170SAPE  C21219237   2.059   6.879   7.448 -0.7382 -0.3333 -0.1704
  170SAPE  H12R19238   2.017   6.811   7.524 -0.1198 -2.8181 -1.9383
  170SAPE  C21319239   1.980   7.010   7.435 -0.8599  0.4530  0.2578
  170SAPE  H13R19240   2.037   7.075   7.366 -1.4609  0.6122 -0.0968
  170SAPE  H13S19241   1.980   7.054   7.537 -3.8790  0.6987  0.2429
  170SAPE  C21419242   1.836   6.997   7.393 -0.0532 -0.1160  0.7370
  170SAPE  H14R19243   1.824   7.015   7.285  1.5608 -2.1397  0.1444
  170SAPE  C21519244   1.728   6.965   7.461  0.2244 -0.3075 -0.5264
  170SAPE  H15R19245   1.633   6.954   7.406  0.8734  0.5841 -1.8854
  170SAPE  C21619246   1.734   6.931   7.610 -0.0438 -1.0240  0.4529
  170SAPE  H16R19247   1.841   6.931   7.638  0.5128  0.2597 -1.4646
  170SAPE  H16S19248   1.699   6.827   7.626 -4.0116  0.2949  1.6302
  170SAPE  C21719249   1.646   7.025   7.696 -0.2208  0.4117 -0.7899
  170SAPE  H17R19250   1.543   7.044   7.659  0.3928  1.8178 -1.9006
  170SAPE  H17S19251   1.702   7.121   7.694  1.5188 -0.5391 -2.6750
  170SAPE  C21819252   1.631   6.975   7.847 -0.6733  0.2055  0.4442
  170SAPE  H18R19253   1.587   6.875   7.866  0.5558 -0.5338 -0.4324
  170SAPE  H18S19254   1.561   7.044   7.898  0.2122 -0.0439  2.0514
  170SAPE  C21919255   1.767   6.970   7.928 -0.1808 -0.5626  0.8310
  170SAPE  H19R19256   1.822   7.065   7.917  1.4283 -1.5602 -0.1671
  170SAPE  H19S19257   1.835   6.893   7.886  0.4573  1.3148 -1.8668
  170SAPE  C22019258   1.756   6.950   8.078  0.7569 -0.2357  0.6939
  170SAPE  H20R19259   1.855   6.930   8.124  0.7670  3.0385  2.4784
  170SAPE  H20S19260   1.680   6.876   8.111 -1.3997  1.0602 -1.1111
  170SAPE  H20T19261   1.718   7.045   8.123 -1.0930 -0.6029 -0.0147
  170SAPE   C3319262   2.647   6.482   6.831 -0.3011  1.0882  0.9733
  170SAPE   H3X19263   2.614   6.423   6.743  1.7806  2.0930 -0.5725
  170SAPE   H3Y19264   2.615   6.589   6.830 -4.0949  0.1230  2.0392
  170SAPE   C3419265   2.573   6.422   6.954  0.5616 -0.1485  0.7711
  170SAPE   H4X19266   2.580   6.311   6.958 -0.8295 -0.3420 -0.8538
  170SAPE   H4Y19267   2.467   6.455   6.951  0.1332 -1.5083 -0.5245
  170SAPE   C3519268   2.608   6.480   7.099 -0.5014  0.2519  1.0772
  170SAPE   H5X19269   2.590   6.588   7.080 -1.3615  0.2162  1.6785
  170SAPE   H5Y19270   2.716   6.475   7.125 -0.4423  1.9105  1.2138
  170SAPE   C3619271   2.510   6.445   7.218  0.2694 -0.4548  0.1506
  170SAPE   H6X19272   2.537   6.345   7.259 -0.6838 -1.1987 -0.9543
  170SAPE   H6Y19273   2.401   6.442   7.198  0.2955 -2.8458  0.0418
  170SAPE   C3719274   2.531   6.553   7.324 -0.1275  0.5127 -1.2331
  170SAPE   H7X19275   2.503   6.653   7.283 -1.4461  0.1810 -1.1928
  170SAPE   H7Y19276   2.640   6.560   7.345 -0.4903  0.1854  0.9614
  170SAPE   C3819277   2.440   6.524   7.445 -0.5112 -0.2704 -0.0629
  170SAPE   H8X19278   2.462   6.421   7.480 -0.8462 -1.8115 -3.9112
  170SAPE   H8Y19279   2.333   6.522   7.416 -0.6158  0.8968  0.1795
  170SAPE   C3919280   2.461   6.626   7.555  0.0198 -0.4746 -0.0317
  170SAPE   H9X19281   2.435   6.731   7.528 -0.7697 -1.5434 -4.0777
  170SAPE   H9Y19282   2.568   6.630   7.584 -0.6407 -0.2571  2.6694
  170SAPE  C31019283   2.387   6.584   7.688  0.1497  0.0971 -0.1799
  170SAPE  H10X19284   2.433   6.648   7.767  0.0445  0.1706 -0.1781
  170SAPE  H10Y19285   2.414   6.477   7.704  2.1847  0.2156 -2.3269
  170SAPE  C31119286   2.239   6.607   7.671  0.3512 -0.0948 -0.0200
  170SAPE  H11X19287   2.198   6.544   7.589 -0.2051  1.3630 -0.9051
  170SAPE  H11Y19288   2.211   6.710   7.639 -1.2416 -0.2540  0.7031
  170SAPE  C31219289   2.171   6.568   7.808  0.5280  0.3730  0.0851
  170SAPE  H12X19290   2.158   6.458   7.799 -0.6780  0.6412 -2.6801
  170SAPE  H12Y19291   2.065   6.602   7.804 -0.0955 -0.8596  3.2664
  170SAPE  C31319292   2.220   6.626   7.935 -0.7139 -0.0051 -0.4839
  170SAPE  H13X19293   2.234   6.731   7.899 -0.2112 -0.2075 -0.9015
  170SAPE  H13Y19294   2.319   6.588   7.967 -1.1188 -1.2330 -0.6669
  170SAPE  C31419295   2.128   6.636   8.054  0.4451  0.5278 -0.2953
  170SAPE  H14X19296   2.029   6.681   8.031  0.8079  2.3294  1.4029
  170SAPE  H14Y19297   2.178   6.711   8.120  1.2817 -0.5455  0.3400
  170SAPE  C31519298   2.103   6.493   8.111  0.0525 -0.1699 -0.3442
  170SAPE  H15X19299   2.207   6.457   8.126 -0.7642 -1.8896  1.7672
  170SAPE  H15Y19300   2.043   6.435   8.038 -1.9641  1.3548 -0.0047
  170SAPE  C31619301   2.040   6.483   8.257  0.6263  1.1082 -0.5268
  170SAPE  H16X19302   1.974   6.572   8.271  1.2895  1.5238 -0.0023
  170SAPE  H16Y19303   2.117   6.486   8.337 -1.2447 -1.0338  1.5386
  170SAPE  C31719304   1.969   6.345   8.272 -0.3586  0.7060  0.2382
  170SAPE  H17X19305   1.991   6.292   8.367  0.4001 -1.1636 -0.9367
  170SAPE  H17Y19306   2.012   6.274   8.198  0.3215 -1.4453  2.5770
  170SAPE  C31819307   1.820   6.363   8.234  0.2773 -0.3986 -0.3726
  170SAPE  H18X19308   1.811   6.405   8.132  0.2735 -0.2367 -0.3073
  170SAPE  H18Y19309   1.766   6.433   8.301  3.4231  2.1440 -0.2079
  170SAPE  H18Z19310   1.777   6.262   8.245 -0.3999 -0.0703  0.0574
  171SAPE     N19311   2.066   0.203   6.225  0.4831 -0.1442  0.0633
  171SAPE   HN119312   2.088   0.299   6.259  2.4537 -0.5379 -0.0037
  171SAPE   HN219313   2.144   0.170   6.166  0.6076  1.1801 -0.5591
  171SAPE   HN319314   1.997   0.209   6.147  0.1702 -1.2394  0.2502
  171SAPE   C1219315   2.023   0.097   6.329  0.0279  0.6587  0.4581
  171SAPE  H12A19316   1.913   0.109   6.337 -0.3934 -0.5928 -2.2036
  171SAPE  H12B19317   2.067   0.114   6.430  0.5668  2.0735  0.0115
  171SAPE   C1119318   2.035  -0.046   6.268 -0.5327  0.0414 -0.5028
  171SAPE  H11A19319   1.986  -0.050   6.168  0.7545 -0.1009 -1.1499
  171SAPE  H11B19320   1.982  -0.119   6.333  2.2857 -1.7937 -0.0853
  171SAPE     P19321   2.199  -0.219   6.171 -0.1126 -0.1651  0.4439
  171SAPE   O1319322   2.132  -0.212   6.042  0.2932 -0.4807  0.5273
  171SAPE   O1419323   2.345  -0.249   6.175 -0.0431 -0.9925 -0.0224
  171SAPE   O1219324   2.172  -0.090   6.247  0.2814 -1.0728 -0.0905
  171SAPE   O1119325   2.127  -0.328   6.261 -0.3477  0.3642 -0.2918
  171SAPE    C119326   2.162  -0.339   6.397  0.0641 -0.5304 -0.5312
  171SAPE    HA19327   2.232  -0.264   6.440  0.0323 -2.1314  2.5970
  171SAPE    HB19328   2.066  -0.342   6.454 -0.2011  0.7542 -0.8619
  171SAPE    C219329   2.221  -0.483   6.433  0.7609  0.2456 -0.4456
  171SAPE    HS19330   2.309  -0.506   6.370  1.6212  0.2421  0.7163
  171SAPE   O2119331   2.117  -0.582   6.415  0.3051 -0.1509 -0.1930
  171SAPE   C2119332   2.168  -0.708   6.400  0.4396 -0.4731  0.3905
  171SAPE   O2219333   2.285  -0.736   6.384  0.4416 -0.4399  0.2331
  171SAPE   C2219334   2.061  -0.810   6.420 -0.1654  0.4588  0.0164
  171SAPE   H2R19335   1.975  -0.804   6.350  0.4525  1.7451 -0.6672
  171SAPE   H2S19336   2.114  -0.906   6.400 -2.0225 -0.2463 -2.0314
  171SAPE    C319337   2.271  -0.488   6.577 -0.6276  0.0885  0.0898
  171SAPE    HX19338   2.350  -0.411   6.587 -0.1786 -0.5377  1.9892
  171SAPE    HY19339   2.320  -0.583   6.607 -0.9337  0.1924  0.9563
  171SAPE   O3119340   2.155  -0.457   6.668 -0.1765  0.1670 -0.2056
  171SAPE   C3119341   2.191  -0.466   6.795  0.4731 -0.4372  0.2657
  171SAPE   O3219342   2.295  -0.504   6.842  0.0060 -0.5372 -0.4382
  171SAPE   C3219343   2.085  -0.397   6.882  0.5822  0.1026 -0.0843
  171SAPE   H2X19344   2.036  -0.474   6.945 -1.1175 -0.3986 -1.9284
  171SAPE   H2Y19345   2.002  -0.353   6.824 -1.1520  0.0417  2.2124
  171SAPE   C2319346   2.015  -0.805   6.568  0.3483  0.6199 -0.0126
  171SAPE   H3R19347   1.980  -0.702   6.594  2.1326  1.4535 -0.7604
  171SAPE   H3S19348   2.099  -0.825   6.636  0.4623  0.5554 -0.1711
  171SAPE   C2419349   1.904  -0.905   6.599  0.5946  0.4050  0.4731
  171SAPE   H4R19350   1.823  -0.894   6.524 -0.7948 -1.1957  1.6578
  171SAPE   H4S19351   1.865  -0.877   6.699 -1.2515 -0.3318  0.0089
  171SAPE   C2519352   1.949  -1.047   6.609 -0.2128  0.4746  0.2227
  171SAPE   H5R19353   1.975  -1.092   6.513  0.2816 -0.1462  0.6358
  171SAPE   C2619354   1.961  -1.115   6.725 -0.9056  0.1203  0.5374
  171SAPE   H6R19355   2.005  -1.215   6.721 -3.0141 -0.8687  0.5317
  171SAPE   C2719356   1.929  -1.071   6.862  0.4239 -0.3423  0.3685
  171SAPE   H7R19357   1.934  -1.160   6.929  3.4379 -0.0460  0.6677
  171SAPE   H7S19358   1.824  -1.035   6.864 -0.2196 -2.0691  2.2219
  171SAPE   C2819359   2.026  -0.970   6.931  0.1418  0.3763  1.0998
  171SAPE   H8R19360   2.126  -0.961   6.887  0.1713 -3.2759  0.1656
  171SAPE   C2919361   2.009  -0.889   7.036 -0.2543 -0.3014 -0.3918
  171SAPE   H9R19362   2.092  -0.820   7.058 -0.3733 -0.4459  0.5535
  171SAPE  C21019363   1.879  -0.883   7.112  0.4418 -0.7598  0.5685
  171SAPE  H10R19364   1.868  -0.987   7.149  0.1314 -1.2798 -0.9122
  171SAPE  H10S19365   1.792  -0.859   7.047  0.2790  1.0589  1.3939
  171SAPE  C21119366   1.878  -0.782   7.222  1.0458 -0.6623  0.0893
  171SAPE  H11R19367   1.923  -0.684   7.201  0.9025 -0.2239  1.6832
  171SAPE  C21219368   1.810  -0.784   7.339  0.8143  0.0801 -0.3749
  171SAPE  H12R19369   1.829  -0.704   7.412 -0.0824 -0.1492  0.1243
  171SAPE  C21319370   1.724  -0.909   7.382 -0.2783 -0.7242 -0.3437
  171SAPE  H13R19371   1.755  -1.006   7.337  0.9973 -0.4831 -0.0146
  171SAPE  H13S19372   1.626  -0.901   7.330 -0.9664  0.8746  1.1046
  171SAPE  C21419373   1.722  -0.936   7.531 -0.0345 -0.5525 -0.1776
  171SAPE  H14R19374   1.630  -0.902   7.582  0.6556  1.1577 -0.0104
  171SAPE  C21519375   1.814  -0.993   7.607 -0.3309  0.3255  0.0652
  171SAPE  H15R19376   1.785  -1.014   7.711 -2.1735  1.4587 -0.1753
  171SAPE  C21619377   1.945  -1.049   7.560 -0.6130 -0.1425 -0.2950
  171SAPE  H16R19378   1.994  -1.011   7.467 -1.5080  1.2810 -0.2163
  171SAPE  H16S19379   1.932  -1.153   7.523  4.2813 -1.2018  0.3083
  171SAPE  C21719380   2.058  -1.056   7.665  0.6368  0.2792 -0.6005
  171SAPE  H17R19381   2.071  -1.147   7.728 -0.4095  1.4449  1.4025
  171SAPE  H17S19382   2.056  -0.978   7.744 -0.7654 -0.5215  0.2020
  171SAPE  C21819383   2.192  -1.027   7.599  0.2517  0.3476  0.5462
  171SAPE  H18R19384   2.194  -0.925   7.556  0.8731 -0.0233 -0.3244
  171SAPE  H18S19385   2.198  -1.104   7.519 -0.4965 -1.1487  1.8509
  171SAPE  C21919386   2.315  -1.054   7.690  0.0658 -0.4172  0.0562
  171SAPE  H19R19387   2.406  -1.083   7.633  0.9932  0.1614  1.2099
  171SAPE  H19S19388   2.294  -1.146   7.750 -0.2600 -2.0983 -2.4679
  171SAPE  C22019389   2.347  -0.940   7.785 -0.2292 -0.1068  0.2766
  171SAPE  H20R19390   2.367  -0.847   7.729  0.5933 -1.1227 -1.1793
  171SAPE  H20S19391   2.436  -0.976   7.842 -0.9043  0.0347  1.4453
  171SAPE  H20T19392   2.274  -0.925   7.868  1.1686 -0.9710  1.7382
  171SAPE   C3319393   2.138  -0.296   6.984  0.7373  0.0080  0.5220
  171SAPE   H3X19394   2.185  -0.209   6.934 -0.9778 -0.1843 -1.6166
  171SAPE   H3Y19395   2.211  -0.346   7.051  0.3167 -1.8939 -0.3422
  171SAPE   C3419396   2.019  -0.240   7.072  0.4628 -0.2543  0.6980
  171SAPE   H4X19397   1.924  -0.228   7.016  0.0305  0.0647  1.4816
  171SAPE   H4Y19398   2.033  -0.134   7.103 -1.0748  0.0139  0.5134
  171SAPE   C3519399   1.993  -0.310   7.202  0.1436 -0.7252  0.0277
  171SAPE   H5X19400   2.081  -0.305   7.270  0.1883  0.2186 -0.0894
  171SAPE   H5Y19401   1.950  -0.412   7.192 -2.4491  0.3220 -0.1193
  171SAPE   C3619402   1.880  -0.245   7.289  0.0855 -0.8189  0.4258
  171SAPE   H6X19403   1.781  -0.284   7.258 -0.7366  1.6941 -0.3101
  171SAPE   H6Y19404   1.885  -0.134   7.284  1.3488 -0.9159 -2.0713
  171SAPE   C3719405   1.891  -0.296   7.427  0.0437  0.5512 -0.8497
  171SAPE   H7X19406   1.981  -0.250   7.472 -1.1928 -0.2611  2.8154
  171SAPE   H7Y19407   1.897  -0.406   7.424  1.3316  0.6058 -0.6586
  171SAPE   C3819408   1.768  -0.255   7.497 -0.0836 -0.1549  0.5916
  171SAPE   H8X19409   1.678  -0.310   7.462  0.5570 -2.3780  2.1854
  171SAPE   H8Y19410   1.742  -0.147   7.493  0.9828  0.0781 -0.5008
  171SAPE   C3919411   1.761  -0.302   7.640 -0.5042  0.5636 -0.2675
  171SAPE   H9X19412   1.662  -0.285   7.686 -2.3677 -2.3777 -2.7723
  171SAPE   H9Y19413   1.842  -0.252   7.698 -0.0664 -1.2635  0.7646
  171SAPE  C31019414   1.788  -0.455   7.649  0.1322  0.1982 -0.8647
  171SAPE  H10X19415   1.895  -0.478   7.626  0.6895 -0.0923  1.7353
  171SAPE  H10Y19416   1.730  -0.510   7.572 -0.6783 -0.6214  0.3058
  171SAPE  C31119417   1.764  -0.521   7.785  0.4075 -0.3597 -0.8790
  171SAPE  H11X19418   1.657  -0.502   7.810 -0.0386  0.3076 -3.0515
  171SAPE  H11Y19419   1.829  -0.478   7.864 -1.5565  0.6764  0.2489
  171SAPE  C31219420   1.771  -0.680   7.765 -0.1264  0.0586 -0.2080
  171SAPE  H12X19421   1.871  -0.702   7.722 -0.5499  0.6087 -1.5313
  171SAPE  H12Y19422   1.697  -0.710   7.688  0.4043  1.2987 -1.2393
  171SAPE  C31319423   1.742  -0.757   7.888 -0.0486  0.3869 -0.1655
  171SAPE  H13X19424   1.744  -0.863   7.856 -1.6050  0.4618 -0.5888
  171SAPE  H13Y19425   1.647  -0.722   7.932 -0.2269 -0.5140  0.1856
  171SAPE  C31419426   1.848  -0.721   8.000  0.1226 -0.3173 -0.0472
  171SAPE  H14X19427   1.826  -0.615   8.024 -1.3058 -0.1093 -2.0174
  171SAPE  H14Y19428   1.954  -0.733   7.968 -0.2481 -1.6494 -0.9098
  171SAPE  C31519429   1.819  -0.804   8.123 -0.3808  0.8213  0.1947
  171SAPE  H15X19430   1.710  -0.825   8.127 -0.5111  1.6349  1.8090
  171SAPE  H15Y19431   1.836  -0.751   8.219 -0.7727 -0.8227  1.2192
  171SAPE  C31619432   1.885  -0.941   8.127 -0.3521 -0.3782  0.4927
  171SAPE  H16X19433   1.869  -0.982   8.026  0.0419  2.0712 -0.6454
  171SAPE  H16Y19434   1.842  -1.009   8.203 -4.3012  0.5522 -0.6798
  171SAPE  C31719435   2.043  -0.933   8.152 -0.1672  0.0353 -0.2858
  171SAPE  H17X19436   2.060  -0.858   8.232  0.7709  0.4419 -0.8475
  171SAPE  H17Y19437   2.098  -0.884   8.069  0.1369  2.3833  1.2067
  171SAPE  C31819438   2.090  -1.075   8.177 -0.1964 -0.3491 -0.4309
  171SAPE  H18X19439   2.071  -1.133   8.085 -1.4815 -1.3546  0.4272
  171SAPE  H18Y19440   2.030  -1.117   8.261 -0.1317  2.2423  1.0271
  171SAPE  H18Z19441   2.197  -1.095   8.200  0.3510 -1.5258 -3.5105
  172SAPE     N19442   0.248   2.077   6.068  0.2189  0.2061  0.3847
  172SAPE   HN119443   0.268   1.983   6.107  0.3125  0.0632 -0.0077
  172SAPE   HN219444   0.156   2.089   6.117 -0.4740 -2.1268 -0.2158
  172SAPE   HN319445   0.218   2.068   5.969  0.4789 -1.0340  0.3965
  172SAPE   C1219446   0.354   2.179   6.094 -1.1576 -0.2594 -0.2368
  172SAPE  H12A19447   0.437   2.159   6.023 -1.9344 -2.8828 -0.5161
  172SAPE  H12B19448   0.400   2.162   6.194 -2.3205  1.3089  0.6075
  172SAPE   C1119449   0.305   2.331   6.087  0.2584 -0.0030  0.5965
  172SAPE  H11A19450   0.262   2.344   5.985  2.7954  0.5080 -0.5057
  172SAPE  H11B19451   0.392   2.400   6.078  0.8051 -0.8982 -2.1025
  172SAPE     P19452   0.223   2.447   6.306 -0.1216 -0.0923  0.2998
  172SAPE   O1319453   0.349   2.424   6.374  0.0825 -0.1233 -0.1263
  172SAPE   O1419454   0.203   2.583   6.269 -0.3097 -0.0196  0.2748
  172SAPE   O1219455   0.198   2.360   6.180  0.3709  0.1817 -0.2016
  172SAPE   O1119456   0.111   2.410   6.405  1.0246  0.1855 -0.6279
  172SAPE    C119457  -0.015   2.465   6.411  0.4728 -0.1019 -0.6528
  172SAPE    HA19458  -0.053   2.464   6.307  2.3305  0.0159 -1.3590
  172SAPE    HB19459  -0.085   2.407   6.476 -1.5701  2.7835 -0.0733
  172SAPE    C219460  -0.031   2.602   6.471 -0.1032  0.1387  0.4223
  172SAPE    HS19461   0.028   2.666   6.402 -1.4458 -0.7937 -1.6724
  172SAPE   O2119462   0.019   2.594   6.604  0.2854 -0.2818 -0.0940
  172SAPE   C2119463   0.122   2.679   6.625  0.4882  1.2246 -0.2232
  172SAPE   O2219464   0.165   2.765   6.550  0.0214 -0.1826 -0.4131
  172SAPE   C2219465   0.170   2.657   6.768  0.0921 -0.1329  0.7026
  172SAPE   H2R19466   0.099   2.591   6.822 -0.7248  0.2063  0.0563
  172SAPE   H2S19467   0.273   2.617   6.755  0.4038  1.0173 -0.5634
  172SAPE    C319468  -0.174   2.658   6.466 -0.4602  0.0625  0.0075
  172SAPE    HX19469  -0.240   2.585   6.517 -0.9974  0.5329 -0.0099
  172SAPE    HY19470  -0.209   2.674   6.361  2.8711 -2.8692 -1.7957
  172SAPE   O3119471  -0.195   2.785   6.542  0.1335  0.3296  0.2898
  172SAPE   C3119472  -0.166   2.887   6.470  0.7959 -0.0094  0.1712
  172SAPE   O3219473  -0.100   2.893   6.363  0.3412 -0.1216 -0.4465
  172SAPE   C3219474  -0.214   3.014   6.538 -0.4850  0.1169 -0.1800
  172SAPE   H2X19475  -0.324   3.011   6.549 -0.9608  3.2073 -2.8021
  172SAPE   H2Y19476  -0.197   3.090   6.459 -0.3236 -0.6488 -0.9062
  172SAPE   C2319477   0.186   2.795   6.833  0.1062 -0.2827  0.5816
  172SAPE   H3R19478   0.082   2.832   6.821  0.6517  1.6926  1.5193
  172SAPE   H3S19479   0.255   2.855   6.771  1.0594 -1.4184  0.5080
  172SAPE   C2419480   0.230   2.809   6.975  0.0728  0.0715 -0.3427
  172SAPE   H4R19481   0.160   2.741   7.028 -2.1623  0.7421 -2.2604
  172SAPE   H4S19482   0.194   2.907   7.012 -1.9492 -1.3402  1.6992
  172SAPE   C2519483   0.371   2.782   7.009  1.0554 -0.0274  0.2650
  172SAPE   H5R19484   0.444   2.772   6.926  0.4511  0.7330 -0.3637
  172SAPE   C2619485   0.408   2.754   7.136 -0.2993 -0.1869 -0.3626
  172SAPE   H6R19486   0.509   2.711   7.148 -0.6606 -0.7785  0.6757
  172SAPE   C2719487   0.328   2.745   7.266 -0.5322 -0.5533  0.5574
  172SAPE   H7R19488   0.342   2.642   7.304 -0.3343  0.0281  2.1524
  172SAPE   H7S19489   0.221   2.771   7.248  0.4293  2.1842 -2.1463
  172SAPE   C2819490   0.362   2.847   7.372 -0.7481 -0.5236  0.7121
  172SAPE   H8R19491   0.452   2.907   7.351 -1.6607  0.6730  0.1739
  172SAPE   C2919492   0.291   2.876   7.487 -0.4416  0.2886 -0.3473
  172SAPE   H9R19493   0.324   2.945   7.567 -2.1257  0.9020 -0.1374
  172SAPE  C21019494   0.164   2.817   7.545  0.6193  0.1887  0.1154
  172SAPE  H10R19495   0.097   2.795   7.459  1.3184 -1.4510 -0.0462
  172SAPE  H10S19496   0.115   2.896   7.606 -3.3936 -1.7784 -0.1912
  172SAPE  C21119497   0.179   2.699   7.639  0.0336 -0.3636  0.2710
  172SAPE  H11R19498   0.276   2.645   7.639  0.8107  0.9812 -0.6436
  172SAPE  C21219499   0.099   2.663   7.740  0.3373 -0.0707  0.5428
  172SAPE  H12R19500   0.127   2.576   7.801  0.2451  0.5013  1.4144
  172SAPE  C21319501  -0.035   2.722   7.785  0.3147 -1.3578  0.1617
  172SAPE  H13R19502  -0.097   2.765   7.703 -0.8848 -3.5374 -0.1515
  172SAPE  H13S19503  -0.004   2.810   7.846  4.8386 -1.9094 -0.9832
  172SAPE  C21419504  -0.119   2.630   7.869 -0.4663  0.3248 -0.1461
  172SAPE  H14R19505  -0.176   2.553   7.815 -2.2739  0.6738  1.1778
  172SAPE  C21519506  -0.130   2.642   8.004  0.0125 -0.6384 -0.3513
  172SAPE  H15R19507  -0.186   2.568   8.063 -0.1295 -0.3140 -0.0712
  172SAPE  C21619508  -0.070   2.746   8.095  0.4780  0.2059 -0.1067
  172SAPE  H16R19509  -0.148   2.820   8.122 -1.1749 -1.2151 -0.7770
  172SAPE  H16S19510   0.009   2.804   8.041 -1.7174 -1.2019 -5.5569
  172SAPE  C21719511  -0.016   2.697   8.230 -0.0805  0.1853  0.0587
  172SAPE  H17R19512   0.036   2.789   8.264  1.4571 -1.0036  1.0002
  172SAPE  H17S19513   0.063   2.621   8.215 -1.5862 -1.8189  1.6495
  172SAPE  C21819514  -0.122   2.657   8.330  0.2786 -0.5380  0.0734
  172SAPE  H18R19515  -0.165   2.556   8.311  0.2699 -1.4057  3.9416
  172SAPE  H18S19516  -0.213   2.720   8.320 -0.4519 -1.5762  0.0682
  172SAPE  C21919517  -0.076   2.647   8.476  0.2481 -0.1944  0.9892
  172SAPE  H19R19518  -0.015   2.735   8.506  1.0592  0.3684 -2.0128
  172SAPE  H19S19519  -0.008   2.559   8.483 -0.4854 -1.0029 -1.2293
  172SAPE  C22019520  -0.193   2.637   8.566 -0.0338 -0.6757  0.9236
  172SAPE  H20R19521  -0.279   2.585   8.519  1.6177 -1.0181 -1.9578
  172SAPE  H20S19522  -0.209   2.743   8.596  3.3312  0.6830 -1.4161
  172SAPE  H20T19523  -0.165   2.580   8.657  0.3482 -1.3738  0.3766
  172SAPE   C3319524  -0.139   3.035   6.673 -0.0000 -0.0615 -0.6271
  172SAPE   H3X19525  -0.151   3.139   6.710  4.9853 -0.0607  1.7637
  172SAPE   H3Y19526  -0.030   3.016   6.668  0.2702  1.1233  0.5153
  172SAPE   C3419527  -0.198   2.958   6.791  0.0864  0.4101  0.2671
  172SAPE   H4X19528  -0.189   2.847   6.782 -1.5996  0.3479 -1.3572
  172SAPE   H4Y19529  -0.308   2.976   6.790  0.3102  1.8277 -0.6852
  172SAPE   C3519530  -0.144   2.995   6.925  0.0399  0.4168  0.5932
  172SAPE   H5X19531  -0.105   3.099   6.934 -2.3760  1.2571  2.6028
  172SAPE   H5Y19532  -0.057   2.934   6.955  0.0623 -0.8052 -1.7393
  172SAPE   C3619533  -0.249   2.996   7.025 -0.1865  0.3333 -0.8477
  172SAPE   H6X19534  -0.304   2.899   7.015  2.2797 -1.2961  0.2886
  172SAPE   H6Y19535  -0.327   3.073   7.005  0.8394  1.2379 -1.4198
  172SAPE   C3719536  -0.198   2.998   7.170 -0.9219 -0.4089 -0.1868
  172SAPE   H7X19537  -0.154   3.096   7.198  0.0793 -0.8336 -0.2610
  172SAPE   H7Y19538  -0.126   2.917   7.192 -1.2981 -0.3804  1.3215
  172SAPE   C3819539  -0.312   2.958   7.274  0.1678  1.0682  0.0295
  172SAPE   H8X19540  -0.318   2.851   7.302 -0.3034  0.0435 -3.5598
  172SAPE   H8Y19541  -0.417   2.982   7.245  0.1570  0.3771 -0.5076
  172SAPE   C3919542  -0.302   3.043   7.402 -0.2162 -0.6108 -0.7923
  172SAPE   H9X19543  -0.391   3.023   7.466 -0.1208  2.0799  0.3190
  172SAPE   H9Y19544  -0.330   3.148   7.380 -0.5259 -0.7206 -0.9410
  172SAPE  C31019545  -0.172   3.018   7.487 -0.3248 -0.2147  0.2352
  172SAPE  H10X19546  -0.086   3.056   7.427 -0.8149  0.1886 -0.2214
  172SAPE  H10Y19547  -0.161   2.908   7.496  0.9723 -0.3774 -2.3511
  172SAPE  C31119548  -0.160   3.081   7.625  1.0470  0.0797 -0.7269
  172SAPE  H11X19549  -0.172   3.191   7.624  1.4253  0.1689  1.1103
  172SAPE  H11Y19550  -0.060   3.053   7.664  0.9211  2.4300  1.4963
  172SAPE  C31219551  -0.268   3.025   7.725 -0.8812 -0.8618 -0.2672
  172SAPE  H12X19552  -0.283   2.916   7.707 -0.8883 -0.6152 -1.8881
  172SAPE  H12Y19553  -0.363   3.081   7.709  0.3792  1.1700 -0.9373
  172SAPE  C31319554  -0.240   3.059   7.875  0.3687  0.1748  1.3444
  172SAPE  H13X19555  -0.220   3.168   7.882  2.7441 -0.0186 -0.7894
  172SAPE  H13Y19556  -0.145   3.006   7.901 -0.2908 -0.5913  2.2655
  172SAPE  C31419557  -0.350   3.008   7.962  0.7455 -0.1350  0.0637
  172SAPE  H14X19558  -0.328   2.904   7.993 -3.0019 -2.2990 -3.5336
  172SAPE  H14Y19559  -0.441   3.003   7.898 -0.7599 -1.7628  2.2069
  172SAPE  C31519560  -0.374   3.111   8.075  0.0717 -0.1842  0.1478
  172SAPE  H15X19561  -0.408   3.204   8.024  0.3402 -1.0814 -1.7536
  172SAPE  H15Y19562  -0.279   3.137   8.126 -0.4269  1.3970  0.3405
  172SAPE  C31619563  -0.479   3.062   8.182 -0.3693 -0.1749  0.0624
  172SAPE  H16X19564  -0.433   2.983   8.245  1.5889  1.5766  0.9675
  172SAPE  H16Y19565  -0.561   3.014   8.125 -0.6141  1.3530 -0.9347
  172SAPE  C31719566  -0.532   3.175   8.278 -0.7422  0.2183  0.5681
  172SAPE  H17X19567  -0.550   3.269   8.221 -1.3238  0.0670  0.4993
  172SAPE  H17Y19568  -0.444   3.180   8.346  1.9800  0.9885 -2.7231
  172SAPE  C31819569  -0.665   3.139   8.346  0.7903 -0.1654  0.0300
  172SAPE  H18X19570  -0.705   3.216   8.415  2.9721  0.2326  0.9412
  172SAPE  H18Y19571  -0.654   3.051   8.413  0.7808 -1.2928 -1.4111
  172SAPE  H18Z19572  -0.744   3.105   8.275 -0.2430 -0.3468  1.2200
  173SOPE     N19573   2.910   2.971  10.835  0.6111 -0.0425 -0.4498
  173SOPE   HN119574   3.013   2.990  10.836  0.4155  1.1279  0.2714
  173SOPE   HN219575   2.863   3.013  10.753 -0.4049 -1.3917 -0.5799
  173SOPE   HN319576   2.873   3.021  10.919  0.9318 -0.0694 -0.2874
  173SOPE   C1219577   2.859   2.832  10.845 -0.4421 -0.7486  0.0706
  173SOPE  H12A19578   2.828   2.819  10.951 -0.0230 -1.9538  0.0554
  173SOPE  H12B19579   2.946   2.773  10.812  0.6535  1.1664 -0.6247
  173SOPE   C1119580   2.750   2.799  10.744  0.4502 -0.2488  0.3682
  173SOPE  H11A19581   2.731   2.690  10.756 -2.4642  0.0169 -0.9457
  173SOPE  H11B19582   2.791   2.806  10.641 -0.0314 -1.9062  0.0277
  173SOPE     P19583   2.588   2.997  10.669 -0.3535  0.3678  0.0288
  173SOPE   O1319584   2.701   3.085  10.668  0.3583  0.2471  0.3520
  173SOPE   O1419585   2.457   3.057  10.711 -0.6207  0.2544  0.4462
  173SOPE   O1219586   2.620   2.873  10.760 -0.4563 -0.4807 -0.2631
  173SOPE   O1119587   2.572   2.933  10.519 -0.0283 -0.4092 -0.2076
  173SOPE    C119588   2.506   3.000  10.410  0.3032 -0.9300 -0.1148
  173SOPE    HA19589   2.521   3.110  10.413 -0.8476 -0.7832  0.9857
  173SOPE    HB19590   2.396   2.990  10.419  0.1902 -1.7743 -1.9964
  173SOPE    C219591   2.567   2.960  10.279 -0.3758 -0.1636  0.5550
  173SOPE    HS19592   2.675   2.989  10.277 -0.5073  0.3095 -1.8177
  173SOPE   O2119593   2.488   3.017  10.172  0.2581  0.0928  0.1729
  173SOPE   C2119594   2.559   3.071  10.079 -0.0384 -0.2569  0.0568
  173SOPE   O2219595   2.680   3.063  10.070 -0.4269 -0.9680  0.7120
  173SOPE   C2219596   2.467   3.144   9.981 -0.9675  0.2404  0.2675
  173SOPE   H2R19597   2.526   3.233   9.951 -0.9352  0.9352  2.2375
  173SOPE   H2S19598   2.384   3.193  10.037 -0.9569 -1.0956  1.5022
  173SOPE    C319599   2.553   2.805  10.267 -0.0173  0.3244 -1.2949
  173SOPE    HX19600   2.450   2.778  10.299  0.2649  0.8884  0.1885
  173SOPE    HY19601   2.622   2.765  10.345  2.4604  3.3609 -1.7394
  173SOPE   O3119602   2.590   2.759  10.138  0.6241 -0.2108 -0.3211
  173SOPE   C3119603   2.708   2.703  10.126  0.0356  0.2192  0.3248
  173SOPE   O3219604   2.798   2.695  10.212  0.4024  0.0430  0.1641
  173SOPE   C3219605   2.724   2.657   9.974 -0.2145 -0.9184  0.4134
  173SOPE   H2X19606   2.793   2.573   9.995 -0.3163 -0.5956  2.2157
  173SOPE   H2Y19607   2.770   2.746   9.927 -0.0139 -1.3615 -0.2478
  173SOPE   C2319608   2.417   3.054   9.865  0.5920  0.3103  0.0650
  173SOPE   H3R19609   2.495   2.978   9.843  1.9603  0.2947  4.0751
  173SOPE   H3S19610   2.393   3.116   9.776  2.2733 -1.4855 -1.7281
  173SOPE   C2419611   2.292   2.975   9.907 -0.5968 -0.2029 -1.1107
  173SOPE   H4R19612   2.318   2.921  10.001 -0.9435 -1.9338 -1.9616
  173SOPE   H4S19613   2.197   3.032   9.920 -0.8598 -1.0267  1.1510
  173SOPE   C2519614   2.253   2.873   9.798  0.0668 -0.1377  0.4716
  173SOPE   H5R19615   2.348   2.829   9.761  0.7901 -0.9713  3.0620
  173SOPE   H5S19616   2.201   2.786   9.844  0.0137 -1.4227 -1.8556
  173SOPE   C2619617   2.168   2.930   9.686  0.0246  0.8037  0.0891
  173SOPE   H6R19618   2.078   2.969   9.738  0.5305  0.8169  0.9769
  173SOPE   H6S19619   2.222   3.009   9.628 -2.3858 -0.7077 -4.8396
  173SOPE   C2719620   2.126   2.822   9.583 -0.6669  0.0498 -0.5874
  173SOPE   H7R19621   2.213   2.753   9.572  1.6302  2.6219  0.3644
  173SOPE   H7S19622   2.042   2.762   9.624  2.0543 -1.6458  3.0261
  173SOPE   C2819623   2.097   2.879   9.439 -0.2531  0.2630  0.1754
  173SOPE   H8R19624   2.020   2.955   9.462  0.3231  0.7976  0.3662
  173SOPE   H8S19625   2.188   2.931   9.404  0.8372 -1.5233  0.2189
  173SOPE   C2919626   2.037   2.774   9.345  0.7990 -0.2867  0.5614
  173SOPE   H9119627   2.011   2.681   9.398 -1.6773  1.1419  2.0156
  173SOPE  C21019628   2.040   2.775   9.213  0.0777  0.1089 -0.4691
  173SOPE  H10119629   1.986   2.697   9.158 -2.5685  0.9339  0.7961
  173SOPE  C21119630   2.109   2.878   9.131  0.8153 -0.1272  0.2386
  173SOPE  H11R19631   2.127   2.965   9.198  0.9419 -0.3202  0.4587
  173SOPE  H11S19632   2.041   2.918   9.053  1.4514 -1.4304 -1.0304
  173SOPE  C21219633   2.239   2.846   9.052  0.9309  0.0628 -0.0435
  173SOPE  H12R19634   2.215   2.787   8.961  0.1707 -0.5696  0.5530
  173SOPE  H12S19635   2.307   2.784   9.114  0.9556  0.7266  0.5976
  173SOPE  C21319636   2.319   2.973   9.007 -0.4590  0.3877 -0.1042
  173SOPE  H13R19637   2.391   2.943   8.929 -0.1892 -0.4132  0.4390
  173SOPE  H13S19638   2.384   2.996   9.094  0.3599 -2.8286  0.2299
  173SOPE  C21419639   2.232   3.087   8.948  0.0812 -0.2946  0.5427
  173SOPE  H14R19640   2.286   3.184   8.945 -0.4797  0.0581  1.6676
  173SOPE  H14S19641   2.145   3.108   9.014  0.3288  2.2153  0.1687
  173SOPE  C21519642   2.175   3.061   8.804  0.0685  0.4161  0.5629
  173SOPE  H15R19643   2.111   2.971   8.808 -1.2441  1.3611  2.6498
  173SOPE  H15S19644   2.256   3.047   8.730 -1.7897 -1.1184 -1.2802
  173SOPE  C21619645   2.095   3.178   8.755 -0.3272  0.2464 -0.4779
  173SOPE  H16R19646   2.136   3.279   8.780 -0.6199  0.3947 -0.5838
  173SOPE  H16S19647   2.000   3.179   8.814 -1.4146  3.0350 -2.0773
  173SOPE  C21719648   2.043   3.175   8.612  0.3845  0.8442  0.1413
  173SOPE  H17R19649   2.118   3.218   8.543 -0.5404 -0.4121 -1.7423
  173SOPE  H17S19650   1.944   3.226   8.611 -1.1240 -1.8118  1.3421
  173SOPE  C21819651   2.006   3.041   8.551 -0.6353 -0.7803  0.0912
  173SOPE  H18R19652   1.943   3.058   8.462 -1.4548 -2.6729  0.2664
  173SOPE  H18S19653   1.946   2.967   8.608 -0.0036 -2.5861 -1.4956
  173SOPE  H18T19654   2.105   2.997   8.527  0.2678  0.6513  0.9892
  173SOPE   C3319655   2.588   2.591   9.917  0.5832 -0.4272 -0.8796
  173SOPE   H3X19656   2.514   2.673   9.910  0.7482 -0.2356 -0.3767
  173SOPE   H3Y19657   2.543   2.511   9.979  2.1264 -0.3803  0.3533
  173SOPE   C3419658   2.607   2.536   9.777 -0.1597 -0.3922 -0.8662
  173SOPE   H4X19659   2.508   2.503   9.738 -2.5597  4.2438  0.5587
  173SOPE   H4Y19660   2.675   2.449   9.777 -0.0422 -0.5948  4.2734
  173SOPE   C3519661   2.677   2.636   9.683 -0.2077 -0.2609 -0.3291
  173SOPE   H5X19662   2.784   2.657   9.706  0.2115 -1.4213 -1.1398
  173SOPE   H5Y19663   2.624   2.733   9.697 -1.6076 -0.9567 -0.6962
  173SOPE   C3619664   2.673   2.590   9.535 -0.0315 -0.3732  0.3330
  173SOPE   H6X19665   2.727   2.495   9.518 -0.4600 -0.5800  0.1155
  173SOPE   H6Y19666   2.712   2.679   9.481  0.1842  0.1949  1.3777
  173SOPE   C3719667   2.521   2.574   9.498  0.0885  0.8020 -0.1707
  173SOPE   H7X19668   2.441   2.619   9.561 -1.6412  0.2454 -1.8797
  173SOPE   H7Y19669   2.497   2.466   9.512 -1.3348  1.2893  1.5051
  173SOPE   C3819670   2.491   2.617   9.358  0.0908 -0.0016  0.3274
  173SOPE   H8X19671   2.521   2.722   9.336 -0.0386  0.3710  1.8349
  173SOPE   H8Y19672   2.380   2.611   9.351  0.1978 -1.1555 -0.8333
  173SOPE   C3919673   2.551   2.521   9.255 -0.1470 -0.2320 -0.6256
  173SOPE   H9X19674   2.501   2.421   9.255 -0.1976 -0.2072  0.0525
  173SOPE   H9Y19675   2.656   2.499   9.280  0.5114  0.9790 -2.1390
  173SOPE  C31019676   2.553   2.577   9.111 -0.6942 -0.2842 -0.3168
  173SOPE  H10X19677   2.614   2.669   9.108  0.1235 -0.7455  1.1089
  173SOPE  H10Y19678   2.445   2.596   9.092 -0.8181 -0.7812 -0.1330
  173SOPE  C31119679   2.612   2.486   9.006  0.0383  0.1154  0.3690
  173SOPE  H11X19680   2.567   2.386   9.022 -0.3714  0.2534  0.1002
  173SOPE  H11Y19681   2.721   2.474   9.026  0.1473  1.2139  0.4784
  173SOPE  C31219682   2.585   2.531   8.862 -0.5246 -0.0354 -0.3603
  173SOPE  H12X19683   2.479   2.510   8.834 -0.3954  0.7996 -1.5338
  173SOPE  H12Y19684   2.638   2.454   8.802 -0.5091 -2.4484  2.5043
  173SOPE  C31319685   2.597   2.674   8.829  0.2785  0.4738  0.0105
  173SOPE  H13X19686   2.703   2.707   8.823 -0.2257  2.6405 -7.1218
  173SOPE  H13Y19687   2.536   2.738   8.897 -0.0298  0.1414  0.0481
  173SOPE  C31419688   2.537   2.700   8.690 -0.0450 -0.6411 -0.8300
  173SOPE  H14X19689   2.426   2.698   8.697 -0.2081  2.4203 -1.3927
  173SOPE  H14Y19690   2.555   2.628   8.607  0.2747 -1.0743 -0.3919
  173SOPE  C31519691   2.578   2.847   8.654  0.0169  0.0464  0.8089
  173SOPE  H15X19692   2.685   2.860   8.627 -0.2491  1.4621  0.3429
  173SOPE  H15Y19693   2.567   2.922   8.736 -0.2029 -0.0948  0.9064
  173SOPE  C31619694   2.510   2.905   8.528 -0.5961 -1.2123  0.4836
  173SOPE  H16X19695   2.401   2.884   8.528 -0.6941 -1.2323 -2.8795
  173SOPE  H16Y19696   2.551   2.852   8.440 -0.9764 -2.3112  0.9508
  173SOPE  C31719697   2.532   3.058   8.518  0.0435  0.8593 -0.0764
  173SOPE  H17X19698   2.641   3.078   8.520  0.4058 -0.8949 -0.3721
  173SOPE  H17Y19699   2.483   3.105   8.606  1.5980 -0.6806  1.6952
  173SOPE  C31819700   2.477   3.117   8.393 -0.1993  1.4026  0.1143
  173SOPE  H18X19701   2.451   3.224   8.409 -0.1969  1.1782  1.7347
  173SOPE  H18Y19702   2.380   3.063   8.386  0.9317 -1.1230  2.2257
  173SOPE  H18Z19703   2.550   3.099   8.311  0.2168 -1.6584  1.0341
  174SOPE     N19704   5.168   1.988  10.814  0.5391 -0.3459  0.3726
  174SOPE   HN119705   5.191   2.045  10.897 -0.8792 -0.0757  0.6004
  174SOPE   HN219706   5.069   1.959  10.805  0.3659 -0.1032  1.4398
  174SOPE   HN319707   5.237   1.909  10.813  0.6860 -0.2158 -0.0002
  174SOPE   C1219708   5.186   2.074  10.686  0.5322  0.0367  0.8972
  174SOPE  H12A19709   5.170   1.999  10.605 -0.3055  1.6165 -0.4436
  174SOPE  H12B19710   5.288   2.116  10.675  0.1526  0.7771  0.1007
  174SOPE   C1119711   5.080   2.183  10.674 -0.1208 -0.0045  0.0195
  174SOPE  H11A19712   4.982   2.131  10.684  1.1648 -2.2123  2.5388
  174SOPE  H11B19713   5.089   2.221  10.570  1.0945  0.7572  0.3769
  174SOPE     P19714   5.058   2.445  10.736 -0.3291  0.2589  0.0377
  174SOPE   O1319715   5.106   2.528  10.847  0.7799 -0.3521 -0.0703
  174SOPE   O1419716   4.914   2.459  10.702  0.5062 -0.1648 -0.6882
  174SOPE   O1219717   5.089   2.288  10.769  0.2614 -0.0722  0.0090
  174SOPE   O1119718   5.144   2.468  10.602 -0.2260 -0.4701 -0.4070
  174SOPE    C119719   5.282   2.477  10.604 -0.1814  0.6736  0.0664
  174SOPE    HA19720   5.322   2.397  10.669 -0.1744  1.6310  1.2540
  174SOPE    HB19721   5.323   2.571  10.646 -0.9162  0.7560  0.6243
  174SOPE    C219722   5.349   2.459  10.468  0.2516 -0.4101  0.0870
  174SOPE    HS19723   5.457   2.481  10.484 -0.2958  1.5819  1.5153
  174SOPE   O2119724   5.294   2.558  10.381 -0.2337  0.1599  0.0954
  174SOPE   C2119725   5.367   2.580  10.269 -0.8338 -0.3831  0.3657
  174SOPE   O2219726   5.482   2.539  10.254 -0.0707  0.1677 -0.1182
  174SOPE   C2219727   5.286   2.656  10.163 -0.7776 -0.8874  0.1104
  174SOPE   H2R19728   5.245   2.746  10.214 -1.4971 -1.3802  0.4138
  174SOPE   H2S19729   5.199   2.590  10.141 -0.3080 -1.3345 -0.4244
  174SOPE    C319730   5.322   2.323  10.418 -0.6400 -0.0553  0.5275
  174SOPE    HX19731   5.215   2.294  10.411 -0.1421 -1.6346 -1.5598
  174SOPE    HY19732   5.363   2.248  10.489  0.3938 -0.9984 -0.9725
  174SOPE   O3119733   5.393   2.292  10.300  0.1708 -0.0157  0.5322
  174SOPE   C3119734   5.327   2.246  10.189  0.6855  0.3050 -0.2746
  174SOPE   O3219735   5.209   2.205  10.187 -1.0054 -0.0634  0.1554
  174SOPE   C3219736   5.435   2.229  10.086 -0.1210 -0.3064  0.6673
  174SOPE   H2X19737   5.488   2.132  10.097  2.2167  0.8567  0.2043
  174SOPE   H2Y19738   5.502   2.317  10.091 -1.2513  0.6716 -0.7405
  174SOPE   C2319739   5.360   2.678  10.028 -0.5520  0.2423  0.5080
  174SOPE   H3R19740   5.382   2.574   9.994 -0.2257  0.3701  0.3199
  174SOPE   H3S19741   5.457   2.730  10.044 -0.6142 -0.1695  2.5582
  174SOPE   C2419742   5.269   2.743   9.927  0.7921  0.6384  0.8726
  174SOPE   H4R19743   5.183   2.680   9.898  0.4622  2.1966 -1.8442
  174SOPE   H4S19744   5.236   2.840   9.969  0.2999  0.2860  1.3159
  174SOPE   C2519745   5.355   2.772   9.802 -0.0490  0.5451 -0.3761
  174SOPE   H5R19746   5.445   2.820   9.846 -0.3158 -0.1663  0.9962
  174SOPE   H5S19747   5.366   2.676   9.748 -1.5442 -1.2989  2.3846
  174SOPE   C2619748   5.282   2.864   9.711 -0.3706  0.1249  0.0218
  174SOPE   H6R19749   5.194   2.814   9.666 -2.6981  1.4584  2.7606
  174SOPE   H6S19750   5.230   2.952   9.756 -3.6648 -2.0620  0.8071
  174SOPE   C2719751   5.378   2.904   9.593 -0.3223  0.8755 -0.4684
  174SOPE   H7R19752   5.467   2.951   9.641  0.3174 -1.1561  0.4361
  174SOPE   H7S19753   5.404   2.813   9.535 -2.1686  0.8177 -1.2583
  174SOPE   C2819754   5.310   2.986   9.476 -0.2360 -0.4013 -0.0281
  174SOPE   H8R19755   5.248   3.061   9.530 -0.7474 -0.8443  0.0106
  174SOPE   H8S19756   5.385   3.045   9.419 -1.0312 -1.0352 -1.7717
  174SOPE   C2919757   5.217   2.913   9.383  0.3543 -0.4349 -0.4727
  174SOPE   H9119758   5.128   2.874   9.434  1.4624 -0.5301  1.4799
  174SOPE  C21019759   5.234   2.893   9.252  0.3322 -0.4928 -0.1499
  174SOPE  H10119760   5.151   2.840   9.202 -0.4728 -1.3125  1.9326
  174SOPE  C21119761   5.347   2.933   9.156  0.0974  0.2232 -0.4850
  174SOPE  H11R19762   5.408   2.841   9.145  0.9822  0.5670  1.1946
  174SOPE  H11S19763   5.415   3.003   9.210 -0.3120 -0.2542  0.6871
  174SOPE  C21219764   5.289   2.984   9.021  0.1134  0.0621  0.2072
  174SOPE  H12R19765   5.220   3.067   9.046  0.3621  0.0169  1.0835
  174SOPE  H12S19766   5.237   2.900   8.970  1.7390 -1.7184  1.3343
  174SOPE  C21319767   5.400   3.034   8.930  0.2625 -0.3936  0.7086
  174SOPE  H13R19768   5.453   2.943   8.895  2.2526  0.9253  0.1588
  174SOPE  H13S19769   5.468   3.092   8.997 -0.3568  0.2847  0.7641
  174SOPE  C21419770   5.340   3.115   8.814 -0.4556  0.0715  0.0381
  174SOPE  H14R19771   5.292   3.204   8.860  0.7307 -0.5557  2.6624
  174SOPE  H14S19772   5.269   3.055   8.753 -0.1100  0.1178 -0.4136
  174SOPE  C21519773   5.435   3.160   8.709 -0.5822 -0.5699  0.2698
  174SOPE  H15R19774   5.478   3.067   8.665  0.4696 -1.4762  3.0240
  174SOPE  H15S19775   5.522   3.209   8.757  0.4923 -2.5606  0.5019
  174SOPE  C21619776   5.394   3.266   8.607 -0.1705  0.2973 -0.2461
  174SOPE  H16R19777   5.319   3.341   8.641  1.2180  1.9772 -0.7312
  174SOPE  H16S19778   5.342   3.216   8.523  0.0200 -1.9487  0.9015
  174SOPE  C21719779   5.510   3.339   8.540 -0.7965 -0.0346  0.1406
  174SOPE  H17R19780   5.590   3.263   8.525 -0.7746 -0.2637  1.3098
  174SOPE  H17S19781   5.566   3.412   8.603  0.1962 -2.9982  2.9968
  174SOPE  C21819782   5.469   3.409   8.407  0.5186 -0.0050 -0.0955
  174SOPE  H18R19783   5.558   3.456   8.359  0.2767  0.0791 -0.4588
  174SOPE  H18S19784   5.397   3.488   8.439  1.7499  0.6343  1.2403
  174SOPE  H18T19785   5.424   3.346   8.329  1.8198  0.9496 -1.6884
  174SOPE   C3319786   5.375   2.241   9.941  0.1851  0.3665  0.1991
  174SOPE   H3X19787   5.358   2.346   9.907 -3.9183 -0.4774 -0.8599
  174SOPE   H3Y19788   5.276   2.191   9.938  0.5243 -0.2912 -0.4312
  174SOPE   C3419789   5.455   2.159   9.834 -0.1335 -0.5985  0.0726
  174SOPE   H4X19790   5.429   2.053   9.849 -0.4024 -0.3788  1.2768
  174SOPE   H4Y19791   5.563   2.175   9.854 -0.4281  0.0164  1.2448
  174SOPE   C3519792   5.412   2.212   9.695 -0.3159 -1.1985  0.2035
  174SOPE   H5X19793   5.442   2.319   9.702 -0.1073 -1.3360  1.5585
  174SOPE   H5Y19794   5.301   2.202   9.699 -0.5045  0.5713  0.1993
  174SOPE   C3619795   5.471   2.136   9.577 -0.0438 -0.3169 -0.0636
  174SOPE   H6X19796   5.457   2.028   9.599  1.2216 -0.5926 -0.5527
  174SOPE   H6Y19797   5.578   2.163   9.580  0.2208 -1.2619 -0.4765
  174SOPE   C3719798   5.407   2.167   9.438  0.6446  0.4386  0.7569
  174SOPE   H7X19799   5.297   2.155   9.446  0.2662  1.9674 -1.2039
  174SOPE   H7Y19800   5.454   2.104   9.360  0.4249 -0.2334  1.1635
  174SOPE   C3819801   5.433   2.309   9.400 -0.0476 -0.6563 -0.0882
  174SOPE   H8X19802   5.540   2.335   9.417  0.8977 -2.1016 -3.1797
  174SOPE   H8Y19803   5.368   2.365   9.471  1.0167  0.4787  0.0390
  174SOPE   C3919804   5.389   2.345   9.260 -0.3434 -0.4732 -0.6508
  174SOPE   H9X19805   5.278   2.342   9.251 -0.5300  1.9076  0.1176
  174SOPE   H9Y19806   5.440   2.274   9.191  1.1607  0.2895 -0.3584
  174SOPE  C31019807   5.450   2.484   9.223 -0.2863  0.2707  0.0456
  174SOPE  H10X19808   5.560   2.483   9.208 -0.1629  1.1517  0.7852
  174SOPE  H10Y19809   5.446   2.554   9.308  3.6116  0.6007  0.1572
  174SOPE  C31119810   5.398   2.559   9.104  0.4603 -0.3173  0.0421
  174SOPE  H11X19811   5.480   2.630   9.078  0.9550 -0.6900  0.5671
  174SOPE  H11Y19812   5.306   2.613   9.135  0.2604 -0.3783 -0.4364
  174SOPE  C31219813   5.374   2.475   8.981  0.6680 -0.4373 -0.2998
  174SOPE  H12X19814   5.296   2.398   8.996 -1.5118  1.2417 -2.2634
  174SOPE  H12Y19815   5.471   2.423   8.965  0.0063 -1.3664 -1.4291
  174SOPE  C31319816   5.342   2.553   8.856  0.4090 -0.3921 -0.8335
  174SOPE  H13X19817   5.251   2.610   8.886  1.4861 -0.0612  2.1171
  174SOPE  H13Y19818   5.314   2.488   8.770  0.3618 -1.3280 -0.1253
  174SOPE  C31419819   5.447   2.653   8.797  0.5865  0.3933  0.1008
  174SOPE  H14X19820   5.486   2.730   8.867 -1.9181 -0.8351  3.1219
  174SOPE  H14Y19821   5.391   2.698   8.712  0.3530 -0.8116 -0.4147
  174SOPE  C31519822   5.572   2.580   8.723  0.3786 -0.3224 -0.1609
  174SOPE  H15X19823   5.540   2.485   8.675 -0.0453  0.6414 -1.8767
  174SOPE  H15Y19824   5.644   2.562   8.806  0.8882  0.7592 -0.3513
  174SOPE  C31619825   5.631   2.681   8.622 -1.0046  0.0406  0.2808
  174SOPE  H16X19826   5.557   2.727   8.553  0.7346 -0.2225 -1.8755
  174SOPE  H16Y19827   5.706   2.621   8.566  0.5662  1.3197  0.9174
  174SOPE  C31719828   5.704   2.800   8.697 -0.1360  0.9409 -0.1164
  174SOPE  H17X19829   5.779   2.774   8.774  0.2375  0.9703 -0.4663
  174SOPE  H17Y19830   5.624   2.852   8.753  0.2416  1.7552 -0.3180
  174SOPE  C31819831   5.761   2.904   8.600 -0.5794 -0.4161  0.2245
  174SOPE  H18X19832   5.695   2.916   8.512  2.0731  1.5920 -1.6554
  174SOPE  H18Y19833   5.859   2.871   8.561  0.5889  1.9041  1.0310
  174SOPE  H18Z19834   5.788   3.005   8.637  2.5691 -0.9002 -0.4326
  175SOPE     N19835   1.236   6.229  10.897 -0.0317 -0.6073 -0.4428
  175SOPE   HN119836   1.218   6.195  10.801  0.8721  1.1498 -1.2870
  175SOPE   HN219837   1.273   6.326  10.885  0.8011 -1.1567 -2.7333
  175SOPE   HN319838   1.310   6.177  10.949 -1.0383 -0.8824  0.7548
  175SOPE   C1219839   1.101   6.235  10.969  0.4013  0.2038  1.1255
  175SOPE  H12A19840   1.044   6.320  10.926  0.0344 -0.6349 -0.0898
  175SOPE  H12B19841   1.122   6.254  11.077  1.6952 -0.4241  1.0005
  175SOPE   C1119842   1.013   6.107  10.942  0.2020 -0.2546  0.0218
  175SOPE  H11A19843   0.913   6.114  10.989  1.5400  0.9481  2.9811
  175SOPE  H11B19844   1.057   6.015  10.986  0.3872 -0.9649 -1.5511
  175SOPE     P19845   0.986   5.955  10.715 -0.2305  0.0202 -0.1626
  175SOPE   O1319846   1.011   5.841  10.807 -0.2619  0.2579  0.2171
  175SOPE   O1419847   1.080   5.969  10.599  0.1932  0.5751 -0.5691
  175SOPE   O1219848   1.004   6.091  10.799 -0.2974  0.5700  0.0991
  175SOPE   O1119849   0.837   5.948  10.666  0.5524 -0.4873  0.3808
  175SOPE    C119850   0.779   6.078  10.640 -0.7307  0.4689 -0.3911
  175SOPE    HA19851   0.837   6.133  10.564  0.1054  0.5371  0.2766
  175SOPE    HB19852   0.787   6.149  10.725 -2.2421 -1.1644  1.2002
  175SOPE    C219853   0.627   6.068  10.591  0.3068 -0.9075  0.5269
  175SOPE    HS19854   0.583   6.002  10.669  0.8255 -1.3468  0.4448
  175SOPE   O2119855   0.626   6.002  10.460  0.5380  0.1169  0.2430
  175SOPE   C2119856   0.504   5.963  10.411 -0.6500 -0.3435 -0.1950
  175SOPE   O2219857   0.397   5.961  10.473 -0.0609  0.7386  0.2282
  175SOPE   C2219858   0.522   5.944  10.261  0.3027  0.1389 -0.0262
  175SOPE   H2R19859   0.607   5.872  10.253  2.1297  2.1167  0.5746
  175SOPE   H2S19860   0.554   6.042  10.220  2.3873 -0.7057 -0.5701
  175SOPE    C319861   0.567   6.212  10.574 -0.5823 -0.8144  0.0044
  175SOPE    HX19862   0.548   6.264  10.671 -2.6618  1.8315 -1.6948
  175SOPE    HY19863   0.463   6.214  10.535 -1.2787  0.5786  1.8000
  175SOPE   O3119864   0.644   6.289  10.483 -0.8943  0.0405  0.9605
  175SOPE   C3119865   0.626   6.419  10.487 -0.1731  0.4173 -0.0776
  175SOPE   O3219866   0.573   6.479  10.579 -1.0596 -0.2878 -0.0136
  175SOPE   C3219867   0.679   6.487  10.358 -0.1406  0.0708 -0.0442
  175SOPE   H2X19868   0.786   6.456  10.354 -0.7215 -2.1861  0.1650
  175SOPE   H2Y19869   0.672   6.596  10.377  0.5431  0.0773  0.2156
  175SOPE   C2319870   0.391   5.898  10.196 -0.1408  0.0617 -0.6683
  175SOPE   H3R19871   0.312   5.973  10.220  0.8639  1.3033 -1.1394
  175SOPE   H3S19872   0.379   5.796  10.239 -1.3491 -0.5168 -2.2944
  175SOPE   C2419873   0.389   5.884  10.039 -0.0380 -0.3788 -0.6218
  175SOPE   H4R19874   0.458   5.802  10.011 -0.1794 -0.2888 -1.2427
  175SOPE   H4S19875   0.285   5.851  10.023  0.2701 -1.9430  0.3953
  175SOPE   C2519876   0.421   6.002   9.949 -0.0210 -0.0140 -0.0771
  175SOPE   H5R19877   0.343   6.078   9.970 -1.5463 -0.9203 -2.0757
  175SOPE   H5S19878   0.526   6.039   9.950 -0.8562  2.5893 -1.3638
  175SOPE   C2619879   0.399   5.963   9.809 -0.4865 -0.3084  0.6756
  175SOPE   H6R19880   0.480   5.895   9.773  1.0637  0.3402  2.7758
  175SOPE   H6S19881   0.304   5.905   9.807  0.6270 -2.3392 -2.7084
  175SOPE   C2719882   0.404   6.081   9.708  0.0806  0.1696  0.4834
  175SOPE   H7R19883   0.353   6.171   9.749  0.2046  0.4934 -0.0581
  175SOPE   H7S19884   0.507   6.116   9.687 -1.4603  2.7184 -4.1973
  175SOPE   C2819885   0.334   6.041   9.578 -0.8476  0.4508  0.0278
  175SOPE   H8R19886   0.246   5.975   9.599 -0.2192 -1.0954 -1.8312
  175SOPE   H8S19887   0.294   6.131   9.527 -1.4876  0.1952  0.0708
  175SOPE   C2919888   0.441   5.965   9.491  0.0245  0.5387  0.0480
  175SOPE   H9119889   0.517   5.910   9.549 -1.5224 -1.7981 -0.0178
  175SOPE  C21019890   0.457   5.954   9.354 -0.9995 -0.3843 -0.1048
  175SOPE  H10119891   0.537   5.891   9.313 -1.4580 -0.0755 -1.5283
  175SOPE  C21119892   0.365   6.014   9.249 -0.8897  0.3118 -0.2021
  175SOPE  H11R19893   0.285   6.071   9.300 -0.9166  0.4627 -0.4140
  175SOPE  H11S19894   0.314   5.932   9.193 -0.9816  0.4427 -0.3085
  175SOPE  C21219895   0.437   6.121   9.156  0.4449 -0.0107 -0.1782
  175SOPE  H12R19896   0.466   6.204   9.225 -3.1773  1.3356 -0.0162
  175SOPE  H12S19897   0.358   6.170   9.095  0.1454  2.2156  1.8232
  175SOPE  C21319898   0.560   6.082   9.071  0.1512 -0.2167 -0.1833
  175SOPE  H13R19899   0.533   5.996   9.006 -0.8860  0.1853 -0.3106
  175SOPE  H13S19900   0.639   6.051   9.143  0.1754 -0.4954 -0.3299
  175SOPE  C21419901   0.622   6.198   8.994  0.6378  0.5117  0.6660
  175SOPE  H14R19902   0.627   6.289   9.059  1.2339  2.7391 -2.3040
  175SOPE  H14S19903   0.562   6.228   8.906  1.1891 -0.0409  0.0929
  175SOPE  C21519904   0.761   6.153   8.944  0.1832  0.2275 -0.3015
  175SOPE  H15R19905   0.739   6.060   8.888  2.9453 -2.8835  3.2500
  175SOPE  H15S19906   0.822   6.121   9.032 -0.4402 -3.2941 -0.9895
  175SOPE  C21619907   0.837   6.253   8.861  0.3195  0.1072  0.4163
  175SOPE  H16R19908   0.931   6.206   8.825  0.4951 -0.0050  1.0034
  175SOPE  H16S19909   0.866   6.341   8.922 -0.9257  1.1493 -0.4351
  175SOPE  C21719910   0.770   6.305   8.735  0.2123 -0.1625 -1.4381
  175SOPE  H17R19911   0.668   6.334   8.765  2.4545  3.2373  4.8842
  175SOPE  H17S19912   0.768   6.214   8.671  1.0680 -0.4994 -1.0054
  175SOPE  C21819913   0.848   6.425   8.673  0.6077 -0.3114  0.2475
  175SOPE  H18R19914   0.881   6.487   8.759  0.0475  1.6234 -0.8599
  175SOPE  H18S19915   0.785   6.483   8.602  1.3741 -1.0066 -1.0531
  175SOPE  H18T19916   0.936   6.390   8.615  0.7016  1.9672 -1.1131
  175SOPE   C3319917   0.606   6.449  10.227 -0.1208 -0.4888 -0.7005
  175SOPE   H3X19918   0.503   6.491  10.230  0.0491 -0.0077 -1.4157
  175SOPE   H3Y19919   0.592   6.339  10.233 -2.5474 -0.1673  1.2204
  175SOPE   C3419920   0.675   6.481  10.096  0.3482 -0.5416  0.4304
  175SOPE   H4X19921   0.738   6.394  10.066 -0.1859 -0.2526 -1.6784
  175SOPE   H4Y19922   0.739   6.571  10.109 -0.2870 -0.4385  3.9210
  175SOPE   C3519923   0.587   6.505   9.966 -0.1741  0.3046 -0.4378
  175SOPE   H5X19924   0.547   6.608   9.954 -0.3678  0.0413 -2.2924
  175SOPE   H5Y19925   0.503   6.433   9.974 -0.5300  0.5790 -1.5190
  175SOPE   C3619926   0.661   6.472   9.838  0.0861 -0.0131 -0.4722
  175SOPE   H6X19927   0.698   6.368   9.851 -0.1031 -0.0157  0.0406
  175SOPE   H6Y19928   0.753   6.535   9.834 -0.7031  1.1713 -0.4497
  175SOPE   C3719929   0.570   6.478   9.711  0.0672  0.1688  0.4188
  175SOPE   H7X19930   0.559   6.585   9.682  1.5555  0.5817  1.2510
  175SOPE   H7Y19931   0.474   6.426   9.732  0.1853  0.0401  0.6411
  175SOPE   C3819932   0.629   6.396   9.592 -0.2334 -0.5649  0.1869
  175SOPE   H8X19933   0.670   6.305   9.642  1.5436  0.8541  1.4309
  175SOPE   H8Y19934   0.711   6.461   9.557  0.5129 -1.1087  0.8906
  175SOPE   C3919935   0.536   6.367   9.469 -0.1515 -1.2068 -0.4362
  175SOPE   H9X19936   0.460   6.299   9.514 -0.4214  1.4396  3.6597
  175SOPE   H9Y19937   0.592   6.316   9.388 -0.0178  0.4178 -1.3966
  175SOPE  C31019938   0.466   6.496   9.424 -0.0558 -0.4154 -0.6492
  175SOPE  H10X19939   0.390   6.530   9.498  1.2308 -1.1059  1.0362
  175SOPE  H10Y19940   0.415   6.469   9.329 -1.9872  1.5521 -0.2482
  175SOPE  C31119941   0.569   6.608   9.367  0.0233  0.1305 -1.0475
  175SOPE  H11X19942   0.630   6.558   9.289  1.4355 -1.1835  0.8003
  175SOPE  H11Y19943   0.638   6.647   9.446 -2.0508  1.0936  0.3894
  175SOPE  C31219944   0.509   6.746   9.330 -0.0438  0.2682  0.1027
  175SOPE  H12X19945   0.445   6.770   9.418  0.1755  1.7366 -0.1176
  175SOPE  H12Y19946   0.440   6.734   9.244 -2.1448 -1.1152  1.8661
  175SOPE  C31319947   0.597   6.863   9.304 -0.6824 -0.1169  0.6586
  175SOPE  H13X19948   0.679   6.823   9.240  0.6505  0.5882  1.8568
  175SOPE  H13Y19949   0.661   6.904   9.385  3.7443 -0.3949 -2.3155
  175SOPE  C31419950   0.518   6.971   9.228  0.2706 -0.0450  0.7722
  175SOPE  H14X19951   0.494   6.946   9.123  0.1616  0.7580  0.5951
  175SOPE  H14Y19952   0.590   7.052   9.203  1.6718 -1.4213  0.1652
  175SOPE  C31519953   0.394   7.027   9.302  0.6095 -0.0513  0.1201
  175SOPE  H15X19954   0.435   7.081   9.390 -1.8710 -0.2858  1.5015
  175SOPE  H15Y19955   0.326   6.945   9.335 -0.5843  1.7478  2.4700
  175SOPE  C31619956   0.310   7.127   9.219  0.1575 -0.3226 -0.0950
  175SOPE  H16X19957   0.388   7.196   9.180 -1.5502 -0.2265 -3.7562
  175SOPE  H16Y19958   0.238   7.175   9.289 -0.8448 -2.0677  0.1381
  175SOPE  C31719959   0.223   7.054   9.117 -0.6279 -0.1042 -0.1309
  175SOPE  H17X19960   0.148   6.988   9.166 -1.7728  2.2646  1.5283
  175SOPE  H17Y19961   0.288   6.994   9.051 -1.2322 -0.1308 -0.7133
  175SOPE  C31819962   0.152   7.154   9.035 -0.2572  0.3313  0.3967
  175SOPE  H18X19963   0.220   7.239   9.013  0.1201  0.1583  0.8564
  175SOPE  H18Y19964   0.064   7.194   9.090 -1.0252  0.6343 -1.0112
  175SOPE  H18Z19965   0.106   7.113   8.943 -1.3720  1.2414  0.5191
  176SOPE     N19966   4.282   4.166  10.978  0.3146  0.2235  0.3414
  176SOPE   HN119967   4.346   4.242  11.010  0.8648  0.8655 -2.0765
  176SOPE   HN219968   4.190   4.168  11.025  0.7097 -0.3250  1.1631
  176SOPE   HN319969   4.333   4.078  11.000 -1.4095 -0.7424  0.6551
  176SOPE   C1219970   4.251   4.172  10.835 -0.0993  0.2215 -0.1228
  176SOPE  H12A19971   4.208   4.073  10.807  1.0597 -0.3398  0.0287
  176SOPE  H12B19972   4.346   4.170  10.778 -0.6452  0.0923 -1.0349
  176SOPE   C1119973   4.171   4.299  10.809 -0.4541 -0.5162  0.6212
  176SOPE  H11A19974   4.152   4.295  10.699 -1.5852  2.1228  0.6552
  176SOPE  H11B19975   4.224   4.395  10.822  0.3138 -0.8392 -0.0672
  176SOPE     P19976   3.926   4.215  10.831  0.5405  0.3237 -0.5023
  176SOPE   O1319977   3.808   4.301  10.817  0.3294 -0.3462 -0.5940
  176SOPE   O1419978   3.926   4.098  10.917  0.6618  0.4109 -0.5747
  176SOPE   O1219979   4.043   4.305  10.878  0.1344  0.5315 -0.3497
  176SOPE   O1119980   3.964   4.156  10.690  0.1876  0.0541  0.1577
  176SOPE    C119981   3.885   4.193  10.577  0.8548  0.0299 -0.6900
  176SOPE    HA19982   3.954   4.172  10.493  0.1688 -1.4391 -0.9131
  176SOPE    HB19983   3.847   4.298  10.573  0.5939 -0.0463 -0.1928
  176SOPE    C219984   3.764   4.096  10.559  0.3962 -0.2977  0.3580
  176SOPE    HS19985   3.699   4.098  10.650  0.2884 -3.2485  0.4621
  176SOPE   O2119986   3.811   3.963  10.549 -0.4201 -0.1141 -0.2013
  176SOPE   C2119987   3.726   3.864  10.521  0.1565  0.0930  0.2703
  176SOPE   O2219988   3.600   3.869  10.526 -0.6325 -0.1909  0.2442
  176SOPE   C2219989   3.817   3.735  10.505  0.1748 -0.2183 -0.0120
  176SOPE   H2R19990   3.737   3.663  10.478 -1.2667  0.9674  0.9519
  176SOPE   H2S19991   3.858   3.706  10.604 -0.5174 -0.6868  0.1426
  176SOPE    C319992   3.673   4.140  10.438 -0.6243 -0.0264  0.5276
  176SOPE    HX19993   3.654   4.249  10.435  1.0420  0.3163  1.2756
  176SOPE    HY19994   3.580   4.084  10.460  0.0507 -1.5805 -0.3522
  176SOPE   O3119995   3.723   4.099  10.310  0.2564  0.0947  0.0629
  176SOPE   C3119996   3.795   4.191  10.245  0.3416 -0.4007  0.4123
  176SOPE   O3219997   3.826   4.303  10.290  0.2963 -0.3597  0.2494
  176SOPE   C3219998   3.838   4.140  10.103 -0.0505 -0.1420 -0.0303
  176SOPE   H2X19999   3.753   4.075  10.072 -1.0608  1.2642 -0.3295
  176SOPE   H2Y20000   3.920   4.066  10.113  0.5115  0.4394 -0.2631
  176SOPE   C2320001   3.924   3.750  10.404 -0.8822 -0.6686  0.4546
  176SOPE   H3R20002   3.987   3.660  10.389  1.6804  1.4067 -2.8333
  176SOPE   H3S20003   4.003   3.819  10.441 -0.9732 -0.5550  0.4405
  176SOPE   C2420004   3.883   3.789  10.258 -0.5633  0.4148 -0.3234
  176SOPE   H4R20005   3.830   3.887  10.259 -0.1633  0.6563 -1.5671
  176SOPE   H4S20006   3.980   3.792  10.205 -0.1991 -2.5008  0.0305
  176SOPE   C2520007   3.796   3.683  10.194  0.1285  0.9351 -0.1876
  176SOPE   H5R20008   3.857   3.591  10.182 -1.4773 -0.7741  3.3185
  176SOPE   H5S20009   3.722   3.649  10.269 -0.5323  0.4159 -1.0709
  176SOPE   C2620010   3.722   3.712  10.063 -0.2699 -0.3868  0.2240
  176SOPE   H6R20011   3.679   3.619  10.020 -1.0543  0.5137 -0.9999
  176SOPE   H6S20012   3.638   3.779  10.091  0.7544  1.4569 -0.9353
  176SOPE   C2720013   3.811   3.783   9.955  0.0092 -0.1861  0.4033
  176SOPE   H7R20014   3.739   3.795   9.871  0.2701  1.4049  0.3811
  176SOPE   H7S20015   3.848   3.881   9.993  1.4022 -1.1926  1.7535
  176SOPE   C2820016   3.934   3.699   9.907 -1.0642  0.3266 -0.7002
  176SOPE   H8R20017   3.993   3.668   9.996  0.2599  1.5407 -1.1105
  176SOPE   H8S20018   3.894   3.603   9.868 -1.0832  0.1251 -0.1957
  176SOPE   C2920019   4.017   3.778   9.806 -0.3309  0.4727 -0.3369
  176SOPE   H9120020   4.078   3.856   9.853  1.5414 -0.8207 -0.5276
  176SOPE  C21020021   4.029   3.757   9.672  0.8890  0.1514  0.3678
  176SOPE  H10120022   4.079   3.828   9.605  0.1431 -0.2048 -0.5975
  176SOPE  C21120023   3.950   3.659   9.589 -0.4278 -0.4658 -0.1040
  176SOPE  H11R20024   3.841   3.653   9.608 -1.0429 -1.1810 -3.3300
  176SOPE  H11S20025   3.989   3.557   9.609  0.6204  0.0100  0.3916
  176SOPE  C21220026   3.959   3.686   9.440 -0.1838 -0.4848 -0.5709
  176SOPE  H12R20027   3.926   3.792   9.428  0.0576 -0.3173  0.1602
  176SOPE  H12S20028   3.898   3.616   9.380 -0.3743  0.4342 -1.4825
  176SOPE  C21320029   4.105   3.648   9.395 -0.1781  0.2125  0.3388
  176SOPE  H13R20030   4.112   3.540   9.372  0.3814  0.4115 -0.4715
  176SOPE  H13S20031   4.190   3.665   9.463 -0.7006 -1.7901  1.5796
  176SOPE  C21420032   4.131   3.704   9.248 -0.2163  0.0974 -0.7481
  176SOPE  H14R20033   4.237   3.689   9.219  0.1162  0.2395  0.3259
  176SOPE  H14S20034   4.128   3.816   9.248  2.5706  0.2328 -0.9674
  176SOPE  C21520035   4.046   3.640   9.139  0.4090 -0.2008 -0.9234
  176SOPE  H15R20036   3.944   3.683   9.136  0.3750 -0.3221 -1.8659
  176SOPE  H15S20037   4.053   3.530   9.153 -1.5231 -0.4443 -1.5914
  176SOPE  C21620038   4.128   3.657   9.005  0.3793 -0.5029 -0.6510
  176SOPE  H16R20039   4.236   3.641   9.026 -0.0532  0.1161  2.6311
  176SOPE  H16S20040   4.097   3.754   8.962 -0.3491 -1.2475 -1.8653
  176SOPE  C21720041   4.102   3.540   8.907 -0.5878  0.0987 -0.4050
  176SOPE  H17R20042   4.134   3.448   8.962  0.5004  1.0507  0.6031
  176SOPE  H17S20043   4.168   3.543   8.818  1.0227 -0.0498  0.7306
  176SOPE  C21820044   3.959   3.519   8.876  0.5327  0.7639 -0.2453
  176SOPE  H18R20045   3.930   3.431   8.815 -2.4279  2.7646 -1.9765
  176SOPE  H18S20046   3.927   3.606   8.814  0.1249  1.4292  0.8803
  176SOPE  H18T20047   3.897   3.512   8.968  0.8206 -3.7474 -0.1737
  176SOPE   C3320048   3.866   4.252   9.995 -0.6268 -0.3873  0.1701
  176SOPE   H3X20049   3.967   4.295  10.013 -0.4472 -1.8793  3.7140
  176SOPE   H3Y20050   3.784   4.327   9.999 -1.0847 -0.7840 -1.4024
  176SOPE   C3420051   3.854   4.200   9.850 -0.2308  0.2004  0.1151
  176SOPE   H4X20052   3.747   4.187   9.825 -0.5652 -1.3517  2.1064
  176SOPE   H4Y20053   3.907   4.105   9.829 -0.6581 -0.7431  2.9243
  176SOPE   C3520054   3.900   4.306   9.748  0.0118  0.9719 -0.5494
  176SOPE   H5X20055   4.009   4.316   9.766  0.3379 -0.8079 -1.2255
  176SOPE   H5Y20056   3.851   4.401   9.777  0.7994  0.6867  1.8927
  176SOPE   C3620057   3.880   4.259   9.602  0.7677  0.3026  0.0324
  176SOPE   H6X20058   3.774   4.235   9.577  1.1526 -2.5134  0.6824
  176SOPE   H6Y20059   3.942   4.168   9.585  0.3850 -0.4469  2.2606
  176SOPE   C3720060   3.918   4.363   9.497  0.4822  0.0746 -0.6627
  176SOPE   H7X20061   4.017   4.411   9.513  2.5018 -2.7121 -3.5833
  176SOPE   H7Y20062   3.834   4.434   9.517  0.7914  0.6727 -1.4658
  176SOPE   C3820063   3.919   4.294   9.358 -0.0967  0.1974  0.2919
  176SOPE   H8X20064   3.889   4.188   9.364  2.2902 -0.4674  1.7949
  176SOPE   H8Y20065   4.021   4.294   9.313  0.2938 -0.1828  1.1525
  176SOPE   C3920066   3.830   4.372   9.263  0.0172 -0.0814 -0.4983
  176SOPE   H9X20067   3.850   4.478   9.290  1.8428 -0.5892  0.3235
  176SOPE   H9Y20068   3.725   4.344   9.286 -0.3353  2.4439  1.4259
  176SOPE  C31020069   3.846   4.332   9.118  0.0429 -0.3227  0.1900
  176SOPE  H10X20070   3.815   4.226   9.106 -1.2618 -0.0148  0.7229
  176SOPE  H10Y20071   3.951   4.343   9.084  0.0814 -1.2396 -0.0052
  176SOPE  C31120072   3.749   4.423   9.032 -0.2040  0.3680 -0.3753
  176SOPE  H11X20073   3.770   4.530   9.056  0.9376 -0.1055  0.8845
  176SOPE  H11Y20074   3.645   4.406   9.067  0.5448  0.7297  2.1998
  176SOPE  C31220075   3.755   4.399   8.877 -0.1584  0.6822 -0.9936
  176SOPE  H12X20076   3.852   4.430   8.834  1.5778  0.3266  2.2944
  176SOPE  H12Y20077   3.670   4.455   8.834 -2.8870  0.6475  3.6543
  176SOPE  C31320078   3.711   4.261   8.813 -0.2786  0.6881  0.2021
  176SOPE  H13X20079   3.604   4.235   8.828 -1.0624  0.7759 -3.9608
  176SOPE  H13Y20080   3.764   4.176   8.861 -2.0267 -0.5957 -0.0159
  176SOPE  C31420081   3.729   4.263   8.660  0.3345 -0.3719 -0.1042
  176SOPE  H14X20082   3.832   4.286   8.625 -0.2065  2.1847 -0.1773
  176SOPE  H14Y20083   3.677   4.352   8.619  1.8150  0.4568 -0.2762
  176SOPE  C31520084   3.683   4.139   8.582  0.2590 -0.0361  0.4640
  176SOPE  H15X20085   3.586   4.121   8.634  1.4802  0.4595  3.0847
  176SOPE  H15Y20086   3.758   4.058   8.589  0.5823  0.1189 -1.0139
  176SOPE  C31620087   3.654   4.157   8.435 -0.6687 -0.1704  0.5337
  176SOPE  H16X20088   3.754   4.179   8.391  0.3999 -0.1484  2.8403
  176SOPE  H16Y20089   3.608   4.257   8.418  0.0751  0.0965 -0.0235
  176SOPE  C31720090   3.570   4.057   8.359 -0.1732 -0.5773 -0.2542
  176SOPE  H17X20091   3.489   4.018   8.424  1.6129 -1.8738  1.3137
  176SOPE  H17Y20092   3.632   3.968   8.332  0.8377 -0.5867  1.9339
  176SOPE  C31820093   3.516   4.121   8.229  0.1170  0.5898 -0.0633
  176SOPE  H18X20094   3.603   4.169   8.181  1.3770 -2.0668 -0.6364
  176SOPE  H18Y20095   3.444   4.205   8.241  0.3975  0.9421 -0.7567
  176SOPE  H18Z20096   3.464   4.050   8.161  1.2802 -0.0206 -0.3369
  177SOPE     N20097   5.456   4.288  11.428 -0.2337 -0.0467  0.3621
  177SOPE   HN120098   5.360   4.250  11.435 -0.9598  1.9970  2.6634
  177SOPE   HN220099   5.520   4.220  11.473  1.2426  0.1308 -1.3159
  177SOPE   HN320100   5.452   4.368  11.494 -1.3257  0.4711 -0.2992
  177SOPE   C1220101   5.514   4.322  11.286 -0.1900 -0.4026 -0.2806
  177SOPE  H12A20102   5.624   4.307  11.286  0.6354  4.1906 -0.6397
  177SOPE  H12B20103   5.494   4.431  11.273  1.2881 -0.1314 -0.4112
  177SOPE   C1120104   5.446   4.230  11.181  0.3947 -0.3144 -0.1592
  177SOPE  H11A20105   5.461   4.291  11.089  0.0625  0.5791  0.3720
  177SOPE  H11B20106   5.336   4.237  11.194  0.5567  1.7053  0.3882
  177SOPE     P20107   5.616   4.029  11.107  0.2089  0.0060  0.0718
  177SOPE   O1320108   5.632   3.888  11.152  0.3377 -0.1368  0.4380
  177SOPE   O1420109   5.732   4.119  11.141 -0.2456 -1.1115 -0.4766
  177SOPE   O1220110   5.490   4.090  11.170  0.2637 -0.3308  0.5476
  177SOPE   O1120111   5.582   4.041  10.949 -0.4472 -0.1109 -0.2412
  177SOPE    C120112   5.557   3.931  10.865  0.4223 -0.1751 -0.1325
  177SOPE    HA20113   5.507   3.972  10.775  0.5246 -0.4691 -0.3218
  177SOPE    HB20114   5.484   3.862  10.912 -0.7675  0.5311 -0.9078
  177SOPE    C220115   5.683   3.853  10.819  0.2407  0.5949  0.2563
  177SOPE    HS20116   5.719   3.807  10.914  0.3509  2.2171  1.0347
  177SOPE   O2120117   5.782   3.951  10.774  0.0871 -0.1097 -0.5251
  177SOPE   C2120118   5.904   3.897  10.776 -0.7783 -0.8348  0.9613
  177SOPE   O2220119   5.932   3.796  10.837  0.4802  0.3051  0.3922
  177SOPE   C2220120   6.010   3.993  10.709 -0.2933 -1.2300 -0.9319
  177SOPE   H2R20121   6.054   4.050  10.794 -2.3957  0.8915 -1.1557
  177SOPE   H2S20122   5.967   4.062  10.633 -0.7560 -0.8183 -0.3113
  177SOPE    C320123   5.657   3.737  10.713  0.4645  0.7074 -0.0608
  177SOPE    HX20124   5.581   3.678  10.769  2.2145 -0.6468  1.0061
  177SOPE    HY20125   5.743   3.667  10.721 -1.9280 -2.2537  2.6556
  177SOPE   O3120126   5.619   3.781  10.584  0.0468 -0.2177  0.1744
  177SOPE   C3120127   5.691   3.723  10.478  0.4898 -0.4326 -0.2135
  177SOPE   O3220128   5.787   3.654  10.499 -0.6933  0.5737 -0.1964
  177SOPE   C3220129   5.627   3.747  10.346 -0.2597 -0.0866  0.2822
  177SOPE   H2X20130   5.583   3.849  10.341  0.5034  0.2166 -0.5105
  177SOPE   H2Y20131   5.556   3.662  10.335 -0.1992 -0.7774  3.9596
  177SOPE   C2320132   6.114   3.906  10.636  0.1071 -0.1765  0.6476
  177SOPE   H3R20133   6.142   3.820  10.701  0.8129  0.7142  1.5654
  177SOPE   H3S20134   6.206   3.968  10.633  0.0017 -0.0644 -0.3363
  177SOPE   C2420135   6.081   3.855  10.493 -0.1505 -0.4324  0.4514
  177SOPE   H4R20136   5.990   3.792  10.502 -0.8675  0.6160  0.8338
  177SOPE   H4S20137   6.067   3.932  10.414 -0.8153 -0.8258  0.1837
  177SOPE   C2520138   6.205   3.775  10.445 -0.2224 -0.2861 -0.1125
  177SOPE   H5R20139   6.286   3.851  10.437 -2.0895  1.8710  0.5579
  177SOPE   H5S20140   6.250   3.696  10.509  3.4257  0.7216 -1.1888
  177SOPE   C2620141   6.187   3.716  10.302 -0.7143 -0.6939 -0.5136
  177SOPE   H6R20142   6.267   3.642  10.281 -1.0241 -1.0304 -0.5010
  177SOPE   H6S20143   6.089   3.666  10.290 -1.4263  0.5978 -0.2864
  177SOPE   C2720144   6.179   3.830  10.189 -0.0011  0.2902  0.0246
  177SOPE   H7R20145   6.070   3.848  10.185 -0.2735 -1.0711  0.5265
  177SOPE   H7S20146   6.229   3.925  10.215 -0.0361  0.5450 -0.8047
  177SOPE   C2820147   6.202   3.778  10.046  0.0911 -0.6423 -0.9403
  177SOPE   H8R20148   6.144   3.684  10.030 -0.4831 -0.5905  0.6641
  177SOPE   H8S20149   6.163   3.847   9.969 -0.5165 -0.5512 -0.5549
  177SOPE   C2920150   6.352   3.751  10.029 -0.1646  0.3587  0.0051
  177SOPE   H9120151   6.406   3.766  10.124 -0.0334 -0.2654  0.0360
  177SOPE  C21020152   6.423   3.732   9.915  0.2610  0.1337 -0.4878
  177SOPE  H10120153   6.531   3.714   9.926  0.7823  3.2137  0.1714
  177SOPE  C21120154   6.356   3.726   9.778  0.1240  0.5202 -0.6589
  177SOPE  H11R20155   6.385   3.820   9.726  1.1159  0.4405 -0.2742
  177SOPE  H11S20156   6.245   3.730   9.775  0.0683  0.8753  1.1932
  177SOPE  C21220157   6.406   3.612   9.685  0.5504 -0.3103  0.2223
  177SOPE  H12R20158   6.365   3.521   9.733 -0.6211 -0.6169 -1.2912
  177SOPE  H12S20159   6.517   3.608   9.678  0.6793  2.6594 -1.2739
  177SOPE  C21320160   6.328   3.615   9.550 -0.8454  0.3039 -0.5366
  177SOPE  H13R20161   6.217   3.611   9.554 -0.9871 -0.4732 -3.2143
  177SOPE  H13S20162   6.357   3.520   9.499 -2.3771  0.2412 -1.3369
  177SOPE  C21420163   6.385   3.727   9.455  0.0385  0.0813  0.3431
  177SOPE  H14R20164   6.495   3.733   9.467  0.0572  0.9395 -0.2027
  177SOPE  H14S20165   6.336   3.823   9.482 -2.7701 -1.0566 -0.2831
  177SOPE  C21520166   6.342   3.697   9.311 -0.9664  0.1899 -0.0671
  177SOPE  H15R20167   6.239   3.738   9.302 -0.0953  3.1464  2.0014
  177SOPE  H15S20168   6.356   3.590   9.284  3.3407  0.8074 -1.0923
  177SOPE  C21620169   6.430   3.777   9.212 -0.4411  0.5918 -0.7052
  177SOPE  H16R20170   6.535   3.744   9.222 -0.0468  2.3641  2.4392
  177SOPE  H16S20171   6.415   3.884   9.241 -2.9766  0.2396 -0.4682
  177SOPE  C21720172   6.383   3.758   9.062  0.2337  0.9023  0.5473
  177SOPE  H17R20173   6.273   3.769   9.056  0.3558  2.9406  1.5368
  177SOPE  H17S20174   6.415   3.657   9.027 -3.1309  0.4221 -1.6182
  177SOPE  C21820175   6.428   3.872   8.970  0.3378  0.7439 -0.2826
  177SOPE  H18R20176   6.539   3.878   8.971  0.3989 -0.2473  0.7106
  177SOPE  H18S20177   6.390   3.969   9.006  0.5585  0.3371  1.1023
  177SOPE  H18T20178   6.388   3.855   8.867 -0.2502 -0.1772  0.0826
  177SOPE   C3320179   5.726   3.736  10.221  0.4857 -0.6216 -0.5930
  177SOPE   H3X20180   5.771   3.635  10.208  2.5973 -0.1731  2.1573
  177SOPE   H3Y20181   5.818   3.796  10.238  0.6726 -0.8793 -0.6793
  177SOPE   C3420182   5.655   3.775  10.094 -0.6252 -0.0534 -0.0865
  177SOPE   H4X20183   5.599   3.871  10.108 -1.3993 -0.1166 -2.3511
  177SOPE   H4Y20184   5.572   3.703  10.078  0.7561 -1.1911 -2.6359
  177SOPE   C3520185   5.737   3.790   9.964 -0.4187 -0.0816  0.3718
  177SOPE   H5X20186   5.802   3.700   9.954  1.4626  1.4446 -2.4161
  177SOPE   H5Y20187   5.807   3.876   9.962 -0.9348  0.3589  1.0659
  177SOPE   C3620188   5.657   3.803   9.830  0.1069 -0.2623 -0.2922
  177SOPE   H6X20189   5.607   3.902   9.830 -0.9470 -0.7707 -1.1341
  177SOPE   H6Y20190   5.585   3.719   9.825  0.5799 -0.6918 -0.0158
  177SOPE   C3720191   5.760   3.776   9.714  0.6335 -0.1960  0.0362
  177SOPE   H7X20192   5.810   3.682   9.745 -0.3647 -0.0697  2.2362
  177SOPE   H7Y20193   5.835   3.858   9.716 -0.0316  0.4091  0.6857
  177SOPE   C3820194   5.688   3.762   9.572 -0.6877  0.2282 -0.1769
  177SOPE   H8X20195   5.626   3.852   9.554 -0.8095  0.1863  0.0282
  177SOPE   H8Y20196   5.618   3.676   9.575 -0.5686 -0.1077 -3.4870
  177SOPE   C3920197   5.791   3.745   9.464  0.3581  0.2407 -0.3909
  177SOPE   H9X20198   5.833   3.642   9.469 -1.3351 -0.4197  1.3654
  177SOPE   H9Y20199   5.866   3.826   9.468  3.0169 -2.0570 -0.1688
  177SOPE  C31020200   5.732   3.745   9.331  0.1445 -0.2228 -0.1293
  177SOPE  H10X20201   5.663   3.830   9.309  0.1925  0.1708  1.1382
  177SOPE  H10Y20202   5.676   3.650   9.319  1.1016 -0.9766  1.1507
  177SOPE  C31120203   5.834   3.737   9.211  0.1579  0.1137 -1.0184
  177SOPE  H11X20204   5.882   3.637   9.210  1.7575  0.7007  2.4275
  177SOPE  H11Y20205   5.916   3.810   9.228  1.6150 -1.8515  1.0550
  177SOPE  C31220206   5.766   3.767   9.077  0.3541  0.2263 -0.0777
  177SOPE  H12X20207   5.774   3.875   9.050 -0.6080  0.1101 -0.8797
  177SOPE  H12Y20208   5.660   3.739   9.090  0.2756 -0.1858 -1.4067
  177SOPE  C31320209   5.816   3.681   8.956  0.3858  0.7092 -0.3060
  177SOPE  H13X20210   5.739   3.690   8.877 -0.8494 -0.3775  0.7199
  177SOPE  H13Y20211   5.813   3.571   8.975 -3.2251  0.2593 -2.5066
  177SOPE  C31420212   5.959   3.706   8.925  0.2146  0.2505  0.0528
  177SOPE  H14X20213   6.019   3.663   9.009  3.5338  0.4728 -2.0149
  177SOPE  H14Y20214   5.966   3.816   8.922 -0.3096  0.2630 -0.8353
  177SOPE  C31520215   5.989   3.638   8.791 -0.0845  0.7326 -0.0165
  177SOPE  H15X20216   5.901   3.650   8.724 -2.0558 -0.0585  2.2737
  177SOPE  H15Y20217   6.000   3.528   8.797 -2.1792  0.5622  1.9992
  177SOPE  C31620218   6.118   3.700   8.727  0.1058  0.4890 -0.2596
  177SOPE  H16X20219   6.192   3.656   8.796  1.6828 -0.1999 -2.2902
  177SOPE  H16Y20220   6.118   3.811   8.723  1.9306  0.5916  1.3434
  177SOPE  C31720221   6.146   3.663   8.579  0.5774  0.2825  0.7820
  177SOPE  H17X20222   6.237   3.724   8.564  2.3559 -2.4387 -0.2685
  177SOPE  H17Y20223   6.062   3.694   8.513  0.0504  1.0473  1.7706
  177SOPE  C31820224   6.172   3.513   8.564  0.3807  0.2935 -1.1955
  177SOPE  H18X20225   6.083   3.455   8.599 -2.2575  3.6693 -1.7270
  177SOPE  H18Y20226   6.270   3.484   8.606 -0.2725  0.2996  0.4399
  177SOPE  H18Z20227   6.193   3.511   8.455  1.9214 -0.7419 -0.9008
  178SOPE     N20228   2.650   6.407  10.623 -0.6247  0.0284  0.2101
  178SOPE   HN120229   2.615   6.310  10.637 -0.0509  0.0349  1.9682
  178SOPE   HN220230   2.729   6.425  10.688  0.4248  1.9511 -1.4879
  178SOPE   HN320231   2.582   6.476  10.658  0.8783  0.4898  2.4324
  178SOPE   C1220232   2.682   6.437  10.483  0.1879 -0.4338  0.5825
  178SOPE  H12A20233   2.593   6.433  10.417  0.2546  0.4715  0.4333
  178SOPE  H12B20234   2.743   6.351  10.447 -0.6045 -0.9855  0.5330
  178SOPE   C1120235   2.762   6.564  10.467 -0.7277 -0.2126  0.3162
  178SOPE  H11A20236   2.691   6.649  10.478  0.0623  0.8957 -2.3416
  178SOPE  H11B20237   2.787   6.575  10.359 -1.4294 -1.1061  0.0545
  178SOPE     P20238   2.998   6.483  10.512  0.2577 -0.4079 -0.0256
  178SOPE   O1320239   2.950   6.346  10.543 -0.6049  0.2132  0.2941
  178SOPE   O1420240   3.118   6.523  10.583  0.3039  0.4543  0.2124
  178SOPE   O1220241   2.880   6.579  10.544  0.2083 -0.4520 -0.2843
  178SOPE   O1120242   3.016   6.515  10.360  0.7096  0.1864  0.1146
  178SOPE    C120243   3.065   6.420  10.272 -0.0755  0.5766 -0.6156
  178SOPE    HA20244   2.991   6.338  10.257 -1.7700  1.9217  0.1221
  178SOPE    HB20245   3.168   6.385  10.296 -0.5630 -1.0739 -0.7984
  178SOPE    C220246   3.089   6.478  10.123 -1.0949  0.2165 -0.6002
  178SOPE    HS20247   3.166   6.412  10.078 -2.2852 -0.8357 -1.1355
  178SOPE   O2120248   3.118   6.618  10.132  0.3538 -0.4960  0.0829
  178SOPE   C2120249   3.244   6.643  10.136 -0.0116 -0.0008  0.4872
  178SOPE   O2220250   3.337   6.560  10.147 -0.0951 -0.6228 -0.1270
  178SOPE   C2220251   3.266   6.792  10.135 -0.3248 -0.0584  0.0784
  178SOPE   H2R20252   3.246   6.835  10.235  0.0527  0.9031 -0.2524
  178SOPE   H2S20253   3.197   6.847  10.067 -0.6419  0.7272  1.0129
  178SOPE    C320254   2.969   6.456  10.032  0.0243  0.0861  0.4570
  178SOPE    HX20255   2.982   6.511   9.937  2.3790 -0.4095  0.4242
  178SOPE    HY20256   2.876   6.483  10.086 -2.5215 -3.1267 -1.9355
  178SOPE   O3120257   2.950   6.321   9.998  0.0386  0.3400  0.1023
  178SOPE   C3120258   2.840   6.296   9.931  0.8962  0.0189  0.0500
  178SOPE   O3220259   2.759   6.382   9.891  0.0683 -0.3195  0.2490
  178SOPE   C3220260   2.827   6.147   9.898 -0.4957  0.6965  0.0324
  178SOPE   H2X20261   2.777   6.106   9.989  0.5654 -1.6859 -0.3953
  178SOPE   H2Y20262   2.926   6.096   9.894 -2.5790 -3.8611  0.2661
  178SOPE   C2320263   3.400   6.839  10.075  0.7201 -0.0125 -0.2858
  178SOPE   H3R20264   3.489   6.798  10.126  1.6536 -1.1858 -2.6922
  178SOPE   H3S20265   3.412   6.947  10.099  2.8454 -0.1774 -0.4008
  178SOPE   C2420266   3.393   6.821   9.924 -0.2699 -0.4979  0.8856
  178SOPE   H4R20267   3.411   6.715   9.895 -3.7124 -1.0756  0.4234
  178SOPE   H4S20268   3.297   6.855   9.879  1.5742 -0.6918 -3.7647
  178SOPE   C2520269   3.514   6.899   9.852  0.3299  0.4206 -0.0765
  178SOPE   H5R20270   3.475   7.002   9.870 -0.4607 -0.1677  1.8466
  178SOPE   H5S20271   3.603   6.887   9.916  0.3950  0.2259 -0.2053
  178SOPE   C2620272   3.551   6.876   9.700 -0.0372  0.7912 -0.6229
  178SOPE   H6R20273   3.464   6.902   9.637 -0.2049 -1.4021 -1.3958
  178SOPE   H6S20274   3.646   6.932   9.692  0.9350  0.1267  3.6301
  178SOPE   C2720275   3.585   6.726   9.682 -0.3200  0.3129  0.0567
  178SOPE   H7R20276   3.652   6.689   9.763 -0.4144 -0.8066 -0.3557
  178SOPE   H7S20277   3.492   6.668   9.698 -0.4051  0.2417 -0.6517
  178SOPE   C2820278   3.636   6.690   9.543 -0.1500 -0.2639 -0.4393
  178SOPE   H8R20279   3.740   6.728   9.528  0.8514 -1.8634  1.8708
  178SOPE   H8S20280   3.639   6.579   9.544  0.3061 -0.2514 -0.3255
  178SOPE   C2920281   3.551   6.742   9.432  0.2178 -0.0327  0.4465
  178SOPE   H9120282   3.541   6.851   9.423  1.7387  0.0709 -0.2752
  178SOPE  C21020283   3.479   6.657   9.355 -0.4117  0.2158 -0.8679
  178SOPE  H10120284   3.430   6.714   9.275 -2.4500 -0.2861 -0.0348
  178SOPE  C21120285   3.481   6.508   9.352  0.8758  0.1858 -0.4788
  178SOPE  H11R20286   3.376   6.472   9.356  1.0993 -0.4891 -0.5445
  178SOPE  H11S20287   3.534   6.458   9.436  1.2031 -1.2846 -1.5093
  178SOPE  C21220288   3.549   6.454   9.222 -0.3607  1.6837  0.4741
  178SOPE  H12R20289   3.482   6.479   9.136  0.9954  2.1986 -0.4639
  178SOPE  H12S20290   3.554   6.345   9.238 -0.0286  1.7036  0.4958
  178SOPE  C21320291   3.684   6.513   9.198  0.7012 -0.3037  0.1178
  178SOPE  H13R20292   3.754   6.521   9.283  0.9785  2.8891 -0.3051
  178SOPE  H13S20293   3.668   6.618   9.166 -1.0089 -0.7395 -0.6040
  178SOPE  C21420294   3.751   6.437   9.081  0.3412  0.3402  0.2345
  178SOPE  H14R20295   3.818   6.500   9.020  1.8432 -2.9810 -1.8140
  178SOPE  H14S20296   3.673   6.403   9.010  0.8110 -2.2016  0.8194
  178SOPE  C21520297   3.825   6.303   9.099 -0.3991  0.2760  0.0392
  178SOPE  H15R20298   3.747   6.238   9.145 -1.2187  0.3597 -1.1789
  178SOPE  H15S20299   3.899   6.328   9.178 -0.5242 -1.2996  0.6861
  178SOPE  C21620300   3.885   6.251   8.975 -0.3447  0.4099  0.5031
  178SOPE  H16R20301   3.799   6.231   8.908 -1.7802  0.5354  2.2412
  178SOPE  H16S20302   3.936   6.154   8.996  1.3097  1.7655  3.4301
  178SOPE  C21720303   3.995   6.339   8.899 -0.3289 -0.4311  0.3593
  178SOPE  H17R20304   4.087   6.345   8.960 -1.1810 -0.6250  1.7085
  178SOPE  H17S20305   3.960   6.443   8.880 -0.9440 -0.4023  1.5429
  178SOPE  C21820306   4.037   6.285   8.760  0.4563 -0.3213 -0.3824
  178SOPE  H18R20307   3.966   6.315   8.680  0.4944 -0.6202 -0.5296
  178SOPE  H18S20308   4.034   6.174   8.761 -1.8631 -0.3140 -1.3605
  178SOPE  H18T20309   4.137   6.310   8.719  1.2784 -3.7064 -0.7445
  178SOPE   C3320310   2.760   6.107   9.768 -0.3920 -0.4168  0.4356
  178SOPE   H3X20311   2.664   6.159   9.752  0.0986 -0.2304 -2.4748
  178SOPE   H3Y20312   2.720   6.003   9.766  1.6632 -1.2739 -1.5390
  178SOPE   C3420313   2.845   6.131   9.648 -1.0029  0.0071  0.0803
  178SOPE   H4X20314   2.941   6.080   9.669  0.2907  1.1835 -2.4577
  178SOPE   H4Y20315   2.879   6.233   9.619 -1.3321 -0.4030 -1.9243
  178SOPE   C3520316   2.786   6.069   9.524 -0.0177  0.1513 -0.4912
  178SOPE   H5X20317   2.691   6.119   9.500  1.4382  3.0373 -0.6713
  178SOPE   H5Y20318   2.774   5.959   9.533  2.5626 -0.1798 -0.2984
  178SOPE   C3620319   2.886   6.088   9.403  0.2216  0.5337  0.1635
  178SOPE   H6X20320   2.975   6.023   9.419  0.4047 -0.2101 -3.1506
  178SOPE   H6Y20321   2.915   6.192   9.377  0.1549  0.3326 -0.7321
  178SOPE   C3720322   2.821   6.035   9.274  0.2772  0.3716 -0.3664
  178SOPE   H7X20323   2.730   6.096   9.255 -0.2958  0.0933  1.3428
  178SOPE   H7Y20324   2.783   5.930   9.281 -0.5141  0.7667  2.1751
  178SOPE   C3820325   2.895   6.037   9.143  0.1866 -0.0428  0.3718
  178SOPE   H8X20326   2.994   5.988   9.156  0.6342  0.6898 -0.2130
  178SOPE   H8Y20327   2.907   6.142   9.110 -0.8341 -0.0961 -0.2036
  178SOPE   C3920328   2.822   5.963   9.026  0.2976 -0.5891 -0.3085
  178SOPE   H9X20329   2.729   6.016   8.994  0.8988  0.3620 -0.5202
  178SOPE   H9Y20330   2.794   5.862   9.063  0.8060 -0.5364  0.2336
  178SOPE  C31020331   2.920   5.953   8.909  0.4297 -0.6537 -0.5920
  178SOPE  H10X20332   2.875   5.880   8.838 -3.7721  1.5405 -0.4498
  178SOPE  H10Y20333   3.016   5.911   8.947  0.2478  1.2685  2.3027
  178SOPE  C31120334   2.942   6.086   8.833  0.6530 -0.6486  0.3149
  178SOPE  H11X20335   2.974   6.167   8.901  0.0230  1.2766 -1.5917
  178SOPE  H11Y20336   2.846   6.116   8.786  1.6737 -0.9780 -2.1245
  178SOPE  C31220337   3.046   6.088   8.724 -0.4971  0.2701  0.0446
  178SOPE  H12X20338   3.149   6.118   8.754  1.0318 -1.1412 -3.2926
  178SOPE  H12Y20339   3.011   6.172   8.661 -0.1230  0.6587  0.3496
  178SOPE  C31320340   3.055   5.967   8.634  0.5114  0.4293 -0.2167
  178SOPE  H13X20341   2.956   5.916   8.626  0.9340 -0.8090  1.6771
  178SOPE  H13Y20342   3.121   5.885   8.669  1.0474 -0.4571 -3.0391
  178SOPE  C31420343   3.112   6.001   8.497  0.1497  0.3606 -0.1174
  178SOPE  H14X20344   3.219   6.029   8.514  0.1480  1.5592 -1.8412
  178SOPE  H14Y20345   3.058   6.083   8.446  0.5190 -0.5049 -1.9928
  178SOPE  C31520346   3.098   5.884   8.393 -0.3167  0.0401  0.1744
  178SOPE  H15X20347   2.991   5.868   8.367 -0.1600 -2.6727  0.8645
  178SOPE  H15Y20348   3.134   5.783   8.423  3.1482  0.3428 -2.3983
  178SOPE  C31620349   3.185   5.921   8.271  0.2229 -0.0284 -0.2071
  178SOPE  H16X20350   3.156   6.019   8.228  1.2292  1.7685  2.8947
  178SOPE  H16Y20351   3.168   5.838   8.198  0.4029 -2.3526  2.2447
  178SOPE  C31720352   3.341   5.929   8.299  0.0773 -0.1702  0.7419
  178SOPE  H17X20353   3.370   6.025   8.345  0.8753 -1.3806  2.8892
  178SOPE  H17Y20354   3.387   5.923   8.198 -4.0940 -0.2095 -1.3762
  178SOPE  C31820355   3.396   5.809   8.375 -0.2543 -0.4967 -0.1058
  178SOPE  H18X20356   3.506   5.813   8.357 -0.1960  0.2346  0.3583
  178SOPE  H18Y20357   3.344   5.713   8.354  0.9795 -0.8193 -1.8981
  178SOPE  H18Z20358   3.383   5.831   8.483  1.5831 -0.6208  0.1735
  179SOPE     N20359   1.917   6.360   6.177  0.1180 -0.2726 -0.6160
  179SOPE   HN120360   1.999   6.366   6.242  0.3906  0.2150 -0.9982
  179SOPE   HN220361   1.967   6.352   6.086 -1.1768 -2.4692 -1.2016
  179SOPE   HN320362   1.871   6.453   6.168 -0.7401 -0.6496 -0.2006
  179SOPE   C1220363   1.815   6.263   6.205  0.0356 -0.0225 -0.5680
  179SOPE  H12A20364   1.857   6.161   6.198 -0.6394 -0.2564 -1.4024
  179SOPE  H12B20365   1.736   6.277   6.128 -0.2846 -0.5867 -0.3438
  179SOPE   C1120366   1.754   6.289   6.345 -0.2626 -0.5656  0.0514
  179SOPE  H11A20367   1.835   6.311   6.417  1.2593  1.7780 -2.2359
  179SOPE  H11B20368   1.700   6.201   6.388 -1.5896  0.4709  0.6132
  179SOPE     P20369   1.703   6.548   6.353 -0.2420  0.4035 -0.1256
  179SOPE   O1320370   1.590   6.628   6.403 -0.1862 -0.2776  0.1557
  179SOPE   O1420371   1.760   6.570   6.220  1.2069 -0.5714  0.1119
  179SOPE   O1220372   1.660   6.399   6.345 -0.0895 -0.0430  0.0137
  179SOPE   O1120373   1.820   6.550   6.450 -0.3544 -0.1271 -0.6074
  179SOPE    C120374   1.811   6.507   6.590 -0.1770 -0.4184 -0.3960
  179SOPE    HA20375   1.906   6.454   6.615  0.1501  0.2739 -0.1276
  179SOPE    HB20376   1.734   6.430   6.611 -0.9298  0.4376  0.0743
  179SOPE    C220377   1.806   6.621   6.691  0.2547 -0.0370  0.5181
  179SOPE    HS20378   1.806   6.588   6.798  1.3413 -1.1332  0.2088
  179SOPE   O2120379   1.677   6.689   6.680 -0.2321  0.2394  0.4306
  179SOPE   C2120380   1.576   6.615   6.711 -0.0480 -0.3996 -0.2097
  179SOPE   O2220381   1.565   6.503   6.754 -0.1767 -0.5362 -0.3832
  179SOPE   C2220382   1.460   6.706   6.700  0.9198 -0.4545  0.6740
  179SOPE   H2R20383   1.448   6.734   6.594 -3.2448 -0.9093  0.8891
  179SOPE   H2S20384   1.476   6.799   6.759  0.8407 -1.2073  1.9371
  179SOPE    C320385   1.926   6.715   6.675  0.5248 -0.1265 -0.2375
  179SOPE    HX20386   1.902   6.743   6.570 -0.6980 -1.6341 -0.4082
  179SOPE    HY20387   2.027   6.671   6.668  0.1329 -0.8344 -2.0546
  179SOPE   O3120388   1.937   6.814   6.776 -0.4529 -0.5959  0.4872
  179SOPE   C3120389   1.870   6.931   6.743 -1.2983 -0.0637  0.5867
  179SOPE   O3220390   1.836   6.957   6.629  0.3120 -0.2905 -0.0227
  179SOPE   C3220391   1.850   7.026   6.856 -0.0522  0.0407  0.1644
  179SOPE   H2X20392   1.776   7.086   6.799  1.1844  0.0449 -1.5114
  179SOPE   H2Y20393   1.946   7.079   6.875 -0.3822  0.7117 -0.0091
  179SOPE   C2320394   1.328   6.648   6.751 -0.2329  0.4358 -0.0660
  179SOPE   H3R20395   1.316   6.651   6.861 -0.4876  0.6479 -0.1002
  179SOPE   H3S20396   1.324   6.539   6.731 -1.6730 -0.1648  2.9267
  179SOPE   C2420397   1.200   6.705   6.690  0.6075 -1.3394 -0.6894
  179SOPE   H4R20398   1.192   6.811   6.722  0.0256 -1.6966  0.3962
  179SOPE   H4S20399   1.207   6.700   6.579  1.8764  0.0160 -0.7058
  179SOPE   C2520400   1.074   6.647   6.746 -0.0759  0.3433 -0.7046
  179SOPE   H5R20401   0.992   6.715   6.713 -2.5467 -1.8523  0.5398
  179SOPE   H5S20402   1.043   6.555   6.692 -1.8871  1.1363 -1.1044
  179SOPE   C2620403   1.058   6.652   6.898 -0.8290 -0.1976  0.5308
  179SOPE   H6R20404   1.121   6.575   6.946 -0.5346 -1.1411 -1.2913
  179SOPE   H6S20405   1.089   6.748   6.945  0.9100 -0.7374  0.5203
  179SOPE   C2720406   0.916   6.621   6.948 -0.8178  0.0052  0.2992
  179SOPE   H7R20407   0.846   6.692   6.899  0.3259  0.8657 -0.1118
  179SOPE   H7S20408   0.885   6.522   6.907 -0.3978 -0.6451  1.4824
  179SOPE   C2820409   0.904   6.647   7.097  0.2297  0.0345 -0.6132
  179SOPE   H8R20410   0.938   6.752   7.104 -1.6281  0.6125  0.5302
  179SOPE   H8S20411   0.797   6.635   7.123 -0.2501  0.9988 -2.0658
  179SOPE   C2920412   0.988   6.555   7.174 -1.4801 -0.5259 -0.3066
  179SOPE   H9120413   1.019   6.462   7.125 -1.3326 -0.1654 -0.9082
  179SOPE  C21020414   1.019   6.567   7.308  0.0941  0.6803  0.5060
  179SOPE  H10120415   1.094   6.497   7.349  0.0127 -0.0613 -0.5678
  179SOPE  C21120416   0.985   6.681   7.392 -0.2462  0.4802 -0.1596
  179SOPE  H11R20417   0.925   6.756   7.338  0.6445  1.2918 -0.0630
  179SOPE  H11S20418   1.082   6.721   7.429  0.3219 -1.4216  0.5495
  179SOPE  C21220419   0.910   6.639   7.518  0.0514 -0.4648  0.5975
  179SOPE  H12R20420   0.810   6.605   7.483  0.1709  1.2522 -1.6704
  179SOPE  H12S20421   0.888   6.730   7.578 -0.1566  1.1670 -1.8211
  179SOPE  C21320422   0.987   6.538   7.603 -0.0926 -0.2672 -0.1025
  179SOPE  H13R20423   1.092   6.567   7.582 -0.7906  2.8934  0.3114
  179SOPE  H13S20424   0.988   6.431   7.571  0.6532 -0.6856  1.2332
  179SOPE  C21420425   0.952   6.562   7.747  0.2946 -0.3293 -0.2507
  179SOPE  H14R20426   0.846   6.591   7.760  0.1248  0.1723 -2.3421
  179SOPE  H14S20427   1.008   6.655   7.768  1.7426 -0.4587 -3.0635
  179SOPE  C21520428   0.987   6.446   7.843 -0.2449  0.6474  0.2831
  179SOPE  H15R20429   1.097   6.433   7.831 -0.3043  0.0521  0.3715
  179SOPE  H15S20430   0.941   6.346   7.830 -1.8379  1.3634  0.1749
  179SOPE  C21620431   0.952   6.488   7.991 -0.0172 -0.4670 -0.0533
  179SOPE  H16R20432   0.993   6.591   7.998 -3.1062  0.8923 -0.1123
  179SOPE  H16S20433   1.008   6.427   8.064 -0.3200 -2.1023 -1.1391
  179SOPE  C21720434   0.802   6.494   8.032 -0.5189  0.6473  0.9903
  179SOPE  H17R20435   0.748   6.402   8.002 -2.5534  1.6717  1.3463
  179SOPE  H17S20436   0.757   6.569   7.963  0.0579 -0.4595 -0.6469
  179SOPE  C21820437   0.772   6.532   8.175 -0.2451  0.2208  0.0710
  179SOPE  H18R20438   0.661   6.528   8.184 -0.4884 -0.4567 -2.5285
  179SOPE  H18S20439   0.797   6.639   8.194 -0.8461 -0.0596  2.9683
  179SOPE  H18T20440   0.810   6.459   8.250 -1.2477 -0.1202  0.2570
  179SOPE   C3320441   1.793   6.966   6.988 -0.2474  0.3638  0.0358
  179SOPE   H3X20442   1.777   7.055   7.054 -1.6421 -0.3108  0.6392
  179SOPE   H3Y20443   1.869   6.895   7.027 -0.5440 -0.5732 -1.0426
  179SOPE   C3420444   1.666   6.888   6.974 -0.3589  0.4134 -0.2408
  179SOPE   H4X20445   1.692   6.802   6.910  0.0830  0.3732 -0.0058
  179SOPE   H4Y20446   1.585   6.942   6.919  0.1125  3.6358  1.9158
  179SOPE   C3520447   1.612   6.834   7.110 -1.4841 -0.2467  0.2870
  179SOPE   H5X20448   1.565   6.918   7.167 -1.1030 -0.7552  1.3911
  179SOPE   H5Y20449   1.695   6.787   7.166 -2.3157 -0.4705  1.3800
  179SOPE   C3620450   1.502   6.734   7.091 -0.3693  0.1787 -0.0609
  179SOPE   H6X20451   1.539   6.629   7.094  1.0403  0.6450 -0.3134
  179SOPE   H6Y20452   1.447   6.745   6.995 -1.2560  1.0644  0.5290
  179SOPE   C3720453   1.392   6.738   7.207 -0.6685  0.4263 -0.4778
  179SOPE   H7X20454   1.318   6.660   7.181 -1.4671  1.4466 -1.3197
  179SOPE   H7Y20455   1.342   6.836   7.226 -0.6188  0.8691 -2.4487
  179SOPE   C3820456   1.457   6.697   7.340  0.5281 -0.6237  0.0879
  179SOPE   H8X20457   1.531   6.779   7.351  0.5053 -0.4368 -0.9856
  179SOPE   H8Y20458   1.512   6.601   7.324 -2.0772 -2.6934  2.5141
  179SOPE   C3920459   1.369   6.680   7.457 -0.0534  0.3206  0.1830
  179SOPE   H9X20460   1.288   6.609   7.430  1.0124 -1.0311  0.4314
  179SOPE   H9Y20461   1.330   6.782   7.477  1.4491  0.8591  0.4986
  179SOPE  C31020462   1.443   6.634   7.590  0.7579  0.3070  0.1886
  179SOPE  H10X20463   1.506   6.721   7.615 -0.5837  1.2326  0.4407
  179SOPE  H10Y20464   1.493   6.536   7.573  0.1579  0.0480 -0.1500
  179SOPE  C31120465   1.352   6.611   7.710  0.9740  0.6639  0.6488
  179SOPE  H11X20466   1.283   6.528   7.684  0.1367  0.9969  1.7473
  179SOPE  H11Y20467   1.285   6.697   7.729  1.0821  0.7697  0.5562
  179SOPE  C31220468   1.423   6.571   7.837  0.2910 -1.2151 -0.2334
  179SOPE  H12X20469   1.507   6.644   7.849  0.8528 -1.9079  0.0748
  179SOPE  H12Y20470   1.474   6.473   7.832  2.2034 -0.2424 -1.4835
  179SOPE  C31320471   1.339   6.577   7.962 -0.2294  0.0357 -1.6457
  179SOPE  H13X20472   1.255   6.503   7.958  0.0366 -0.3200 -0.8529
  179SOPE  H13Y20473   1.286   6.672   7.984  0.1959 -0.1616  0.4052
  179SOPE  C31420474   1.426   6.564   8.098  0.2961 -0.7498  0.6717
  179SOPE  H14X20475   1.493   6.651   8.111  1.6284 -1.6158 -0.1282
  179SOPE  H14Y20476   1.479   6.466   8.098  0.9227 -0.4504  2.7711
  179SOPE  C31520477   1.338   6.570   8.219 -0.2817 -0.6286  0.6245
  179SOPE  H15X20478   1.259   6.648   8.221  0.1727 -0.1843  2.0602
  179SOPE  H15Y20479   1.406   6.591   8.304  2.9055 -1.1896 -1.5914
  179SOPE  C31620480   1.257   6.443   8.245  0.1363  0.4257 -0.3506
  179SOPE  H16X20481   1.229   6.393   8.150 -0.4847  2.3350 -1.2230
  179SOPE  H16Y20482   1.163   6.464   8.301  0.9886 -1.1952  1.8660
  179SOPE  C31720483   1.341   6.345   8.331 -0.0283  0.1811  0.3272
  179SOPE  H17X20484   1.364   6.398   8.427  1.1673  4.1950 -1.9123
  179SOPE  H17Y20485   1.443   6.334   8.288  0.2632 -1.0935  1.2911
  179SOPE  C31820486   1.276   6.201   8.339 -0.9903 -0.5896  0.2123
  179SOPE  H18X20487   1.273   6.166   8.234 -0.2541  0.8841 -0.3275
  179SOPE  H18Y20488   1.173   6.204   8.380 -0.7846 -0.5950  0.7342
  179SOPE  H18Z20489   1.336   6.124   8.393  0.4650  1.1471  1.1743
  180SOPE     N20490   4.739   1.504   6.152 -0.3454  0.2550  0.5419
  180SOPE   HN120491   4.693   1.542   6.067  0.4823  0.9768  0.4016
  180SOPE   HN220492   4.668   1.449   6.206 -1.4556  0.8078 -0.3251
  180SOPE   HN320493   4.771   1.586   6.207  0.0419  1.2285 -1.0727
  180SOPE   C1220494   4.846   1.418   6.100 -0.1707 -0.1233 -0.5552
  180SOPE  H12A20495   4.845   1.420   5.989 -0.4495 -1.5262 -0.5955
  180SOPE  H12B20496   4.823   1.314   6.134  0.1768  0.3131  1.1275
  180SOPE   C1120497   4.983   1.464   6.157 -0.4195  0.3107  0.3367
  180SOPE  H11A20498   5.059   1.414   6.094  1.7345  5.1532 -1.4446
  180SOPE  H11B20499   4.994   1.429   6.261 -0.6996 -0.7956  0.0110
  180SOPE     P20500   4.989   1.705   6.263 -0.3508  0.3275 -0.3902
  180SOPE   O1320501   4.845   1.722   6.285  0.0583 -0.6336 -0.0016
  180SOPE   O1420502   5.062   1.830   6.233 -0.6136  0.3352 -0.2054
  180SOPE   O1220503   5.008   1.605   6.136  0.2356  0.4097  0.3664
  180SOPE   O1120504   5.057   1.632   6.383  0.1676 -0.4026  0.9916
  180SOPE    C120505   5.200   1.634   6.398  0.2395  0.1494 -0.6207
  180SOPE    HA20506   5.237   1.737   6.420 -1.3070  0.7972 -0.9359
  180SOPE    HB20507   5.251   1.593   6.308  0.4253  2.3077 -1.5801
  180SOPE    C220508   5.243   1.559   6.526 -0.1599 -0.2716 -0.2711
  180SOPE    HS20509   5.218   1.454   6.499  1.1047 -0.0924 -2.4417
  180SOPE   O2120510   5.166   1.613   6.643  0.5038 -0.1187 -0.2709
  180SOPE   C2120511   5.140   1.527   6.744 -0.0405 -0.3967  0.0337
  180SOPE   O2220512   5.188   1.417   6.762 -0.8241  0.1743 -0.0408
  180SOPE   C2220513   5.030   1.583   6.836  0.8842 -0.9088  0.4858
  180SOPE   H2R20514   4.940   1.537   6.789  1.6086 -0.7908 -1.0433
  180SOPE   H2S20515   5.032   1.694   6.832  0.0966 -0.9212 -0.7383
  180SOPE    C320516   5.396   1.569   6.550 -0.0035 -0.1356  0.4109
  180SOPE    HX20517   5.424   1.670   6.513 -1.2360  0.5052  1.1601
  180SOPE    HY20518   5.449   1.503   6.479 -0.9435 -0.9828  0.4724
  180SOPE   O3120519   5.443   1.544   6.686  0.2360 -0.0364  0.4042
  180SOPE   C3120520   5.460   1.418   6.723 -0.3967 -1.1580  0.9333
  180SOPE   O3220521   5.456   1.324   6.644  0.2436 -0.5371 -0.2536
  180SOPE   C3220522   5.510   1.402   6.866  0.6194 -0.0890  0.3457
  180SOPE   H2X20523   5.438   1.459   6.929  0.3422 -2.3626  2.2048
  180SOPE   H2Y20524   5.615   1.437   6.875  0.3356  0.2484  3.7633
  180SOPE   C2320525   5.037   1.534   6.982  0.0525 -0.1919  0.0064
  180SOPE   H3R20526   5.092   1.438   6.983 -1.7575 -1.3313  2.9128
  180SOPE   H3S20527   4.936   1.511   7.024  0.5739  0.5272  1.7670
  180SOPE   C2420528   5.091   1.640   7.081  0.1252  0.1961 -0.2078
  180SOPE   H4R20529   5.185   1.684   7.041  2.7298 -2.1646  2.7987
  180SOPE   H4S20530   5.020   1.726   7.073  2.4531  2.1453 -1.2216
  180SOPE   C2520531   5.111   1.597   7.220 -0.0800  0.1655  0.0158
  180SOPE   H5R20532   5.020   1.571   7.280  1.7899 -1.7970  2.1957
  180SOPE   H5S20533   5.176   1.508   7.232 -1.4421 -0.8410  0.2852
  180SOPE   C2620534   5.171   1.720   7.293 -0.0973 -0.0632 -0.3733
  180SOPE   H6R20535   5.259   1.754   7.234  0.5039 -1.0368 -0.0584
  180SOPE   H6S20536   5.089   1.796   7.294 -1.1525 -1.1856  0.0223
  180SOPE   C2720537   5.207   1.688   7.442 -0.3054  0.1608 -0.3879
  180SOPE   H7R20538   5.159   1.774   7.493  0.5330  1.2720 -1.4083
  180SOPE   H7S20539   5.161   1.590   7.466  0.4698  0.2315  1.5577
  180SOPE   C2820540   5.360   1.696   7.460  0.4480  0.4693 -0.4062
  180SOPE   H8R20541   5.409   1.634   7.381 -2.8213 -1.3231 -1.1881
  180SOPE   H8S20542   5.397   1.800   7.453  0.9083  0.3483  0.1641
  180SOPE   C2920543   5.395   1.659   7.603  0.0962  0.1364 -1.1311
  180SOPE   H9120544   5.340   1.705   7.686  2.1547 -1.0776  1.0092
  180SOPE  C21020545   5.474   1.554   7.638 -0.1079 -0.4127  0.1663
  180SOPE  H10120546   5.474   1.528   7.745 -0.9940  1.7641  0.7442
  180SOPE  C21120547   5.545   1.448   7.546  0.2050 -0.0135 -0.0942
  180SOPE  H11R20548   5.650   1.476   7.523 -0.6201  2.0182 -1.7093
  180SOPE  H11S20549   5.494   1.439   7.449 -0.6694 -3.9490  0.5743
  180SOPE  C21220550   5.549   1.309   7.629  0.1254  0.4641  0.1725
  180SOPE  H12R20551   5.557   1.320   7.739 -1.0088 -0.2166  0.3456
  180SOPE  H12S20552   5.641   1.255   7.601  0.4550  0.4099  1.3164
  180SOPE  C21320553   5.422   1.217   7.601  0.3298 -0.0219  0.0389
  180SOPE  H13R20554   5.412   1.199   7.491  0.5973  0.0051  0.0088
  180SOPE  H13S20555   5.334   1.277   7.631 -1.5515 -2.1842 -0.8325
  180SOPE  C21420556   5.435   1.070   7.666  0.2417 -0.0602  0.1641
  180SOPE  H14R20557   5.408   1.079   7.773 -2.5785  0.4211 -0.5185
  180SOPE  H14S20558   5.536   1.029   7.644 -0.0852 -0.1627 -1.2519
  180SOPE  C21520559   5.334   0.976   7.604  0.6171  0.3030 -0.0723
  180SOPE  H15R20560   5.368   0.971   7.498  1.8038 -1.5074  0.3521
  180SOPE  H15S20561   5.236   1.029   7.612  0.2703 -0.1366 -1.1343
  180SOPE  C21620562   5.325   0.839   7.680 -0.3351 -0.6015 -0.2583
  180SOPE  H16R20563   5.246   0.779   7.628 -0.6995 -0.7248  0.4257
  180SOPE  H16S20564   5.276   0.856   7.778 -0.4546  3.2908 -0.8596
  180SOPE  C21720565   5.454   0.758   7.699  0.5371  0.3595  0.2033
  180SOPE  H17R20566   5.436   0.673   7.769  1.9148 -0.3864 -0.2946
  180SOPE  H17S20567   5.527   0.834   7.733  0.4792  1.3345 -1.6768
  180SOPE  C21820568   5.501   0.702   7.566 -0.0087  0.1599 -0.7830
  180SOPE  H18R20569   5.430   0.638   7.511 -0.1978  0.3318 -0.7391
  180SOPE  H18S20570   5.588   0.635   7.580 -0.0730 -0.1963 -2.0093
  180SOPE  H18T20571   5.525   0.780   7.490  2.0311  0.7350  0.3551
  180SOPE   C3320572   5.496   1.261   6.921  0.3214 -0.2232 -0.3742
  180SOPE   H3X20573   5.562   1.191   6.865  2.7222  0.4109  1.4778
  180SOPE   H3Y20574   5.390   1.237   6.901 -0.1094  3.3343 -3.6726
  180SOPE   C3420575   5.535   1.239   7.066  0.3692  0.3693  0.5118
  180SOPE   H4X20576   5.500   1.139   7.101 -2.6110  1.5304  1.1546
  180SOPE   H4Y20577   5.502   1.321   7.132  4.1055  2.2923  0.2328
  180SOPE   C3520578   5.685   1.229   7.079  0.4980  0.3176  0.9031
  180SOPE   H5X20579   5.726   1.313   7.020 -0.7558 -0.0424 -0.5459
  180SOPE   H5Y20580   5.731   1.146   7.021  0.7377  0.3944  0.9819
  180SOPE   C3620581   5.732   1.212   7.222 -1.0703 -0.0517  0.0597
  180SOPE   H6X20582   5.682   1.126   7.271 -0.5518 -0.3315  0.0975
  180SOPE   H6Y20583   5.699   1.308   7.269  0.1326  1.3007 -1.7335
  180SOPE   C3720584   5.878   1.189   7.243  0.8777 -0.0140 -0.9886
  180SOPE   H7X20585   5.926   1.286   7.220  1.2802  0.4316  1.4586
  180SOPE   H7Y20586   5.915   1.112   7.172 -0.7036 -1.3394 -0.4585
  180SOPE   C3820587   5.911   1.149   7.388 -0.2254 -0.1948 -0.2319
  180SOPE   H8X20588   6.016   1.112   7.395  0.3429  1.0292 -1.6129
  180SOPE   H8Y20589   5.835   1.073   7.414  0.0785 -0.6355 -0.6071
  180SOPE   C3920590   5.907   1.266   7.484 -0.2852 -0.2704 -0.9551
  180SOPE   H9X20591   5.812   1.322   7.469 -1.2663 -1.5046  0.3760
  180SOPE   H9Y20592   5.991   1.333   7.457 -0.6202  0.1535 -0.9629
  180SOPE  C31020593   5.920   1.228   7.627  0.6625  0.2669  0.0456
  180SOPE  H10X20594   6.021   1.186   7.649  1.4230  1.7303 -0.5219
  180SOPE  H10Y20595   5.844   1.149   7.645  1.3877 -0.1712  1.3124
  180SOPE  C31120596   5.911   1.352   7.719  0.1542  0.5003  0.4054
  180SOPE  H11X20597   5.818   1.405   7.688 -0.6608 -0.2138  1.5854
  180SOPE  H11Y20598   6.004   1.412   7.706  0.5098 -0.2688 -0.7301
  180SOPE  C31220599   5.891   1.303   7.865  0.6700 -0.1732  0.3503
  180SOPE  H12X20600   5.971   1.230   7.890  1.3723  0.4345 -0.0707
  180SOPE  H12Y20601   5.785   1.269   7.867 -0.2902  1.9841 -3.6358
  180SOPE  C31320602   5.901   1.423   7.963  0.1596  0.7108 -0.1647
  180SOPE  H13X20603   5.811   1.483   7.937 -1.5640 -1.3651  0.6622
  180SOPE  H13Y20604   6.000   1.467   7.939  1.1677 -0.3624  1.7687
  180SOPE  C31420605   5.900   1.367   8.108 -0.5314 -0.3492  0.2078
  180SOPE  H14X20606   5.830   1.282   8.104 -0.1873 -0.7011  1.3637
  180SOPE  H14Y20607   5.858   1.444   8.176 -0.1866 -0.7989  0.9430
  180SOPE  C31520608   6.045   1.330   8.143 -0.4535 -0.0867  0.4140
  180SOPE  H15X20609   6.114   1.417   8.138 -1.4257  0.7615  1.3977
  180SOPE  H15Y20610   6.087   1.260   8.067 -0.0290  0.6169 -0.0060
  180SOPE  C31620611   6.056   1.269   8.276 -0.2945  0.0267 -0.2908
  180SOPE  H16X20612   6.041   1.344   8.358  0.1939 -1.0889  0.8541
  180SOPE  H16Y20613   6.160   1.239   8.300 -0.7951 -0.8225  0.9480
  180SOPE  C31720614   5.959   1.147   8.313 -0.4913 -0.3226  0.7414
  180SOPE  H17X20615   5.853   1.175   8.329  0.0197  3.0406 -0.7697
  180SOPE  H17Y20616   5.990   1.098   8.407  1.0322 -2.0164 -0.5603
  180SOPE  C31820617   5.953   1.031   8.213 -0.3501 -1.4691 -0.0267
  180SOPE  H18X20618   5.916   1.062   8.112 -2.4003  0.6391  1.2579
  180SOPE  H18Y20619   5.887   0.958   8.264 -0.3158 -2.0998 -0.8528
  180SOPE  H18Z20620   6.058   0.996   8.215  0.3834  0.5524  2.3199
  181SOPE     N20621   1.220   4.489   6.369  0.1278 -0.1387  0.1431
  181SOPE   HN120622   1.141   4.478   6.435 -0.7579  0.2424 -0.8177
  181SOPE   HN220623   1.181   4.505   6.274  1.2048 -1.8528 -0.6293
  181SOPE   HN320624   1.286   4.412   6.349 -2.7109 -2.4342 -1.1361
  181SOPE   C1220625   1.290   4.612   6.423 -0.4157 -0.0426  0.9088
  181SOPE  H12A20626   1.390   4.605   6.377  0.2756 -1.5094  2.5337
  181SOPE  H12B20627   1.302   4.599   6.533  0.3723  0.4367  0.8852
  181SOPE   C1120628   1.216   4.738   6.384  0.7863  0.7167 -0.3631
  181SOPE  H11A20629   1.278   4.816   6.432 -0.4579  0.6744  1.4002
  181SOPE  H11B20630   1.116   4.732   6.431  1.0383 -1.0185  0.0295
  181SOPE     P20631   1.158   4.891   6.182  0.1629  0.2780  0.1173
  181SOPE   O1320632   1.120   4.874   6.038 -0.0962 -0.1287  0.3106
  181SOPE   O1420633   1.260   4.995   6.213  0.1771  0.2746 -0.2382
  181SOPE   O1220634   1.212   4.757   6.241 -0.0372 -0.1049 -0.1411
  181SOPE   O1120635   1.018   4.915   6.251 -0.3074 -0.5054 -0.3331
  181SOPE    C120636   0.995   5.025   6.334  0.3047 -0.0003 -0.6460
  181SOPE    HA20637   0.890   5.024   6.370 -0.0202  0.4028 -1.5541
  181SOPE    HB20638   1.006   5.120   6.278 -0.0360  0.7171  0.4572
  181SOPE    C220639   1.081   5.040   6.467 -0.4441  0.5124 -0.6288
  181SOPE    HS20640   1.190   5.032   6.447  0.2145 -0.4852  2.7095
  181SOPE   O2120641   1.034   4.938   6.563  0.0597 -0.8069 -0.2118
  181SOPE   C2120642   1.112   4.905   6.671 -0.2685 -0.8459 -0.2341
  181SOPE   O2220643   1.230   4.933   6.681  0.6960 -0.2917  0.0314
  181SOPE   C2220644   1.036   4.820   6.767 -0.1666 -0.4469  0.1977
  181SOPE   H2R20645   1.070   4.714   6.760 -1.4203 -0.8130 -0.6453
  181SOPE   H2S20646   0.929   4.821   6.737  0.2964  2.2013 -1.7923
  181SOPE    C320647   1.070   5.181   6.540  0.4171 -0.7866  0.0774
  181SOPE    HX20648   0.962   5.195   6.560  0.3078 -2.4295  0.7640
  181SOPE    HY20649   1.114   5.256   6.470  0.0293 -0.7331 -0.1127
  181SOPE   O3120650   1.137   5.190   6.677  0.6137  0.0374  0.8905
  181SOPE   C3120651   1.270   5.209   6.674 -0.0226 -0.5112 -0.7869
  181SOPE   O3220652   1.335   5.220   6.574 -0.5980 -0.2718 -0.5482
  181SOPE   C3220653   1.313   5.253   6.817 -0.5450 -0.2949 -0.3351
  181SOPE   H2X20654   1.225   5.265   6.884 -1.7147  0.3293 -1.9268
  181SOPE   H2Y20655   1.347   5.358   6.803  2.3244 -1.4167 -2.6347
  181SOPE   C2320656   1.042   4.860   6.912 -0.3464  0.6007  0.4352
  181SOPE   H3R20657   1.015   4.967   6.918  2.0269  1.4334 -1.8241
  181SOPE   H3S20658   1.144   4.864   6.956 -0.6043  1.8781  0.9544
  181SOPE   C2420659   0.949   4.785   7.012  0.3331 -0.0689 -0.9549
  181SOPE   H4R20660   0.948   4.853   7.100 -0.4249 -0.4753 -0.6416
  181SOPE   H4S20661   0.844   4.775   6.976 -0.6751  0.6652  1.5528
  181SOPE   C2520662   1.002   4.653   7.056 -0.1442 -0.3276 -0.2910
  181SOPE   H5R20663   0.969   4.579   6.980 -1.1198  0.4914 -0.6922
  181SOPE   H5S20664   1.113   4.640   7.061 -0.1415  0.1384  2.1567
  181SOPE   C2620665   0.970   4.612   7.201  0.3634 -0.3082  0.0649
  181SOPE   H6R20666   0.865   4.648   7.213  0.4126 -0.2280  0.2618
  181SOPE   H6S20667   0.955   4.502   7.194 -0.1501 -0.1436 -3.1126
  181SOPE   C2720668   1.064   4.674   7.304  0.1684 -0.0115  0.4234
  181SOPE   H7R20669   1.163   4.633   7.276 -0.5229 -1.1816 -0.3605
  181SOPE   H7S20670   1.073   4.785   7.299 -1.4638  0.2062  1.4163
  181SOPE   C2820671   1.032   4.631   7.448  0.1319  0.4449 -0.1802
  181SOPE   H8R20672   1.016   4.521   7.458 -0.1830  0.3185 -1.7610
  181SOPE   H8S20673   1.118   4.659   7.514  0.3936  0.1857 -0.4058
  181SOPE   C2920674   0.904   4.697   7.496 -0.5097  0.2458  0.0632
  181SOPE   H9120675   0.843   4.728   7.410  0.9360 -1.1009 -1.5408
  181SOPE  C21020676   0.877   4.720   7.626  0.2739 -0.6183  0.2857
  181SOPE  H10120677   0.782   4.773   7.645  0.7621  0.4349 -0.1303
  181SOPE  C21120678   0.965   4.686   7.738 -0.5250  0.0656  0.0180
  181SOPE  H11R20679   0.990   4.789   7.772  1.3237 -0.6360  0.9294
  181SOPE  H11S20680   1.046   4.615   7.709 -0.6175 -0.3929  0.8346
  181SOPE  C21220681   0.893   4.622   7.863 -0.0637  0.8148  0.3230
  181SOPE  H12R20682   0.856   4.523   7.828  0.9132  1.0164 -1.3705
  181SOPE  H12S20683   0.799   4.680   7.874 -0.4499 -0.0855  2.1959
  181SOPE  C21320684   0.985   4.610   7.990  0.4447  0.5924  0.2570
  181SOPE  H13R20685   0.998   4.714   8.025  0.4521  1.5716 -2.4467
  181SOPE  H13S20686   1.085   4.568   7.968 -0.0431  0.4651 -1.9354
  181SOPE  C21420687   0.913   4.518   8.101 -0.6313  0.4015  0.6030
  181SOPE  H14R20688   0.900   4.413   8.066  0.7045 -0.2514  2.0046
  181SOPE  H14S20689   0.812   4.562   8.116 -0.7956  0.8073 -1.3864
  181SOPE  C21520690   0.996   4.493   8.220 -0.3676  1.0673 -0.1944
  181SOPE  H15R20691   1.039   4.590   8.254 -2.2914  1.5697  0.9675
  181SOPE  H15S20692   1.093   4.440   8.209  0.0932  1.7830  0.3485
  181SOPE  C21620693   0.921   4.428   8.332  0.2198 -0.6407 -0.3306
  181SOPE  H16R20694   0.882   4.327   8.307 -0.6974 -0.3646 -0.0683
  181SOPE  H16S20695   0.824   4.476   8.356 -0.1818 -3.0351  3.6571
  181SOPE  C21720696   1.006   4.425   8.456 -0.7131  0.9270  0.3706
  181SOPE  H17R20697   1.080   4.506   8.440  2.1594 -1.6977 -0.6819
  181SOPE  H17S20698   1.075   4.339   8.451 -0.3621  1.2196  0.1302
  181SOPE  C21820699   0.930   4.451   8.585  0.1234 -0.0222  0.6424
  181SOPE  H18R20700   0.996   4.435   8.673  1.8353 -1.8738 -0.8708
  181SOPE  H18S20701   0.838   4.392   8.603 -0.8702  1.3642  0.2268
  181SOPE  H18T20702   0.901   4.558   8.585 -1.7033 -0.4272 -1.6080
  181SOPE   C3320703   1.406   5.157   6.880  0.5171  0.6894 -0.2703
  181SOPE   H3X20704   1.510   5.151   6.842  0.6943 -0.2986  0.3466
  181SOPE   H3Y20705   1.361   5.056   6.864  0.4430  0.7451 -0.4165
  181SOPE   C3420706   1.427   5.175   7.033 -0.3064  0.2097  0.5090
  181SOPE   H4X20707   1.353   5.244   7.080  1.3726  1.8918  0.8326
  181SOPE   H4Y20708   1.525   5.224   7.053 -0.3599  0.4279  0.2344
  181SOPE   C3520709   1.408   5.046   7.106  0.1597  0.1680  0.3288
  181SOPE   H5X20710   1.477   4.963   7.078 -2.5237 -2.3506  0.6876
  181SOPE   H5Y20711   1.307   5.007   7.078  0.1585  1.1242 -1.1098
  181SOPE   C3620712   1.407   5.055   7.262  0.0653  0.2665 -0.1121
  181SOPE   H6X20713   1.352   5.149   7.287 -2.3665 -1.0921 -0.1206
  181SOPE   H6Y20714   1.507   5.058   7.311 -1.0646  0.3808  2.3550
  181SOPE   C3720715   1.330   4.940   7.326  0.1559 -0.1885  0.2059
  181SOPE   H7X20716   1.408   4.861   7.326  0.2247 -0.1218  0.5459
  181SOPE   H7Y20717   1.245   4.917   7.259 -0.0743 -1.0454  0.7771
  181SOPE   C3820718   1.281   4.975   7.468 -0.4047  0.0680  0.1943
  181SOPE   H8X20719   1.198   4.902   7.478 -2.1143  1.8869  0.0314
  181SOPE   H8Y20720   1.235   5.077   7.470 -1.2009 -0.2931  1.4336
  181SOPE   C3920721   1.382   4.975   7.581  0.6393  0.6024  0.4900
  181SOPE   H9X20722   1.436   5.072   7.574 -2.1177  2.5748  3.6260
  181SOPE   H9Y20723   1.448   4.886   7.568  0.9982  0.8985  0.2531
  181SOPE  C31020724   1.310   4.968   7.719  0.8411  0.3658  0.2777
  181SOPE  H10X20725   1.269   4.865   7.731 -1.1163  0.6674 -2.5654
  181SOPE  H10Y20726   1.228   5.043   7.714 -0.2737 -0.7596  0.9507
  181SOPE  C31120727   1.399   5.034   7.833 -0.6602 -0.5857  0.3832
  181SOPE  H11X20728   1.403   5.144   7.819  0.5696 -0.2448  2.8954
  181SOPE  H11Y20729   1.502   4.991   7.828  0.8315  2.8056 -1.4265
  181SOPE  C31220730   1.337   5.012   7.972  0.3233 -0.3070 -0.0886
  181SOPE  H12X20731   1.310   4.904   7.971  2.7258 -0.9771 -2.2423
  181SOPE  H12Y20732   1.246   5.075   7.984 -0.6847 -1.8822  1.0179
  181SOPE  C31320733   1.431   5.037   8.094  0.3939  0.3774  0.5206
  181SOPE  H13X20734   1.445   5.145   8.117  3.9446  0.0038  0.6905
  181SOPE  H13Y20735   1.530   4.995   8.064  0.4499  2.1304 -2.0784
  181SOPE  C31420736   1.403   4.960   8.222  0.5212 -0.4672  0.0692
  181SOPE  H14X20737   1.496   4.952   8.282  1.1536 -2.2362 -1.0814
  181SOPE  H14Y20738   1.364   4.859   8.199  0.8486 -0.7709  0.8303
  181SOPE  C31520739   1.287   5.029   8.296 -0.3380  0.5360  0.3223
  181SOPE  H15X20740   1.208   5.040   8.219 -0.0987 -0.6560 -0.1187
  181SOPE  H15Y20741   1.307   5.135   8.321 -1.2239  0.5701  0.9418
  181SOPE  C31620742   1.233   4.949   8.420  0.2892  0.4279 -0.1569
  181SOPE  H16X20743   1.310   4.955   8.500 -0.2615 -0.7903  0.4857
  181SOPE  H16Y20744   1.221   4.844   8.386 -0.8122  0.8924 -1.2609
  181SOPE  C31720745   1.097   4.990   8.464 -0.2445 -0.3007 -0.0331
  181SOPE  H17X20746   1.016   4.985   8.388  0.2523  2.3663 -0.8267
  181SOPE  H17Y20747   1.100   5.099   8.482  0.4450 -0.2616 -0.3429
  181SOPE  C31820748   1.062   4.923   8.602 -0.1251 -0.6880 -0.2835
  181SOPE  H18X20749   0.994   4.836   8.592  0.0327 -1.2585  2.6476
  181SOPE  H18Y20750   1.018   5.011   8.653 -0.5414 -1.1664  0.1918
  181SOPE  H18Z20751   1.156   4.901   8.657  0.3438  0.1099 -0.7539
  182SOPE     N20752   6.755   5.666   6.382 -0.2895 -0.3066  0.2746
  182SOPE   HN120753   6.833   5.668   6.313 -0.2777 -0.1902  0.2897
  182SOPE   HN220754   6.735   5.569   6.412 -0.9405 -1.1623 -2.6867
  182SOPE   HN320755   6.681   5.708   6.322  0.6178  0.1112 -0.5887
  182SOPE   C1220756   6.795   5.747   6.500  0.1109  0.1858 -0.0543
  182SOPE  H12A20757   6.882   5.702   6.552 -1.2071  0.3158  2.3960
  182SOPE  H12B20758   6.704   5.739   6.565 -2.0673 -0.0165 -2.9186
  182SOPE   C1120759   6.806   5.892   6.456 -0.5096 -0.4698  1.0200
  182SOPE  H11A20760   6.879   5.893   6.372 -0.5964 -4.2571  0.6898
  182SOPE  H11B20761   6.843   5.961   6.534 -0.7619  0.0341  0.7029
  182SOPE     P20762   6.658   6.096   6.373  0.0088 -0.0847 -0.2918
  182SOPE   O1320763   6.520   6.126   6.351  0.2076  0.0606  0.0202
  182SOPE   O1420764   6.744   6.128   6.256 -0.1806 -0.3157 -0.0250
  182SOPE   O1220765   6.681   5.941   6.407  0.5199  0.2788  0.0607
  182SOPE   O1120766   6.707   6.177   6.501 -0.3218 -0.0079 -0.4216
  182SOPE    C120767   6.689   6.316   6.524 -0.0022 -0.1146  0.3767
  182SOPE    HA20768   6.603   6.333   6.592  0.7840  1.5614  1.0405
  182SOPE    HB20769   6.667   6.371   6.430 -0.9918 -0.4661  0.4011
  182SOPE    C220770   6.821   6.367   6.585 -0.3332  0.0262 -0.7063
  182SOPE    HS20771   6.901   6.336   6.514  0.9047  2.3880 -0.4371
  182SOPE   O2120772   6.834   6.318   6.718  0.2345 -0.0210 -0.2756
  182SOPE   C2120773   6.908   6.209   6.725  1.5196  0.7859 -0.1833
  182SOPE   O2220774   6.953   6.150   6.629 -0.1966 -0.1700 -0.0019
  182SOPE   C2220775   6.934   6.169   6.866  0.3193  0.3746  0.1613
  182SOPE   H2R20776   6.843   6.122   6.908  1.1102  0.1519  1.6705
  182SOPE   H2S20777   6.966   6.253   6.930 -0.1040 -0.9605  2.2053
  182SOPE    C320778   6.820   6.525   6.585  0.3421 -0.8132 -0.2682
  182SOPE    HX20779   6.728   6.555   6.639  0.4638  0.4242 -0.7148
  182SOPE    HY20780   6.828   6.549   6.477 -1.2824  1.0616 -0.0171
  182SOPE   O3120781   6.931   6.583   6.654  0.4050 -0.4685 -0.3165
  182SOPE   C3120782   6.932   6.722   6.642 -0.5198  0.3509 -0.4527
  182SOPE   O3220783   6.855   6.783   6.570  0.3606 -0.0381  0.2528
  182SOPE   C3220784   7.041   6.780   6.731 -0.4638  0.3266  0.6466
  182SOPE   H2X20785   7.079   6.871   6.680  0.0501 -0.9949 -1.4662
  182SOPE   H2Y20786   7.124   6.707   6.724 -0.9385 -0.0932 -0.9869
  182SOPE   C2320787   7.040   6.057   6.881  0.4473  0.3037  0.0817
  182SOPE   H3R20788   7.141   6.093   6.854  1.0856 -1.6399 -0.3226
  182SOPE   H3S20789   7.015   5.973   6.812 -0.3174  1.1044 -0.6388
  182SOPE   C2420790   7.036   6.002   7.018  0.5180 -0.5236 -0.0695
  182SOPE   H4R20791   6.933   5.970   7.044 -0.2720 -0.1695 -2.5315
  182SOPE   H4S20792   7.100   5.911   7.021  2.0933  0.4514 -1.6660
  182SOPE   C2520793   7.100   6.099   7.127 -0.4055  0.6665 -0.6680
  182SOPE   H5R20794   7.210   6.091   7.116 -0.3829 -0.6208  0.2267
  182SOPE   H5S20795   7.063   6.204   7.124 -0.1703  0.7231 -2.6817
  182SOPE   C2620796   7.066   6.045   7.270 -0.1595  1.0982 -0.5668
  182SOPE   H6R20797   6.958   6.049   7.294  0.3179 -0.5418  2.4632
  182SOPE   H6S20798   7.088   5.936   7.275  0.1925  1.2215  1.6783
  182SOPE   C2720799   7.141   6.115   7.382 -0.2178 -0.4026  0.1065
  182SOPE   H7R20800   7.240   6.136   7.337 -0.1561 -2.4491 -0.8484
  182SOPE   H7S20801   7.092   6.210   7.412  0.0510 -0.7328  1.6582
  182SOPE   C2820802   7.156   6.030   7.505 -0.2254 -0.7239 -0.3820
  182SOPE   H8R20803   7.180   5.935   7.454 -1.1719 -0.6055 -1.0577
  182SOPE   H8S20804   7.252   6.050   7.557 -0.6139 -0.7582  0.3624
  182SOPE   C2920805   7.040   6.036   7.601  0.8146 -0.6329  0.5886
  182SOPE   H9120806   7.035   6.131   7.656  1.1325  0.0672 -0.5548
  182SOPE  C21020807   6.952   5.937   7.622 -0.3034 -0.5278 -0.2309
  182SOPE  H10120808   6.867   5.961   7.688  0.5406  0.8531  0.3953
  182SOPE  C21120809   6.945   5.799   7.560 -0.1084  0.0204  0.4249
  182SOPE  H11R20810   6.945   5.713   7.630 -0.0552  1.7528  2.6470
  182SOPE  H11S20811   7.038   5.779   7.502 -0.4989 -2.5124  0.5635
  182SOPE  C21220812   6.834   5.807   7.457  0.0481  0.3738  0.4406
  182SOPE  H12R20813   6.849   5.730   7.378 -0.7853  4.7147 -4.4897
  182SOPE  H12S20814   6.819   5.900   7.399 -1.1440  1.1221  1.9089
  182SOPE  C21320815   6.699   5.770   7.517 -0.2637 -0.2239  0.2637
  182SOPE  H13R20816   6.659   5.859   7.569 -1.6862  0.4296 -1.8559
  182SOPE  H13S20817   6.711   5.694   7.597 -0.1138  0.8847  1.3204
  182SOPE  C21420818   6.586   5.723   7.420 -0.2283 -0.2925  0.7124
  182SOPE  H14R20819   6.491   5.714   7.477 -1.1275 -0.6377 -0.7872
  182SOPE  H14S20820   6.621   5.624   7.383  0.5781  0.0830  0.4411
  182SOPE  C21520821   6.574   5.821   7.300  0.0983 -0.1741  0.0280
  182SOPE  H15R20822   6.659   5.802   7.230 -1.6073  2.0143 -2.8586
  182SOPE  H15S20823   6.584   5.926   7.335  0.8837 -0.1069 -0.3773
  182SOPE  C21620824   6.441   5.801   7.222 -0.1340 -0.5823 -0.1548
  182SOPE  H16R20825   6.425   5.692   7.211  0.9036 -0.6631 -1.0045
  182SOPE  H16S20826   6.447   5.847   7.122 -1.7567  1.3791  0.5870
  182SOPE  C21720827   6.323   5.857   7.293 -0.6557  0.2398  0.5642
  182SOPE  H17R20828   6.320   5.806   7.392  2.3034  0.3785  0.8158
  182SOPE  H17S20829   6.232   5.824   7.237 -0.3506 -2.6339  1.5638
  182SOPE  C21820830   6.317   6.008   7.308  0.0450  0.2606 -0.0377
  182SOPE  H18R20831   6.375   6.049   7.394 -3.2758  2.8744  1.1990
  182SOPE  H18S20832   6.214   6.046   7.322  0.6810  2.3395 -0.6873
  182SOPE  H18T20833   6.364   6.053   7.218  0.5065  0.5477  0.3385
  182SOPE   C3320834   6.981   6.817   6.869 -0.1028 -0.0343  0.3023
  182SOPE   H3X20835   6.875   6.848   6.855 -0.6231 -2.0060 -0.4453
  182SOPE   H3Y20836   7.047   6.896   6.910  2.3424  0.8827 -4.6097
  182SOPE   C3420837   6.970   6.695   6.957  0.5467  0.8980 -0.6865
  182SOPE   H4X20838   7.066   6.638   6.954 -0.4823 -1.0591  1.0105
  182SOPE   H4Y20839   6.884   6.629   6.933  2.3815 -1.2957 -1.5587
  182SOPE   C3520840   6.947   6.742   7.105  0.3163  0.0058  0.0223
  182SOPE   H5X20841   6.846   6.789   7.101 -0.2950 -1.2977 -0.9488
  182SOPE   H5Y20842   7.023   6.821   7.124  0.1613 -0.0028  0.7056
  182SOPE   C3620843   6.950   6.625   7.203 -0.3487 -0.1808 -0.2434
  182SOPE   H6X20844   7.053   6.583   7.210 -0.1449  0.2823 -0.4344
  182SOPE   H6Y20845   6.884   6.547   7.160  1.4339 -2.9382  1.6851
  182SOPE   C3720846   6.897   6.672   7.338 -0.3672 -0.1230  0.1646
  182SOPE   H7X20847   6.792   6.705   7.325 -0.0064  0.7907 -0.6012
  182SOPE   H7Y20848   6.967   6.753   7.371 -0.4739  2.0231 -4.1646
  182SOPE   C3820849   6.879   6.570   7.452 -0.4940  0.1635  0.2567
  182SOPE   H8X20850   6.973   6.511   7.455 -0.6734 -0.1061  0.6362
  182SOPE   H8Y20851   6.792   6.505   7.427 -1.3669 -0.4103  4.2436
  182SOPE   C3920852   6.861   6.626   7.588  0.5701 -0.6829  0.5420
  182SOPE   H9X20853   6.756   6.602   7.614  0.5086 -2.0073 -0.7965
  182SOPE   H9Y20854   6.876   6.736   7.579  1.0638 -0.5172  2.8452
  182SOPE  C31020855   6.960   6.585   7.698  0.3056  0.5332  0.6478
  182SOPE  H10X20856   7.064   6.621   7.682 -0.0984  1.8468  0.8854
  182SOPE  H10Y20857   6.965   6.474   7.689  3.6179  0.5305  1.3753
  182SOPE  C31120858   6.906   6.640   7.827  0.6254 -0.3650  0.7713
  182SOPE  H11X20859   6.799   6.609   7.826  0.6587 -0.5447 -1.6622
  182SOPE  H11Y20860   6.905   6.751   7.837 -0.9539 -0.2780 -0.0479
  182SOPE  C31220861   6.956   6.560   7.946 -0.9951  0.4863 -0.5065
  182SOPE  H12X20862   7.066   6.544   7.949 -0.8773  0.9138 -1.9267
  182SOPE  H12Y20863   6.902   6.465   7.931  0.3393 -0.1498 -1.5076
  182SOPE  C31320864   6.907   6.623   8.076 -0.2202 -0.1884  0.1653
  182SOPE  H13X20865   6.796   6.632   8.073 -0.1235  0.9066 -0.2054
  182SOPE  H13Y20866   6.932   6.730   8.089 -0.2429 -0.0954 -0.5394
  182SOPE  C31420867   6.967   6.549   8.196  0.1708  0.0909 -0.2910
  182SOPE  H14X20868   7.077   6.557   8.181  0.2893  1.0355  0.9530
  182SOPE  H14Y20869   6.941   6.441   8.187  2.3087 -0.5020  0.0011
  182SOPE  C31520870   6.940   6.608   8.340 -0.3762  0.0798 -0.1739
  182SOPE  H15X20871   6.830   6.592   8.350 -0.1273 -3.0883 -1.3200
  182SOPE  H15Y20872   6.972   6.714   8.338 -0.7428  0.1815 -1.4546
  182SOPE  C31620873   7.015   6.532   8.448 -0.0193 -0.1918  0.1577
  182SOPE  H16X20874   7.125   6.538   8.433 -0.1622 -0.4716 -1.0958
  182SOPE  H16Y20875   6.990   6.425   8.436  1.6265 -0.6376  0.4399
  182SOPE  C31720876   6.988   6.582   8.591  0.2514 -0.2863 -0.6693
  182SOPE  H17X20877   7.047   6.526   8.667  2.2162 -0.4469 -2.2473
  182SOPE  H17Y20878   6.885   6.559   8.626 -0.1923 -0.3363 -1.9778
  182SOPE  C31820879   7.013   6.735   8.621  0.5943  0.1705 -0.0684
  182SOPE  H18X20880   6.952   6.792   8.547 -0.1976 -0.0966  0.3644
  182SOPE  H18Y20881   7.118   6.771   8.621  0.9305 -0.7550  0.9550
  182SOPE  H18Z20882   6.974   6.760   8.722  0.8182  0.4977 -0.0625
  183SOPE     N20883   1.472   3.757   6.263  0.2278 -0.0774  0.5209
  183SOPE   HN120884   1.559   3.770   6.319  1.0818  2.1607 -1.1791
  183SOPE   HN220885   1.393   3.784   6.326 -1.8923 -0.7055 -1.7178
  183SOPE   HN320886   1.454   3.657   6.238  0.1365  0.3032 -1.0225
  183SOPE   C1220887   1.469   3.846   6.144 -0.7611 -0.0457 -0.1634
  183SOPE  H12A20888   1.367   3.845   6.098 -0.5058  0.4945 -0.7588
  183SOPE  H12B20889   1.527   3.803   6.059 -1.5019 -1.6286  0.0893
  183SOPE   C1120890   1.519   3.991   6.162  0.2662 -0.0462 -0.0021
  183SOPE  H11A20891   1.525   4.044   6.064 -2.1693 -0.3697 -0.3950
  183SOPE  H11B20892   1.622   3.994   6.203  1.0949  2.2249 -2.0544
  183SOPE     P20893   1.466   4.197   6.318  0.2845 -0.1617  0.1650
  183SOPE   O1320894   1.371   4.302   6.268 -0.1737 -0.5913  0.2136
  183SOPE   O1420895   1.615   4.222   6.307 -0.4625  0.2196  0.4875
  183SOPE   O1220896   1.434   4.063   6.245 -0.1911  0.4739  0.0324
  183SOPE   O1120897   1.430   4.164   6.467  0.0630  0.4320 -0.1280
  183SOPE    C120898   1.527   4.095   6.550  0.4961  0.4635 -0.3500
  183SOPE    HA20899   1.622   4.074   6.496  1.0882  1.1534  0.3939
  183SOPE    HB20900   1.479   4.006   6.597  0.2779  0.5826 -0.3475
  183SOPE    C220901   1.574   4.180   6.668  0.2145 -0.2020 -0.6294
  183SOPE    HS20902   1.612   4.114   6.749  1.5578  2.6991  1.2899
  183SOPE   O2120903   1.467   4.261   6.718  0.2848  0.7214 -0.4743
  183SOPE   C2120904   1.365   4.189   6.765 -0.3959  0.1435  0.6863
  183SOPE   O2220905   1.373   4.078   6.811  0.7030  0.1734  0.2136
  183SOPE   C2220906   1.231   4.263   6.742  1.0155 -0.5469  0.5478
  183SOPE   H2R20907   1.211   4.277   6.634  1.6532 -1.0109  0.3640
  183SOPE   H2S20908   1.245   4.357   6.800  2.3319 -0.1721 -0.3341
  183SOPE    C320909   1.690   4.284   6.633 -0.0331  0.2009 -0.2157
  183SOPE    HX20910   1.639   4.357   6.567 -0.6776 -0.8724 -0.9176
  183SOPE    HY20911   1.767   4.229   6.575 -0.8631 -0.0496 -1.0958
  183SOPE   O3120912   1.749   4.338   6.750  0.4661 -0.2601  0.2266
  183SOPE   C3120913   1.845   4.263   6.807 -0.5680 -1.0663  0.9397
  183SOPE   O3220914   1.876   4.150   6.774 -0.8048  0.4310  1.0174
  183SOPE   C3220915   1.906   4.353   6.916  0.3929  0.0319  0.1039
  183SOPE   H2X20916   1.822   4.363   6.989 -0.8104  0.7055 -1.3330
  183SOPE   H2Y20917   1.906   4.454   6.871 -1.9575 -1.0409 -2.6340
  183SOPE   C2320918   1.111   4.192   6.813  0.4067 -0.2781 -0.1337
  183SOPE   H3R20919   1.095   4.090   6.773  2.0461 -0.1591 -1.1699
  183SOPE   H3S20920   1.014   4.245   6.798 -0.8626 -2.6307 -0.7651
  183SOPE   C2420921   1.131   4.189   6.971 -0.8634  0.1403 -0.0748
  183SOPE   H4R20922   1.214   4.121   7.000 -2.1080 -1.8240 -0.8844
  183SOPE   H4S20923   1.155   4.292   7.004  1.1944 -0.7560  1.4948
  183SOPE   C2520924   1.012   4.124   7.046  0.3278 -0.1711  0.8263
  183SOPE   H5R20925   0.919   4.180   7.021  0.3308 -0.3489  0.4076
  183SOPE   H5S20926   1.012   4.023   7.000  1.6920  0.3597 -0.4614
  183SOPE   C2620927   1.030   4.102   7.193 -0.4031 -0.0711  0.2257
  183SOPE   H6R20928   0.947   4.040   7.234 -0.4185 -1.3416 -1.6020
  183SOPE   H6S20929   1.115   4.032   7.202 -1.8037 -1.7675  1.0014
  183SOPE   C2720930   1.047   4.226   7.289 -0.4533 -0.2951  0.4145
  183SOPE   H7R20931   1.130   4.289   7.248  1.2543 -1.0900  2.4476
  183SOPE   H7S20932   0.959   4.294   7.285 -0.9333 -0.8209  1.7556
  183SOPE   C2820933   1.085   4.187   7.436 -0.0631 -0.7344  0.0425
  183SOPE   H8R20934   1.012   4.123   7.489 -0.8277 -0.6728 -0.9189
  183SOPE   H8S20935   1.164   4.111   7.417 -0.2793 -1.0967  0.5751
  183SOPE   C2920936   1.163   4.299   7.512  0.4258 -0.0731 -0.0537
  183SOPE   H9120937   1.250   4.344   7.462  1.3234  1.2825  2.5346
  183SOPE  C21020938   1.137   4.326   7.637 -0.5895 -0.1779  0.0724
  183SOPE  H10120939   1.200   4.398   7.689 -2.8207  1.4747  0.6475
  183SOPE  C21120940   1.031   4.260   7.729  0.1481  0.1333 -0.2899
  183SOPE  H11R20941   1.006   4.157   7.697  1.4030 -0.5427  0.8438
  183SOPE  H11S20942   0.937   4.320   7.727 -1.4002 -2.0480  2.0866
  183SOPE  C21220943   1.080   4.246   7.875  0.2815  0.4655  0.0769
  183SOPE  H12R20944   1.090   4.341   7.932  0.8400  0.3873  0.1089
  183SOPE  H12S20945   1.187   4.219   7.869  0.1886  0.1643 -0.3155
  183SOPE  C21320946   0.994   4.143   7.958  0.6757 -0.1032  0.0270
  183SOPE  H13R20947   0.997   4.046   7.903  1.3652  0.8507 -1.6972
  183SOPE  H13S20948   0.893   4.187   7.954  1.3655  1.4996 -0.5130
  183SOPE  C21420949   1.045   4.120   8.100 -0.9620  0.4479 -0.8827
  183SOPE  H14R20950   1.073   4.214   8.150  1.1074 -0.0677 -1.0033
  183SOPE  H14S20951   1.147   4.077   8.092 -0.0698  1.9304  1.5679
  183SOPE  C21520952   0.949   4.045   8.193  0.5484  0.8681 -0.6743
  183SOPE  H15R20953   0.925   3.947   8.146 -0.1918  0.3342  0.7497
  183SOPE  H15S20954   0.852   4.100   8.186  0.1202  0.2924  0.4922
  183SOPE  C21620955   0.993   4.016   8.336  0.0609  0.1571  0.3033
  183SOPE  H16R20956   0.996   4.114   8.389  0.5627 -0.4260  1.3722
  183SOPE  H16S20957   1.092   3.968   8.349  1.4707  2.9425  0.5905
  183SOPE  C21720958   0.905   3.914   8.414  0.3125  0.7208  0.2124
  183SOPE  H17R20959   0.968   3.873   8.496 -0.4919  1.0118  0.9915
  183SOPE  H17S20960   0.882   3.828   8.347 -0.6091  2.1112 -1.3250
  183SOPE  C21820961   0.789   3.986   8.468  0.9637 -0.0181  0.0876
  183SOPE  H18R20962   0.732   4.014   8.377  0.3361  1.2794  0.8549
  183SOPE  H18S20963   0.815   4.079   8.523 -1.1693  1.3797 -1.1094
  183SOPE  H18T20964   0.722   3.912   8.517 -2.1168  1.7885 -1.0657
  183SOPE   C3320965   2.040   4.312   6.977 -1.0597  0.7119 -0.2701
  183SOPE   H3X20966   2.117   4.337   6.900 -1.3362  1.0916 -0.4288
  183SOPE   H3Y20967   2.055   4.206   7.006 -0.4770  0.2828 -2.0205
  183SOPE   C3420968   2.081   4.393   7.100  0.6154 -0.0193  0.3806
  183SOPE   H4X20969   2.059   4.501   7.090  0.9151 -0.0187 -0.4038
  183SOPE   H4Y20970   2.189   4.376   7.118  0.3741  1.1021  3.2634
  183SOPE   C3520971   2.019   4.346   7.232 -0.6278  0.3576  0.0722
  183SOPE   H5X20972   2.060   4.243   7.245  0.3725  0.4161 -2.1512
  183SOPE   H5Y20973   1.909   4.337   7.218 -0.6487  0.6157  0.0843
  183SOPE   C3620974   2.055   4.428   7.354  0.3327  0.2891  0.8449
  183SOPE   H6X20975   2.007   4.528   7.344  1.5800  0.8765  0.5956
  183SOPE   H6Y20976   2.166   4.435   7.356  0.4050  0.0466 -0.8014
  183SOPE   C3720977   1.991   4.350   7.473 -0.2421 -0.3379 -0.3557
  183SOPE   H7X20978   2.015   4.242   7.459  0.2163 -0.5847  1.9728
  183SOPE   H7Y20979   1.884   4.377   7.467 -0.0967  0.5122  0.6992
  183SOPE   C3820980   2.028   4.418   7.612 -0.1816  0.7679 -0.1985
  183SOPE   H8X20981   2.037   4.529   7.611 -0.7897  0.8222  0.2719
  183SOPE   H8Y20982   2.124   4.375   7.650  0.0237  2.9031  1.9553
  183SOPE   C3920983   1.924   4.379   7.726 -0.0013 -0.2728  0.7811
  183SOPE   H9X20984   1.926   4.269   7.736 -0.7834 -0.4369 -0.5821
  183SOPE   H9Y20985   1.827   4.432   7.713  0.8836  1.8804  2.2373
  183SOPE  C31020986   1.963   4.434   7.862  0.1892  0.0208  0.7584
  183SOPE  H10X20987   1.939   4.542   7.870  0.6351  0.3328 -1.4168
  183SOPE  H10Y20988   2.071   4.412   7.878  0.1626 -0.9769 -0.2489
  183SOPE  C31120989   1.890   4.370   7.977  0.6830  0.1428  0.3259
  183SOPE  H11X20990   1.901   4.259   7.970  0.6848  0.2060 -0.8540
  183SOPE  H11Y20991   1.783   4.400   7.973  0.5216 -0.4776 -2.1180
  183SOPE  C31220992   1.952   4.404   8.111 -0.5708 -0.9330  0.5658
  183SOPE  H12X20993   2.056   4.364   8.114  0.4254  1.4396  0.0981
  183SOPE  H12Y20994   1.897   4.353   8.192 -1.2596 -4.0221 -1.6936
  183SOPE  C31320995   1.938   4.554   8.138  0.4033 -0.2994  0.0404
  183SOPE  H13X20996   1.843   4.584   8.088  0.1040 -0.9420  0.2174
  183SOPE  H13Y20997   2.011   4.616   8.082  1.0271 -1.9946 -1.1127
  183SOPE  C31420998   1.932   4.583   8.293  0.2861 -0.5005  0.5817
  183SOPE  H14X20999   2.031   4.561   8.336  1.1813 -0.9517 -1.5724
  183SOPE  H14Y21000   1.853   4.518   8.338  0.2586 -1.0463 -0.2215
  183SOPE  C31521001   1.898   4.726   8.324  0.2961 -0.0894  0.2187
  183SOPE  H15X21002   1.810   4.761   8.266 -2.7963 -2.7588  2.8720
  183SOPE  H15Y21003   1.982   4.796   8.305 -2.4946  3.8304  1.1150
  183SOPE  C31621004   1.854   4.757   8.473  0.4961 -0.0068  1.0968
  183SOPE  H16X21005   1.767   4.690   8.492 -0.5224  1.2869  1.1804
  183SOPE  H16Y21006   1.813   4.860   8.465  1.6184  0.3848  0.2261
  183SOPE  C31721007   1.957   4.765   8.583  0.1736  0.4903  0.4155
  183SOPE  H17X21008   2.048   4.821   8.551  0.1735  0.3037  0.0860
  183SOPE  H17Y21009   1.988   4.660   8.604 -0.2449 -0.0242 -1.3873
  183SOPE  C31821010   1.905   4.837   8.704  0.6290 -0.2909  0.7866
  183SOPE  H18X21011   1.913   4.948   8.702 -1.7735 -0.0665 -0.0147
  183SOPE  H18Y21012   1.962   4.808   8.795 -0.2714  0.2270  1.5304
  183SOPE  H18Z21013   1.801   4.801   8.721  0.0128  0.9287 -0.2187
  184SOPE     N21014   6.476   3.185   5.807 -0.2060 -0.2407 -0.0885
  184SOPE   HN121015   6.377   3.158   5.790 -0.8300  0.4945  2.0321
  184SOPE   HN221016   6.543   3.144   5.739  0.5115 -3.0599  2.1223
  184SOPE   HN321017   6.497   3.151   5.903 -1.7569 -1.7109 -0.2127
  184SOPE   C1221018   6.500   3.336   5.784  0.0382  0.1438 -0.1443
  184SOPE  H12A21019   6.502   3.352   5.674 -0.1011 -0.1484 -0.1924
  184SOPE  H12B21020   6.600   3.356   5.827  0.8879 -0.0763 -1.9179
  184SOPE   C1121021   6.381   3.407   5.847 -0.1262 -0.1695  0.3265
  184SOPE  H11A21022   6.288   3.364   5.804  0.6581 -0.4138 -1.1896
  184SOPE  H11B21023   6.388   3.513   5.815 -1.1087 -0.9044 -2.6069
  184SOPE     P21024   6.262   3.459   6.080  0.3277  0.1055 -0.3902
  184SOPE   O1321025   6.130   3.397   6.068  0.6513  0.1594  0.1769
  184SOPE   O1421026   6.256   3.600   6.057  0.2795  0.3331 -0.2614
  184SOPE   O1221027   6.376   3.390   5.989  0.4806  0.0593 -0.7662
  184SOPE   O1121028   6.297   3.441   6.226 -0.0349  0.2357 -0.4305
  184SOPE    C121029   6.345   3.328   6.294  0.6668 -0.0922 -0.0401
  184SOPE    HA21030   6.397   3.270   6.215  1.1643 -1.9280  1.5685
  184SOPE    HB21031   6.263   3.257   6.316  0.3497  0.2257 -0.1798
  184SOPE    C221032   6.420   3.350   6.429 -0.0569  0.4317 -0.4997
  184SOPE    HS21033   6.474   3.256   6.456  0.7237  0.8795 -0.4618
  184SOPE   O2121034   6.313   3.371   6.527 -0.6196  0.2540  0.1022
  184SOPE   C2121035   6.336   3.342   6.654 -0.0426 -0.6468 -0.1328
  184SOPE   O2221036   6.430   3.293   6.711  0.1178  0.2013  0.1051
  184SOPE   C2221037   6.217   3.384   6.731  0.3603 -0.4113 -0.1645
  184SOPE   H2R21038   6.133   3.397   6.659  0.5122  0.8676 -0.1233
  184SOPE   H2S21039   6.233   3.490   6.759 -1.7150 -0.0574 -0.2060
  184SOPE    C321040   6.518   3.465   6.417  0.5578  0.5497 -0.6381
  184SOPE    HX21041   6.478   3.562   6.383  0.8747  0.2518 -1.9290
  184SOPE    HY21042   6.583   3.432   6.333  1.3489 -1.7655  0.7772
  184SOPE   O3121043   6.595   3.486   6.537 -0.3095 -0.0363 -0.2683
  184SOPE   C3121044   6.709   3.424   6.543 -0.1127 -0.0042  0.1249
  184SOPE   O3221045   6.755   3.348   6.462  0.3662 -0.5840 -0.1110
  184SOPE   C3221046   6.767   3.463   6.684  0.4043  0.5121  0.0297
  184SOPE   H2X21047   6.695   3.425   6.759  0.9262  0.5863  0.5887
  184SOPE   H2Y21048   6.764   3.574   6.695  0.1706  0.5758 -0.6933
  184SOPE   C2321049   6.172   3.295   6.851  0.0469 -0.2249  0.4723
  184SOPE   H3R21050   6.254   3.229   6.887 -0.8570 -1.4782  0.2962
  184SOPE   H3S21051   6.091   3.234   6.807 -1.0021  1.3728  0.1008
  184SOPE   C2421052   6.136   3.380   6.974 -0.3214 -0.1266 -0.3167
  184SOPE   H4R21053   6.231   3.434   6.995 -0.8167  1.5405 -1.9912
  184SOPE   H4S21054   6.054   3.451   6.952 -2.3131 -0.8998  3.7763
  184SOPE   C2521055   6.096   3.301   7.096 -0.3005  0.5343  0.5219
  184SOPE   H5R21056   5.986   3.304   7.110 -1.0527 -1.3438 -3.3962
  184SOPE   H5S21057   6.116   3.193   7.082  0.6901  0.6375  1.0480
  184SOPE   C2621058   6.160   3.349   7.224  0.2976  0.1629 -1.1987
  184SOPE   H6R21059   6.270   3.357   7.226  0.3418 -0.4081  0.5738
  184SOPE   H6S21060   6.132   3.455   7.243 -0.1518 -0.3679  1.6806
  184SOPE   C2721061   6.115   3.267   7.349  0.3116  0.3247  0.4508
  184SOPE   H7R21062   6.008   3.277   7.379 -0.6223 -2.3413 -1.6930
  184SOPE   H7S21063   6.139   3.163   7.320  1.5231  0.6341  0.2715
  184SOPE   C2821064   6.203   3.292   7.471 -0.0658 -0.2170 -0.1148
  184SOPE   H8R21065   6.310   3.275   7.446 -0.8834 -1.6957 -3.0585
  184SOPE   H8S21066   6.199   3.401   7.493 -1.9329 -0.1646 -0.4967
  184SOPE   C2921067   6.153   3.208   7.586  0.3720  0.3309 -0.2997
  184SOPE   H9121068   6.096   3.117   7.563 -0.4726  0.4279  1.3177
  184SOPE  C21021069   6.163   3.236   7.723 -0.2925  0.2280  0.6632
  184SOPE  H10121070   6.138   3.159   7.798  0.5717 -0.5426  0.1870
  184SOPE  C21121071   6.239   3.355   7.771 -0.2837 -0.4201 -0.3124
  184SOPE  H11R21072   6.230   3.443   7.704 -1.7284  0.2482  0.7126
  184SOPE  H11S21073   6.347   3.331   7.774 -0.6774 -2.2268  1.5616
  184SOPE  C21221074   6.196   3.414   7.906  0.3831 -0.0956  0.0955
  184SOPE  H12R21075   6.189   3.341   7.989 -1.6003  1.4765  1.4124
  184SOPE  H12S21076   6.092   3.451   7.892 -0.3463 -2.1191 -0.2635
  184SOPE  C21321077   6.307   3.509   7.947  0.2929  0.6091  0.1132
  184SOPE  H13R21078   6.339   3.577   7.865 -2.3330  0.6881 -0.9524
  184SOPE  H13S21079   6.399   3.453   7.975 -0.6170 -0.5210  0.9633
  184SOPE  C21421080   6.263   3.598   8.063 -0.3429  0.3154  0.2278
  184SOPE  H14R21081   6.215   3.526   8.133  1.3089 -1.6692 -0.5628
  184SOPE  H14S21082   6.194   3.675   8.024  1.9262  1.5933 -1.4688
  184SOPE  C21521083   6.374   3.663   8.142  0.3213 -0.1328  0.1107
  184SOPE  H15R21084   6.337   3.757   8.188 -0.3624  0.2142 -1.1000
  184SOPE  H15S21085   6.465   3.690   8.084  1.2945 -3.4041 -0.0585
  184SOPE  C21621086   6.417   3.572   8.252  0.6869  0.8358 -0.7435
  184SOPE  H16R21087   6.448   3.471   8.217 -0.1636 -0.4855  2.0506
  184SOPE  H16S21088   6.330   3.554   8.319  2.1027  0.8723  1.1656
  184SOPE  C21721089   6.531   3.610   8.338  0.7512 -0.1569 -0.5682
  184SOPE  H17R21090   6.495   3.699   8.393  3.0496 -0.4143  1.5664
  184SOPE  H17S21091   6.611   3.655   8.275 -1.2069  1.2839 -2.1849
  184SOPE  C21821092   6.591   3.506   8.433  0.5345 -0.8847 -0.0577
  184SOPE  H18R21093   6.667   3.456   8.370  0.7713 -1.0546  0.3544
  184SOPE  H18S21094   6.515   3.437   8.474  0.5366  1.1614  3.9230
  184SOPE  H18T21095   6.637   3.555   8.522  0.6086 -1.5757  0.2901
  184SOPE   C3321096   6.907   3.402   6.718  0.9933 -0.3156 -0.0838
  184SOPE   H3X21097   6.982   3.455   6.655  1.0920 -0.8168 -0.3904
  184SOPE   H3Y21098   6.916   3.296   6.688  1.2656 -1.0079  2.1987
  184SOPE   C3421099   6.933   3.408   6.870 -0.3000  0.0312  0.7573
  184SOPE   H4X21100   6.873   3.326   6.917 -1.3514 -0.6216 -1.5842
  184SOPE   H4Y21101   6.890   3.500   6.915  0.7354  1.0798 -0.3463
  184SOPE   C3521102   7.077   3.399   6.918 -0.3279 -0.3927 -0.5393
  184SOPE   H5X21103   7.126   3.498   6.902  4.1446 -2.3515 -0.4480
  184SOPE   H5Y21104   7.132   3.320   6.863 -2.9939 -2.0673 -1.0026
  184SOPE   C3621105   7.088   3.378   7.070 -0.2142 -0.3736  0.1521
  184SOPE   H6X21106   7.031   3.461   7.116 -0.9370 -1.2185  0.8234
  184SOPE   H6Y21107   7.195   3.381   7.099 -0.6074  0.2643  1.5900
  184SOPE   C3721108   7.027   3.241   7.114 -0.5057  0.2138 -0.1963
  184SOPE   H7X21109   7.062   3.169   7.036  1.9543 -0.0484  1.0479
  184SOPE   H7Y21110   6.916   3.239   7.106 -0.5190 -0.8023  0.0133
  184SOPE   C3821111   7.064   3.205   7.257 -0.0923 -0.3896 -0.0287
  184SOPE   H8X21112   7.172   3.181   7.265 -0.7054 -3.9224 -0.6300
  184SOPE   H8Y21113   7.017   3.112   7.296  2.1161 -1.3429  0.4878
  184SOPE   C3921114   7.027   3.318   7.356 -0.3522  0.6347 -0.0746
  184SOPE   H9X21115   6.916   3.322   7.362 -0.2603  1.2829  4.1503
  184SOPE   H9Y21116   7.066   3.415   7.318  0.5143 -0.5362 -2.3962
  184SOPE  C31021117   7.073   3.289   7.494 -0.4548  0.3093 -0.4552
  184SOPE  H10X21118   7.039   3.184   7.505  1.8985 -0.4913 -0.2251
  184SOPE  H10Y21119   7.016   3.362   7.555 -0.2776 -0.5110  0.7208
  184SOPE  C31121120   7.223   3.312   7.522 -0.2963  0.0395 -0.3778
  184SOPE  H11X21121   7.244   3.419   7.497 -1.9667  0.7410  1.0489
  184SOPE  H11Y21122   7.275   3.245   7.450 -1.3506 -1.9499  0.6634
  184SOPE  C31221123   7.252   3.294   7.672 -0.2331  0.4300  0.4890
  184SOPE  H12X21124   7.194   3.353   7.746 -1.2872  0.6052 -0.4427
  184SOPE  H12Y21125   7.357   3.324   7.691 -0.2903 -0.0363  1.5739
  184SOPE  C31321126   7.238   3.144   7.710  0.4989 -0.1076  0.5445
  184SOPE  H13X21127   7.310   3.085   7.650 -1.3523 -0.7106 -1.1845
  184SOPE  H13Y21128   7.138   3.102   7.685 -0.2706  1.7806  0.2433
  184SOPE  C31421129   7.263   3.134   7.857 -0.2833  0.4104 -0.3370
  184SOPE  H14X21130   7.356   3.181   7.895  2.4387 -2.5773 -2.6941
  184SOPE  H14Y21131   7.290   3.027   7.873  0.1523  0.1333 -2.5057
  184SOPE  C31521132   7.147   3.175   7.952 -0.1754  0.0625 -0.2583
  184SOPE  H15X21133   7.060   3.112   7.926 -0.2603  0.7851 -1.8354
  184SOPE  H15Y21134   7.116   3.280   7.934 -0.5060  0.1982  1.0276
  184SOPE  C31621135   7.178   3.155   8.094 -1.0638 -0.1768  0.1303
  184SOPE  H16X21136   7.235   3.240   8.137  1.4401 -1.0918 -1.1205
  184SOPE  H16Y21137   7.233   3.060   8.111 -0.2738  0.2387 -0.0291
  184SOPE  C31721138   7.055   3.140   8.183 -0.0851 -0.1334  0.4874
  184SOPE  H17X21139   6.988   3.227   8.167  0.5624 -0.0297 -1.9989
  184SOPE  H17Y21140   7.087   3.151   8.289 -1.1759 -3.8912  1.3681
  184SOPE  C31821141   6.977   3.007   8.162  0.3779  0.0595 -0.8845
  184SOPE  H18X21142   7.051   2.925   8.171  0.8709  0.6460  0.9364
  184SOPE  H18Y21143   6.941   2.999   8.057  0.1319 -2.1647 -0.6752
  184SOPE  H18Z21144   6.896   2.997   8.237 -0.1617  2.2829 -1.0804
  185SAPI   C1221145   4.424   2.348  11.021  0.1568 -0.9682 -0.3236
  185SAPI    H221146   4.321   2.390  11.026  0.6018  0.6194 -2.8243
  185SAPI    O221147   4.508   2.403  11.124  0.3625  0.0327 -0.6453
  185SAPI   HO221148   4.525   2.495  11.103 -0.9233  0.6082  0.6983
  185SAPI   C1321149   4.405   2.198  11.033 -0.8946 -0.1825  0.2716
  185SAPI    H321150   4.339   2.161  10.952 -0.0883  0.5137 -0.7171
  185SAPI    O321151   4.349   2.159  11.152  0.3929  0.1731 -0.0380
  185SAPI   HO321152   4.258   2.133  11.132  1.1768 -0.5602 -3.1773
  185SAPI   C1421153   4.544   2.132  11.003 -0.7180  0.2537 -0.9558
  185SAPI    H421154   4.619   2.163  11.079  0.5353 -1.1020 -1.5965
  185SAPI    O421155   4.541   1.990  11.006 -0.6198 -0.0040  0.7459
  185SAPI   HO421156   4.633   1.964  11.007 -0.3688  0.7756 -0.3234
  185SAPI   C1521157   4.604   2.175  10.867  0.1652  0.2128  0.4484
  185SAPI    H521158   4.536   2.133  10.790  0.2468 -0.8368  0.9377
  185SAPI    O521159   4.731   2.127  10.846  0.1333 -0.0437  0.2374
  185SAPI   HO521160   4.728   2.068  10.770  0.4374 -1.3355  1.1948
  185SAPI   C1621161   4.607   2.326  10.845 -0.2204  0.6486 -0.1673
  185SAPI    H621162   4.685   2.370  10.911  0.6965  0.4149 -1.0745
  185SAPI    O621163   4.649   2.356  10.712  0.7895 -0.3206  0.2900
  185SAPI   HO621164   4.745   2.362  10.718  1.1488 -2.9199 -1.1163
  185SAPI   C1121165   4.472   2.387  10.887  0.5048  0.0345 -0.1090
  185SAPI    H121166   4.391   2.350  10.821 -0.5103 -0.0800  1.1543
  185SAPI     P21167   4.359   2.639  10.871  0.1461 -0.0815  0.1760
  185SAPI   O1321168   4.369   2.709  10.998  0.2135  0.3416 -0.0398
  185SAPI   O1421169   4.232   2.577  10.838 -0.2417  0.3438  0.0557
  185SAPI   O1221170   4.479   2.529  10.868  0.2571 -1.0141 -0.2107
  185SAPI   O1121171   4.386   2.740  10.756  0.5600  0.5726  0.3493
  185SAPI    C121172   4.441   2.874  10.779 -0.0199  0.0921 -0.0415
  185SAPI    HA21173   4.349   2.934  10.797 -0.5666 -0.7971  0.1996
  185SAPI    HB21174   4.505   2.873  10.870 -0.7581 -0.7897  0.4775
  185SAPI    C221175   4.521   2.928  10.654  0.5723  0.0704  0.1437
  185SAPI    HS21176   4.523   3.039  10.656 -2.0698  0.1484  1.3592
  185SAPI   O2121177   4.454   2.883  10.533  0.1172 -0.8162 -0.0939
  185SAPI   C2121178   4.333   2.939  10.515  0.1208  0.0396 -0.3554
  185SAPI   O2221179   4.282   3.024  10.587 -0.0690 -0.1322  0.2615
  185SAPI   C2221180   4.261   2.876  10.390 -0.7214  0.1897 -0.7165
  185SAPI   H2R21181   4.322   2.901  10.301  1.8326  0.1327  0.9307
  185SAPI   H2S21182   4.266   2.767  10.409  1.7056  0.2610 -0.7213
  185SAPI    C321183   4.672   2.880  10.639 -0.8243  0.9811  0.5334
  185SAPI    HX21184   4.666   2.771  10.655  1.6275  0.8704  1.0040
  185SAPI    HY21185   4.733   2.919  10.723  0.6733  0.0324 -0.0743
  185SAPI   O3121186   4.732   2.908  10.511  0.1129 -0.3675  0.0683
  185SAPI   C3121187   4.779   3.034  10.485 -0.0650 -0.7106  0.0092
  185SAPI   O3221188   4.764   3.130  10.551  0.2519 -0.4968 -0.0547
  185SAPI   C3221189   4.869   3.026  10.353  0.1382  0.3492 -0.1756
  185SAPI   H2X21190   4.800   3.012  10.267  2.7122 -0.4413 -2.2462
  185SAPI   H2Y21191   4.938   2.939  10.359  2.2599  1.9958  0.6069
  185SAPI   C2321192   4.114   2.919  10.379 -0.7379  0.1553 -0.2695
  185SAPI   H3R21193   4.132   3.011  10.319  3.5002 -0.0096  0.3967
  185SAPI   H3S21194   4.060   2.960  10.466  0.9354  0.7855  0.5271
  185SAPI   C2421195   4.013   2.824  10.306  0.1287 -0.5832  0.4152
  185SAPI   H4R21196   4.009   2.729  10.363 -0.7159 -1.3478 -0.8871
  185SAPI   H4S21197   4.048   2.807  10.203 -1.0882  0.8541 -0.2847
  185SAPI   C2521198   3.875   2.881  10.306 -0.4135  0.1403  0.0480
  185SAPI   H5R21199   3.857   2.965  10.374 -3.3354 -2.2655  2.5679
  185SAPI   C2621200   3.768   2.832  10.235  1.0248 -0.0385 -0.5413
  185SAPI   H6R21201   3.671   2.879  10.253  0.5660 -2.1630  3.8758
  185SAPI   C2721202   3.774   2.721  10.138  0.0004 -0.4313 -0.1623
  185SAPI   H7R21203   3.865   2.662  10.160  0.0478  0.6854  3.1864
  185SAPI   H7S21204   3.803   2.759  10.038  0.7273  0.4653  0.3744
  185SAPI   C2821205   3.660   2.630  10.163  0.1517 -0.4216  1.0748
  185SAPI   H8R21206   3.656   2.596  10.268 -1.2182 -3.7502  0.0722
  185SAPI   C2921207   3.568   2.581  10.078 -0.2398  0.4343 -0.3195
  185SAPI   H9R21208   3.490   2.512  10.115 -0.5985  0.3784 -1.1583
  185SAPI  C21021209   3.571   2.624   9.937  0.1549 -0.7442 -0.3573
  185SAPI  H10R21210   3.645   2.550   9.897 -0.4296 -1.2643 -0.5055
  185SAPI  H10S21211   3.607   2.728   9.941  2.6716 -1.5922  1.9134
  185SAPI  C21121212   3.445   2.622   9.849 -0.1608  0.2719  0.6579
  185SAPI  H11R21213   3.393   2.525   9.843 -1.1855  0.7889  1.0332
  185SAPI  C21221214   3.398   2.722   9.767  0.2783 -0.0436 -0.1839
  185SAPI  H12R21215   3.309   2.693   9.709  0.4571 -2.8593  0.8037
  185SAPI  C21321216   3.459   2.860   9.757  0.3532 -0.9085  0.4392
  185SAPI  H13R21217   3.559   2.862   9.708  0.1760  0.7341  0.1015
  185SAPI  H13S21218   3.477   2.895   9.860 -1.1046  3.3852 -0.5341
  185SAPI  C21421219   3.367   2.968   9.691  0.1038  0.0546 -0.2324
  185SAPI  H14R21220   3.313   3.036   9.758 -0.2814 -0.5661  0.1000
  185SAPI  C21521221   3.355   2.998   9.560  0.5191 -0.2784 -0.3955
  185SAPI  H15R21222   3.298   3.087   9.530 -0.4071  0.0163  1.9848
  185SAPI  C21621223   3.417   2.920   9.441 -0.3654 -0.2747  0.5637
  185SAPI  H16R21224   3.330   2.876   9.387 -0.5653  0.4773  0.2580
  185SAPI  H16S21225   3.486   2.846   9.488  2.3244  0.9032 -1.2978
  185SAPI  C21721226   3.511   3.003   9.353  0.5939  0.1330 -0.1567
  185SAPI  H17R21227   3.616   3.012   9.389  0.7402  1.5522 -0.8896
  185SAPI  H17S21228   3.476   3.106   9.333 -1.6267 -0.2440  1.4472
  185SAPI  C21821229   3.520   2.944   9.208 -0.0024  0.2502 -0.2225
  185SAPI  H18R21230   3.415   2.940   9.173 -2.0145  1.1647  4.8184
  185SAPI  H18S21231   3.551   2.837   9.211 -0.4278  0.1379  0.4292
  185SAPI  C21921232   3.618   3.015   9.113 -0.4140 -0.3347 -0.1846
  185SAPI  H19R21233   3.722   3.016   9.154 -1.3325 -0.9466  2.3123
  185SAPI  H19S21234   3.582   3.120   9.105 -0.7926 -0.5758 -2.0165
  185SAPI  C22021235   3.619   2.966   8.973  0.1290 -0.3591  0.3009
  185SAPI  H20R21236   3.515   2.934   8.950  0.2075 -0.7899  0.5286
  185SAPI  H20S21237   3.687   2.878   8.968  0.7539  0.1299 -0.0340
  185SAPI  H20T21238   3.645   3.043   8.897 -1.4073 -1.1170 -1.0549
  185SAPI   C3321239   4.961   3.148  10.337 -0.1600 -0.0405 -0.1611
  185SAPI   H3X21240   5.033   3.130  10.420  2.0116  1.2599 -1.6478
  185SAPI   H3Y21241   4.915   3.247  10.356  0.1202  0.5193 -2.1697
  185SAPI   C3421242   5.034   3.153  10.203  0.1451  0.2178 -0.7152
  185SAPI   H4X21243   5.075   3.052  10.180  0.2152  0.4363 -1.5749
  185SAPI   H4Y21244   5.125   3.216  10.200  0.7795 -0.4474  1.9688
  185SAPI   C3521245   4.933   3.191  10.093 -0.1287 -0.0768 -0.5762
  185SAPI   H5X21246   4.893   3.293  10.111  0.0471 -0.2455  0.8498
  185SAPI   H5Y21247   4.844   3.125  10.088  0.5271 -1.0677  0.4426
  185SAPI   C3621248   4.993   3.166   9.956 -0.3421  0.0126  0.4944
  185SAPI   H6X21249   5.011   3.056   9.954 -0.4788 -0.0050 -1.2783
  185SAPI   H6Y21250   5.088   3.219   9.931 -0.5080 -1.0177 -2.8605
  185SAPI   C3721251   4.902   3.213   9.844 -1.1267 -0.2692 -0.0341
  185SAPI   H7X21252   4.914   3.323   9.856  1.7645 -0.5304  0.2883
  185SAPI   H7Y21253   4.796   3.181   9.840 -0.6507 -1.8397 -1.8196
  185SAPI   C3821254   4.966   3.193   9.702 -0.0076  0.1556 -0.1226
  185SAPI   H8X21255   4.986   3.083   9.704 -0.3292  0.1058  0.9995
  185SAPI   H8Y21256   5.063   3.245   9.695 -0.2687  0.7775  0.8460
  185SAPI   C3921257   4.874   3.236   9.584 -0.1087 -0.1839 -0.8346
  185SAPI   H9X21258   4.864   3.346   9.588 -2.1101 -0.2956 -1.4876
  185SAPI   H9Y21259   4.769   3.204   9.602 -0.2313  1.2071  1.3523
  185SAPI  C31021260   4.929   3.188   9.442 -0.2461 -0.2079  0.4699
  185SAPI  H10X21261   4.909   3.079   9.435 -1.1991  0.0192 -0.7119
  185SAPI  H10Y21262   5.033   3.223   9.422 -0.1114  0.1298  1.7037
  185SAPI  C31121263   4.842   3.263   9.341 -0.1290 -0.0242  0.4746
  185SAPI  H11X21264   4.849   3.369   9.373  3.3814  0.4268 -1.3390
  185SAPI  H11Y21265   4.738   3.225   9.352 -0.1238 -0.4075 -0.7072
  185SAPI  C31221266   4.892   3.243   9.200 -0.0700 -0.4539  0.5521
  185SAPI  H12X21267   4.991   3.288   9.177 -0.9447  0.0607 -2.7984
  185SAPI  H12Y21268   4.819   3.290   9.130  0.0283  0.8137  1.2741
  185SAPI  C31321269   4.900   3.089   9.159 -0.3452  0.3007 -0.3090
  185SAPI  H13X21270   4.814   3.045   9.214 -1.5334  2.0360 -0.7059
  185SAPI  H13Y21271   4.999   3.045   9.185 -0.2605  1.1842  0.9463
  185SAPI  C31421272   4.878   3.063   9.007 -0.3766 -0.6409  0.1216
  185SAPI  H14X21273   4.938   3.143   8.959  0.5031 -0.0533  2.0944
  185SAPI  H14Y21274   4.772   3.074   8.978 -0.5790 -0.5508  0.8672
  185SAPI  C31521275   4.919   2.921   8.945 -0.3195 -0.1909 -0.5424
  185SAPI  H15X21276   4.866   2.843   9.004 -0.0029 -0.5821 -0.7755
  185SAPI  H15Y21277   5.023   2.902   8.978 -0.1884  0.1866 -0.7285
  185SAPI  C31621278   4.900   2.922   8.800  0.2970 -0.7458 -0.0269
  185SAPI  H16X21279   4.945   3.015   8.759 -0.4139  0.1090  1.0650
  185SAPI  H16Y21280   4.792   2.917   8.774  0.3682 -0.7130 -0.3304
  185SAPI  C31721281   4.965   2.799   8.730  0.5943  0.2933  0.1590
  185SAPI  H17X21282   4.902   2.711   8.753 -0.2788  1.2449  1.5545
  185SAPI  H17Y21283   5.066   2.787   8.776  2.4298  1.2065 -3.2475
  185SAPI  C31821284   4.970   2.802   8.582 -0.7301  0.6966 -0.1822
  185SAPI  H18X21285   5.038   2.880   8.541 -0.2599 -0.2906 -1.3507
  185SAPI  H18Y21286   4.870   2.801   8.535 -0.8145 -0.0120 -0.0002
  185SAPI  H18Z21287   5.021   2.708   8.553 -0.4829  0.8061 -0.1042
  186SAPI   C1221288   5.987   2.472  10.758 -0.5988 -0.6435 -0.4767
  186SAPI    H221289   5.952   2.525  10.667 -2.0809 -2.7099 -1.1766
  186SAPI    O221290   5.892   2.367  10.782  0.2628  0.1462  0.8694
  186SAPI   HO221291   5.816   2.416  10.814 -1.6589  0.4832 -3.4188
  186SAPI   C1321292   6.129   2.422  10.748  0.5333 -0.4045 -0.8169
  186SAPI    H321293   6.193   2.512  10.744  0.4415 -0.0474  2.6745
  186SAPI    O321294   6.144   2.335  10.630 -0.3083  0.6419  0.2388
  186SAPI   HO321295   6.235   2.304  10.625  0.2264  1.7831  1.9033
  186SAPI   C1421296   6.164   2.355  10.886  0.2724 -0.2455  0.2337
  186SAPI    H421297   6.093   2.270  10.893 -0.4490  0.1857 -1.4662
  186SAPI    O421298   6.298   2.307  10.876 -0.3767 -0.2350  0.1729
  186SAPI   HO421299   6.293   2.214  10.853 -1.2917  0.3896 -2.6114
  186SAPI   C1521300   6.146   2.449  11.002 -0.5215 -0.2271 -0.5649
  186SAPI    H521301   6.219   2.531  10.983  0.5955 -1.0310  0.1568
  186SAPI    O521302   6.194   2.395  11.121  0.2919  0.0614 -0.1249
  186SAPI   HO521303   6.227   2.468  11.173 -0.5815  1.6693 -1.7255
  186SAPI   C1621304   6.004   2.512  11.011  0.3224  0.5894  0.0738
  186SAPI    H621305   5.928   2.434  11.030  1.1749 -0.4332 -0.5996
  186SAPI    O621306   5.998   2.607  11.117 -0.0694  0.1358 -0.0527
  186SAPI   HO621307   5.923   2.667  11.108 -1.4764 -1.2887  1.4596
  186SAPI   C1121308   5.973   2.577  10.873  0.1930 -0.0775 -0.2130
  186SAPI    H121309   6.053   2.650  10.847 -0.0972 -0.0757 -1.1297
  186SAPI     P21310   5.819   2.794  10.889 -0.4354  0.6333  0.0284
  186SAPI   O1321311   5.877   2.823  11.022 -0.3408  0.1456 -0.2026
  186SAPI   O1421312   5.683   2.832  10.857  0.1725  0.3387 -0.3618
  186SAPI   O1221313   5.840   2.630  10.863 -0.4718  0.2351 -0.1073
  186SAPI   O1121314   5.911   2.856  10.767  0.3171  0.5396 -0.4654
  186SAPI    C121315   5.892   2.977  10.707 -0.1941  0.4187  0.6954
  186SAPI    HA21316   5.785   3.005  10.696 -0.3040 -0.4237 -0.6963
  186SAPI    HB21317   5.952   3.047  10.768  3.3244 -2.0522  0.3356
  186SAPI    C221318   5.938   2.983  10.556  0.5617 -0.3899  0.0703
  186SAPI    HS21319   6.049   2.991  10.555  0.4800  3.6926  2.5106
  186SAPI   O2121320   5.892   3.108  10.496 -0.1756  0.4704 -0.1644
  186SAPI   C2121321   5.962   3.214  10.517  0.4767 -0.2512 -0.8815
  186SAPI   O2221322   6.060   3.228  10.590  0.6074 -0.2200 -0.0114
  186SAPI   C2221323   5.920   3.318  10.418 -0.5130 -0.1703 -0.0941
  186SAPI   H2R21324   5.860   3.270  10.337 -0.5205  0.3521 -0.4005
  186SAPI   H2S21325   5.849   3.385  10.470  0.4269  1.0997 -0.3895
  186SAPI    C321326   5.890   2.857  10.491  0.1598 -0.0986 -0.9730
  186SAPI    HX21327   5.783   2.830  10.497  0.0565  0.5203  0.2580
  186SAPI    HY21328   5.943   2.787  10.559  0.5833  0.2262 -0.9606
  186SAPI   O3121329   5.933   2.855  10.345 -0.2176  1.2737  0.1201
  186SAPI   C3121330   5.947   2.729  10.307  0.0655  0.0965  0.1975
  186SAPI   O3221331   5.927   2.634  10.380 -0.1380 -0.0114  0.9215
  186SAPI   C3221332   5.997   2.719  10.163  0.0769  0.2790  0.4976
  186SAPI   H2X21333   6.106   2.704  10.170  0.0586  0.5278  1.4566
  186SAPI   H2Y21334   5.981   2.817  10.113  1.5112 -0.0370 -0.6401
  186SAPI   C2321335   6.040   3.403  10.361 -0.2563 -0.1108  1.0163
  186SAPI   H3R21336   6.108   3.426  10.446 -0.2277  0.3522  0.8718
  186SAPI   H3S21337   5.999   3.497  10.318 -0.3758 -0.9593 -0.8364
  186SAPI   C2421338   6.100   3.320  10.243 -0.0502 -0.2145  0.2620
  186SAPI   H4R21339   6.168   3.386  10.184  2.3242 -1.2985  1.6266
  186SAPI   H4S21340   6.022   3.287  10.172  1.2790 -0.8069 -0.9793
  186SAPI   C2521341   6.180   3.203  10.289  0.0540  0.4093  0.0178
  186SAPI   H5R21342   6.230   3.211  10.386 -1.2573 -1.4012  0.9207
  186SAPI   C2621343   6.212   3.090  10.216  0.3913 -0.3598 -0.0078
  186SAPI   H6R21344   6.269   3.006  10.258  0.0153 -0.1966  0.8683
  186SAPI   C2721345   6.171   3.068  10.072 -0.3366 -0.8480  0.1685
  186SAPI   H7R21346   6.117   3.158  10.035 -1.5569 -1.2626  0.8747
  186SAPI   H7S21347   6.093   2.989  10.073  0.0639 -1.2484  0.6608
  186SAPI   C2821348   6.276   3.027   9.970 -0.1754 -1.0722 -0.0570
  186SAPI   H8R21349   6.352   3.106   9.962 -1.4233  0.1457 -0.3797
  186SAPI   C2921350   6.284   2.921   9.887  0.0938 -0.2503  0.2454
  186SAPI   H9R21351   6.360   2.925   9.807  0.0143 -0.8890  0.1333
  186SAPI  C21021352   6.191   2.812   9.867  0.1265  0.7549  0.2896
  186SAPI  H10R21353   6.157   2.780   9.967 -0.2299 -0.3573 -0.1745
  186SAPI  H10S21354   6.238   2.717   9.834  0.8433  0.1556  2.8241
  186SAPI  C21121355   6.084   2.843   9.768 -0.0012  0.3694  0.4406
  186SAPI  H11R21356   5.996   2.895   9.809  0.9646  3.0811 -0.6895
  186SAPI  C21221357   6.087   2.809   9.640  0.0043 -0.0599  0.1700
  186SAPI  H12R21358   5.999   2.832   9.578 -0.1154 -0.4021  0.2105
  186SAPI  C21321359   6.193   2.736   9.560  0.4406  0.3651 -0.1727
  186SAPI  H13R21360   6.273   2.703   9.629  0.6830  0.0543 -0.6029
  186SAPI  H13S21361   6.240   2.803   9.485 -2.1734  0.4215 -1.9023
  186SAPI  C21421362   6.123   2.618   9.499 -0.3710  0.8647 -0.3635
  186SAPI  H14R21363   6.068   2.553   9.568 -0.0946  0.9574 -0.0506
  186SAPI  C21521364   6.124   2.582   9.371  0.5986  0.1524 -0.7500
  186SAPI  H15R21365   6.068   2.490   9.347 -2.4346  1.5182  0.6175
  186SAPI  C21621366   6.191   2.648   9.255 -0.3653 -0.3877  0.2006
  186SAPI  H16R21367   6.241   2.587   9.176  2.2477  1.2144  0.4953
  186SAPI  H16S21368   6.280   2.701   9.295  0.2747 -0.6294 -0.8454
  186SAPI  C21721369   6.104   2.744   9.177  0.6109 -0.7074 -0.0309
  186SAPI  H17R21370   6.049   2.806   9.251 -1.4067  0.5176 -2.3872
  186SAPI  H17S21371   6.025   2.684   9.127  0.8834 -0.8796 -0.2622
  186SAPI  C21821372   6.169   2.834   9.072 -0.1029 -0.3198  0.2202
  186SAPI  H18R21373   6.260   2.872   9.122  0.5675  0.7076 -1.7067
  186SAPI  H18S21374   6.102   2.919   9.045  0.2395  0.1326  0.7728
  186SAPI  C21921375   6.221   2.758   8.948  0.2786 -0.5696 -0.4075
  186SAPI  H19R21376   6.134   2.717   8.892  0.5790 -0.9777 -0.5735
  186SAPI  H19S21377   6.294   2.680   8.978  0.6080  0.8089  2.7530
  186SAPI  C22021378   6.274   2.861   8.846  0.0981  0.3642 -0.3634
  186SAPI  H20R21379   6.202   2.945   8.833 -1.1201 -0.8022 -1.4221
  186SAPI  H20S21380   6.282   2.810   8.748 -1.1186 -1.4213  0.4250
  186SAPI  H20T21381   6.373   2.901   8.877  0.3803 -0.1228 -0.6251
  186SAPI   C3321382   5.932   2.604  10.083  0.2252  0.7445  0.0177
  186SAPI   H3X21383   5.986   2.510  10.106  0.5666  0.6112 -1.2820
  186SAPI   H3Y21384   5.950   2.632   9.977 -0.0952  1.0415  0.0403
  186SAPI   C3421385   5.786   2.586  10.104 -0.9896  0.4888 -0.4733
  186SAPI   H4X21386   5.733   2.683  10.089 -1.6613 -0.0364 -1.6596
  186SAPI   H4Y21387   5.766   2.540  10.203 -1.0524 -1.6704 -1.4308
  186SAPI   C3521388   5.729   2.498   9.989 -0.3712 -0.3599 -0.1882
  186SAPI   H5X21389   5.620   2.499  10.013 -0.0799 -1.0093  1.3221
  186SAPI   H5Y21390   5.764   2.392   9.994  0.2781 -0.1283  0.2375
  186SAPI   C3621391   5.747   2.559   9.852  0.3345  0.2329  1.1138
  186SAPI   H6X21392   5.849   2.557   9.808  0.0841  1.6869  0.4063
  186SAPI   H6Y21393   5.712   2.664   9.857  0.6591  0.3854  0.3133
  186SAPI   C3721394   5.658   2.504   9.733 -0.7478 -0.2184  0.3768
  186SAPI   H7X21395   5.559   2.546   9.761 -0.8364 -1.2910  1.7166
  186SAPI   H7Y21396   5.665   2.394   9.736  2.5310 -0.1541 -0.8136
  186SAPI   C3821397   5.698   2.555   9.587 -0.7277 -0.3586 -0.0645
  186SAPI   H8X21398   5.628   2.510   9.513  1.5803 -0.3367 -2.3900
  186SAPI   H8Y21399   5.799   2.519   9.559 -1.0887 -0.6095 -1.1066
  186SAPI   C3921400   5.712   2.711   9.573  0.2124  0.5044  0.4124
  186SAPI   H9X21401   5.820   2.728   9.591  0.1711  0.3903  0.7902
  186SAPI   H9Y21402   5.651   2.764   9.650 -1.5847 -0.0719 -0.5474
  186SAPI  C31021403   5.653   2.756   9.441  0.5930 -0.4588 -0.4946
  186SAPI  H10X21404   5.649   2.867   9.442 -3.2974 -0.4152  2.3828
  186SAPI  H10Y21405   5.553   2.714   9.420  0.5932 -0.0861 -1.2780
  186SAPI  C31121406   5.737   2.705   9.323 -0.4689  0.1895 -0.3308
  186SAPI  H11X21407   5.739   2.595   9.308  0.5604  0.1655 -0.0997
  186SAPI  H11Y21408   5.843   2.730   9.341 -0.7316  0.8087  0.4287
  186SAPI  C31221409   5.702   2.764   9.182 -0.3867 -0.3747  0.3943
  186SAPI  H12X21410   5.592   2.758   9.170 -0.4867  1.5143  0.0280
  186SAPI  H12Y21411   5.753   2.706   9.101  3.7306  2.1033  0.8848
  186SAPI  C31321412   5.762   2.906   9.171 -0.5272  0.2852 -0.3786
  186SAPI  H13X21413   5.864   2.911   9.214 -0.3606  0.3886 -0.7801
  186SAPI  H13Y21414   5.703   2.977   9.233 -0.6572  1.4740 -1.8059
  186SAPI  C31421415   5.770   2.955   9.031  1.0751  0.1796 -0.1619
  186SAPI  H14X21416   5.670   2.944   8.984  1.8068  0.6043 -1.8922
  186SAPI  H14Y21417   5.848   2.897   8.978  1.8542 -0.4819  1.6359
  186SAPI  C31521418   5.808   3.107   9.034 -0.1022 -0.2779  1.0273
  186SAPI  H15X21419   5.911   3.127   9.070  1.3509 -0.6865 -2.4751
  186SAPI  H15Y21420   5.732   3.165   9.091  1.0956  0.4642  1.9106
  186SAPI  C31621421   5.811   3.158   8.895 -0.2747 -0.0664  0.4966
  186SAPI  H16X21422   5.733   3.104   8.836  1.8509 -4.0776  0.9721
  186SAPI  H16Y21423   5.905   3.131   8.843 -0.0619  0.0519  0.8223
  186SAPI  C31721424   5.805   3.308   8.888 -0.5097  0.0599  0.6605
  186SAPI  H17X21425   5.890   3.360   8.937 -0.6568  0.8091  0.1365
  186SAPI  H17Y21426   5.718   3.346   8.946 -0.4223  0.8924  0.2606
  186SAPI  C31821427   5.792   3.360   8.736  0.0735  0.1223  0.2399
  186SAPI  H18X21428   5.747   3.461   8.731 -1.8625 -0.5706  2.1189
  186SAPI  H18Y21429   5.728   3.286   8.683  0.0407 -0.7897  1.5103
  186SAPI  H18Z21430   5.890   3.362   8.683 -1.1754 -1.7218 -2.3390
  187SAPI   C1221431   0.492   0.618   6.318 -0.3399 -0.1837 -0.4307
  187SAPI    H221432   0.567   0.562   6.378  0.0187  0.6416 -0.1052
  187SAPI    O221433   0.410   0.699   6.406  0.1540  0.5064 -0.1557
  187SAPI   HO221434   0.342   0.637   6.436  1.4730 -0.6476  0.5734
  187SAPI   C1321435   0.583   0.701   6.230 -0.0967  0.1600  0.0552
  187SAPI    H321436   0.641   0.639   6.158  1.4016  0.7698  0.6805
  187SAPI    O321437   0.686   0.761   6.312 -0.4604 -0.3884 -0.2516
  187SAPI   HO321438   0.641   0.784   6.394 -2.2419  1.4145 -1.6180
  187SAPI   C1421439   0.497   0.796   6.143 -0.2386  0.6748  0.4384
  187SAPI    H421440   0.432   0.853   6.213 -0.3658  0.2530  0.6658
  187SAPI    O421441   0.572   0.884   6.069 -0.7963 -0.1870  0.5170
  187SAPI   HO421442   0.628   0.935   6.128  0.7583  0.1895 -1.1709
  187SAPI   C1521443   0.393   0.706   6.062 -0.7926 -0.8451  0.7891
  187SAPI    H521444   0.463   0.656   5.992 -0.8242 -1.5546  1.2527
  187SAPI    O521445   0.308   0.791   5.984  0.1870  0.1348 -0.1233
  187SAPI   HO521446   0.276   0.863   6.040 -0.9517 -2.1538  2.3900
  187SAPI   C1621447   0.314   0.606   6.141  0.1267 -0.7369 -0.0039
  187SAPI    H621448   0.234   0.650   6.205  1.2279 -0.0814  0.9559
  187SAPI    O621449   0.245   0.518   6.059  0.2400  0.3125  0.2111
  187SAPI   HO621450   0.203   0.448   6.109  1.3248 -1.1250 -0.8109
  187SAPI   C1121451   0.407   0.524   6.237  0.3158  0.0827 -0.2133
  187SAPI    H121452   0.470   0.466   6.168  0.6958  0.4625 -0.1899
  187SAPI     P21453   0.365   0.306   6.398  0.6316  0.3381 -0.1511
  187SAPI   O1321454   0.508   0.286   6.388  0.3919 -0.3203  0.0582
  187SAPI   O1421455   0.283   0.192   6.350  0.1417  0.5265 -0.0547
  187SAPI   O1221456   0.320   0.441   6.318 -0.1164 -0.4290 -0.2869
  187SAPI   O1121457   0.339   0.326   6.546  0.0356  0.0942  0.2255
  187SAPI    C121458   0.261   0.442   6.594  0.1336  0.5080  0.3183
  187SAPI    HA21459   0.332   0.506   6.650  1.0338 -2.1012  2.4141
  187SAPI    HB21460   0.223   0.515   6.519  0.4082 -1.2942 -1.6930
  187SAPI    C221461   0.154   0.403   6.693 -0.0991 -0.4486 -0.1377
  187SAPI    HS21462   0.083   0.483   6.724 -0.8606 -0.9842 -0.4682
  187SAPI   O2121463   0.223   0.353   6.815  0.1843  0.2586  0.0293
  187SAPI   C2121464   0.253   0.445   6.902  0.5154  0.4921 -0.0100
  187SAPI   O2221465   0.244   0.568   6.887 -0.3056 -0.1837  0.2856
  187SAPI   C2221466   0.297   0.371   7.032 -0.1507 -0.3451 -0.0013
  187SAPI   H2R21467   0.348   0.278   7.001  1.0278  0.1300  0.4560
  187SAPI   H2S21468   0.366   0.437   7.090 -2.3949  0.8016  1.5359
  187SAPI    C321469   0.064   0.294   6.623 -0.2103  0.5983 -0.8784
  187SAPI    HX21470   0.128   0.218   6.575 -1.5687 -1.9921  1.1851
  187SAPI    HY21471   0.002   0.336   6.541 -1.7229  0.4185  0.1251
  187SAPI   O3121472  -0.018   0.233   6.727 -0.1269  0.5953 -1.0131
  187SAPI   C3121473  -0.150   0.267   6.722  0.4996  0.1133 -0.1034
  187SAPI   O3221474  -0.197   0.355   6.652 -0.1947  0.0993 -0.4586
  187SAPI   C3221475  -0.231   0.182   6.820 -0.2551 -0.5904  0.7011
  187SAPI   H2X21476  -0.195   0.079   6.801  2.8498  0.8602 -2.4028
  187SAPI   H2Y21477  -0.333   0.194   6.778  0.4081 -0.4816 -0.9447
  187SAPI   C2321478   0.181   0.346   7.124 -0.1105 -0.2091 -0.1660
  187SAPI   H3R21479   0.112   0.289   7.058 -1.5545  1.7558 -0.4419
  187SAPI   H3S21480   0.126   0.440   7.149  1.2414  0.7413 -0.6662
  187SAPI   C2421481   0.226   0.264   7.248 -0.2008  1.2811 -0.0940
  187SAPI   H4R21482   0.306   0.313   7.308  2.1777  0.2461 -2.1858
  187SAPI   H4S21483   0.289   0.178   7.215  0.3844  0.3355  3.1121
  187SAPI   C2521484   0.118   0.195   7.319 -0.0215  0.1726 -0.6010
  187SAPI   H5R21485   0.065   0.114   7.266 -0.8677  0.0821  0.3600
  187SAPI   C2621486   0.083   0.220   7.446  0.5493 -0.0733 -0.4445
  187SAPI   H6R21487   0.002   0.165   7.497  0.1608  0.3372 -0.6025
  187SAPI   C2721488   0.136   0.338   7.526  0.3545  0.5889  0.4421
  187SAPI   H7R21489   0.161   0.422   7.457  2.0054 -0.1907  0.0255
  187SAPI   H7S21490   0.236   0.304   7.560  1.0083 -0.3595 -2.1690
  187SAPI   C2821491   0.041   0.384   7.635  0.4339  0.0550 -0.5103
  187SAPI   H8R21492  -0.030   0.458   7.594  0.0513 -0.6686 -1.2017
  187SAPI   C2921493   0.052   0.358   7.762 -0.5476 -0.4333 -0.5876
  187SAPI   H9R21494  -0.025   0.407   7.823 -0.5151  0.0037 -0.8891
  187SAPI  C21021495   0.162   0.286   7.834 -0.0071 -0.1641 -0.1780
  187SAPI  H10R21496   0.240   0.358   7.865  0.7496 -1.0705  0.0635
  187SAPI  H10S21497   0.217   0.210   7.774 -1.2907  0.0176 -1.6513
  187SAPI  C21121498   0.082   0.219   7.946 -0.1959 -0.1259 -0.6335
  187SAPI  H11R21499   0.005   0.150   7.907 -0.2861 -0.2457 -0.2425
  187SAPI  C21221500   0.087   0.238   8.083  0.4207  0.6028 -0.1998
  187SAPI  H12R21501   0.011   0.191   8.148 -2.2572  1.5609 -2.4166
  187SAPI  C21321502   0.169   0.344   8.156  0.1386  0.0288 -0.2976
  187SAPI  H13R21503   0.208   0.421   8.086  3.9126 -0.5162  0.9850
  187SAPI  H13S21504   0.263   0.305   8.201  0.5394  0.5986 -0.6352
  187SAPI  C21421505   0.084   0.427   8.256  0.0167 -0.0377  0.0425
  187SAPI  H14R21506   0.009   0.494   8.212 -0.9874  0.0758  1.8571
  187SAPI  C21521507   0.089   0.418   8.393 -0.0618  0.3116  0.1768
  187SAPI  H15R21508   0.033   0.487   8.458 -0.8461 -0.4074  0.2855
  187SAPI  C21621509   0.186   0.333   8.478  0.4881 -0.0926  0.7579
  187SAPI  H16R21510   0.262   0.283   8.416 -1.5671 -0.7763 -1.3616
  187SAPI  H16S21511   0.127   0.249   8.521 -2.4047  1.0315 -0.6973
  187SAPI  C21721512   0.243   0.423   8.587  0.0239  0.5024 -0.3875
  187SAPI  H17R21513   0.161   0.488   8.626  0.7196  1.1999 -0.0656
  187SAPI  H17S21514   0.301   0.499   8.532 -1.3810  0.8437 -1.4387
  187SAPI  C21821515   0.309   0.356   8.712  0.2492  0.1228  0.3019
  187SAPI  H18R21516   0.246   0.282   8.765  1.6846 -2.0143 -0.8369
  187SAPI  H18S21517   0.332   0.436   8.785  0.2119  0.5179 -0.1124
  187SAPI  C21921518   0.433   0.268   8.680 -0.4034 -0.5049  0.2995
  187SAPI  H19R21519   0.497   0.328   8.612 -2.0566 -0.9313 -1.7309
  187SAPI  H19S21520   0.400   0.183   8.616 -2.7462  1.1808 -0.8900
  187SAPI  C22021521   0.505   0.205   8.800  0.1188 -0.3599 -0.1382
  187SAPI  H20R21522   0.585   0.132   8.774 -0.0722  0.7437 -4.7125
  187SAPI  H20S21523   0.423   0.166   8.864 -0.2202 -1.3079 -1.1187
  187SAPI  H20T21524   0.548   0.287   8.861  0.6423  1.7083 -3.0545
  187SAPI   C3321525  -0.221   0.223   6.961 -0.6217  0.5375  0.0669
  187SAPI   H3X21526  -0.284   0.310   6.989 -0.5748  0.7340 -0.4203
  187SAPI   H3Y21527  -0.123   0.257   7.001 -0.2558  0.4627 -0.7526
  187SAPI   C3421528  -0.272   0.107   7.051 -0.7527 -0.0118  0.0314
  187SAPI   H4X21529  -0.198   0.024   7.053 -0.8978 -0.1581  2.2854
  187SAPI   H4Y21530  -0.374   0.067   7.031  0.2005 -2.2519 -0.6260
  187SAPI   C3521531  -0.265   0.145   7.202  0.4323 -0.0329  0.3246
  187SAPI   H5X21532  -0.342   0.223   7.219  1.3892  0.9986  0.0294
  187SAPI   H5Y21533  -0.163   0.186   7.217  0.5902  0.1631 -1.1316
  187SAPI   C3621534  -0.289   0.025   7.289 -0.4796 -0.2414 -0.6111
  187SAPI   H6X21535  -0.230  -0.063   7.255 -1.9502 -0.5441 -2.5077
  187SAPI   H6Y21536  -0.394  -0.006   7.274 -0.2647 -1.9151  0.9448
  187SAPI   C3721537  -0.275   0.053   7.441 -0.4382 -0.4593  0.0919
  187SAPI   H7X21538  -0.319   0.153   7.463  3.4883  1.0812  1.7861
  187SAPI   H7Y21539  -0.168   0.049   7.472 -0.9015  0.4921  2.0120
  187SAPI   C3821540  -0.323  -0.063   7.530 -0.0397 -0.0257 -0.7816
  187SAPI   H8X21541  -0.262  -0.155   7.521  1.6462  0.9230  0.4922
  187SAPI   H8Y21542  -0.426  -0.082   7.492 -0.6821 -0.0241  0.8914
  187SAPI   C3921543  -0.318  -0.024   7.681 -0.8880  0.3259 -0.0331
  187SAPI   H9X21544  -0.394   0.055   7.697 -2.1201 -1.3055  3.0094
  187SAPI   H9Y21545  -0.216   0.017   7.695 -0.0741 -2.0361  1.6783
  187SAPI  C31021546  -0.328  -0.146   7.778 -0.0728 -0.6492  0.4981
  187SAPI  H10X21547  -0.257  -0.223   7.741 -2.2670 -3.3362  1.5715
  187SAPI  H10Y21548  -0.434  -0.182   7.774 -0.1241 -0.4654  0.2042
  187SAPI  C31121549  -0.289  -0.114   7.923 -0.0069 -0.0647 -0.1353
  187SAPI  H11X21550  -0.183  -0.080   7.929  0.4807 -1.6617  1.0364
  187SAPI  H11Y21551  -0.307  -0.207   7.981 -1.1887 -0.2540 -0.7892
  187SAPI  C31221552  -0.383  -0.010   7.984  0.1497 -0.1615 -0.1148
  187SAPI  H12X21553  -0.484  -0.015   7.937  0.5487 -1.1650 -0.9032
  187SAPI  H12Y21554  -0.352   0.090   7.948 -2.7913  0.1020 -2.3416
  187SAPI  C31321555  -0.386  -0.009   8.131  0.9132 -0.2151 -0.7366
  187SAPI  H13X21556  -0.419  -0.108   8.169  0.9457  0.0763  0.0882
  187SAPI  H13Y21557  -0.467   0.064   8.153 -0.7927 -1.9807 -0.8406
  187SAPI  C31421558  -0.261   0.043   8.210  0.6983  0.2676  0.1093
  187SAPI  H14X21559  -0.236   0.147   8.181 -1.3449  0.1731 -2.3369
  187SAPI  H14Y21560  -0.175  -0.021   8.185  0.2077  0.5185 -2.4794
  187SAPI  C31521561  -0.293   0.052   8.365  0.1051  0.2571  0.2853
  187SAPI  H15X21562  -0.347  -0.042   8.389  0.2682  0.2371  0.5672
  187SAPI  H15Y21563  -0.372   0.129   8.382  1.5183  1.3154  2.5524
  187SAPI  C31621564  -0.167   0.077   8.448 -0.0183  0.2841 -0.3071
  187SAPI  H16X21565  -0.108   0.170   8.433  1.3309 -0.4953  0.0089
  187SAPI  H16Y21566  -0.094  -0.006   8.455 -0.6625 -0.2279  0.6212
  187SAPI  C31721567  -0.217   0.102   8.589  0.4638 -0.3110 -0.2279
  187SAPI  H17X21568  -0.286   0.019   8.616  0.8508 -1.0043 -1.3335
  187SAPI  H17Y21569  -0.268   0.201   8.593  0.4017 -0.3648  0.4788
  187SAPI  C31821570  -0.109   0.090   8.699  0.6418 -0.1515 -0.1774
  187SAPI  H18X21571  -0.166   0.098   8.794  1.1402 -0.3474  0.1408
  187SAPI  H18Y21572  -0.040   0.177   8.709 -0.6810  0.8260  0.7777
  187SAPI  H18Z21573  -0.044   0.000   8.700  1.3268  0.3397  0.2793
  188SAPI   C1221574   0.705   2.156   6.360 -0.2259  0.7211  0.7600
  188SAPI    H221575   0.782   2.080   6.334 -0.4082  1.4740 -2.4678
  188SAPI    O221576   0.654   2.202   6.232 -0.4726  0.0119 -0.1673
  188SAPI   HO221577   0.707   2.280   6.216 -1.1736  0.2909 -1.2377
  188SAPI   C1321578   0.602   2.073   6.441 -0.2949  0.8453 -0.8344
  188SAPI    H321579   0.650   2.025   6.529 -1.1289 -1.3706 -1.4975
  188SAPI    O321580   0.544   1.964   6.361 -0.1992 -0.2080 -0.0082
  188SAPI   HO321581   0.603   1.890   6.347 -0.2969 -0.4528  0.8690
  188SAPI   C1421582   0.492   2.164   6.489 -0.1615 -0.0826 -0.0789
  188SAPI    H421583   0.429   2.205   6.407  1.5667  1.3620 -0.7393
  188SAPI    O421584   0.413   2.088   6.574  0.3416  0.3008  0.2466
  188SAPI   HO421585   0.327   2.130   6.580 -0.7364 -1.4086 -1.7076
  188SAPI   C1521586   0.549   2.274   6.575  0.3353  0.4911 -0.3938
  188SAPI    H521587   0.591   2.221   6.664 -0.8591  1.4368  0.7698
  188SAPI    O521588   0.447   2.358   6.613  0.7753  0.3011  0.4863
  188SAPI   HO521589   0.415   2.375   6.524  3.4770  0.5361 -0.5278
  188SAPI   C1621590   0.652   2.350   6.507  0.2120 -0.0279  1.0892
  188SAPI    H621591   0.599   2.406   6.427  1.6557  0.7018  0.6132
  188SAPI    O621592   0.711   2.447   6.592 -0.4324 -0.5279 -0.1007
  188SAPI   HO621593   0.803   2.459   6.566 -0.2093  2.7562  1.6739
  188SAPI   C1121594   0.767   2.261   6.451 -0.0588  0.1910 -0.2667
  188SAPI    H121595   0.820   2.209   6.533  0.6830  1.2624 -0.0442
  188SAPI     P21596   1.000   2.406   6.412 -0.3009 -0.1231  0.0261
  188SAPI   O1321597   0.973   2.468   6.545 -0.4433 -0.0774 -0.0570
  188SAPI   O1421598   1.049   2.488   6.297 -0.4587  0.0151 -0.3368
  188SAPI   O1221599   0.858   2.341   6.368 -0.1277  0.7228  0.1074
  188SAPI   O1121600   1.081   2.274   6.417  0.8723 -0.8541  0.0565
  188SAPI    C121601   1.190   2.254   6.498 -0.2125  0.6738  0.6647
  188SAPI    HA21602   1.269   2.216   6.430  1.0647  0.6567  2.0919
  188SAPI    HB21603   1.240   2.341   6.546 -0.0126  0.2475  1.2515
  188SAPI    C221604   1.175   2.152   6.618  0.5687  0.4445  0.8633
  188SAPI    HS21605   1.128   2.059   6.580 -0.2887  1.3952 -0.5211
  188SAPI   O2121606   1.107   2.214   6.728 -0.0917  0.1904 -0.2267
  188SAPI   C2121607   1.005   2.152   6.785  0.4009 -0.0981  0.6680
  188SAPI   O2221608   0.948   2.049   6.748 -0.0082 -0.6283 -0.1135
  188SAPI   C2221609   0.956   2.232   6.904 -0.2900  0.3679 -0.2302
  188SAPI   H2R21610   1.036   2.217   6.980 -0.0011 -1.8319 -0.8932
  188SAPI   H2S21611   0.977   2.338   6.879 -1.1289  0.9606  1.4853
  188SAPI    C321612   1.315   2.124   6.673 -0.5653  0.2504  0.3094
  188SAPI    HX21613   1.365   2.223   6.676  0.7945 -0.3421 -1.3266
  188SAPI    HY21614   1.367   2.062   6.597 -1.2574  0.3648 -0.2683
  188SAPI   O3121615   1.316   2.067   6.804 -0.1916  0.2859 -0.3821
  188SAPI   C3121616   1.437   2.093   6.865  0.8923  0.1243  0.1016
  188SAPI   O3221617   1.526   2.161   6.824 -1.0482 -0.4466  0.2632
  188SAPI   C3221618   1.436   2.024   7.001  0.5743 -0.7618 -0.1363
  188SAPI   H2X21619   1.449   1.915   6.984 -0.2652 -1.0664  1.0362
  188SAPI   H2Y21620   1.332   2.040   7.039  1.1251 -0.4850  1.3240
  188SAPI   C2321621   0.813   2.210   6.952  0.4864 -0.4378  0.0322
  188SAPI   H3R21622   0.811   2.130   7.029 -0.8225 -1.6134 -1.1712
  188SAPI   H3S21623   0.762   2.177   6.859 -0.5055  1.0328  0.0140
  188SAPI   C2421624   0.743   2.338   7.006 -0.9226  0.4865 -0.3390
  188SAPI   H4R21625   0.801   2.385   7.089 -0.6329 -1.7507  0.7810
  188SAPI   H4S21626   0.647   2.294   7.040 -0.6139 -0.2628 -0.4168
  188SAPI   C2521627   0.719   2.442   6.895 -0.4544  0.0773  0.1707
  188SAPI   H5R21628   0.669   2.406   6.803 -1.3820  1.5273  0.0851
  188SAPI   C2621629   0.728   2.573   6.900 -0.3500 -0.7727 -0.6977
  188SAPI   H6R21630   0.708   2.630   6.808  2.0902  0.2382 -0.6751
  188SAPI   C2721631   0.765   2.658   7.018  0.0965 -0.2269 -0.1908
  188SAPI   H7R21632   0.713   2.622   7.110 -2.4199  1.6423 -0.7900
  188SAPI   H7S21633   0.727   2.758   6.989  0.1738  0.4951  2.0199
  188SAPI   C2821634   0.908   2.694   7.043  0.2102  0.2677 -0.0863
  188SAPI   H8R21635   0.965   2.700   6.948 -0.2246 -0.7790 -0.4272
  188SAPI   C2921636   0.964   2.707   7.165 -0.1222 -0.2324  0.7137
  188SAPI   H9R21637   1.071   2.726   7.179 -0.1832  0.7791 -0.0917
  188SAPI  C21021638   0.879   2.697   7.287  0.8412  0.1619  0.4866
  188SAPI  H10R21639   0.832   2.597   7.282  2.4354 -0.6217  0.4730
  188SAPI  H10S21640   0.796   2.771   7.295  0.8247  0.3652 -1.2503
  188SAPI  C21121641   0.946   2.706   7.428 -0.2005  0.4349  0.6206
  188SAPI  H11R21642   1.055   2.720   7.422 -0.2659  0.8420  0.3762
  188SAPI  C21221643   0.887   2.687   7.545 -0.4955 -0.5867 -0.1000
  188SAPI  H12R21644   0.954   2.695   7.632  2.1773 -0.5426 -2.0463
  188SAPI  C21321645   0.750   2.636   7.576  0.0176  0.2792 -0.1198
  188SAPI  H13R21646   0.752   2.562   7.659 -2.6484 -1.7575 -1.6955
  188SAPI  H13S21647   0.700   2.584   7.491  1.2176 -0.9148 -0.1278
  188SAPI  C21421648   0.667   2.759   7.604 -0.0564  0.6994  0.1075
  188SAPI  H14R21649   0.647   2.828   7.520 -3.0505 -1.9091 -1.5493
  188SAPI  C21521650   0.611   2.783   7.723 -0.5243  0.3383 -0.1498
  188SAPI  H15R21651   0.538   2.864   7.743 -1.6140 -0.1822 -1.7927
  188SAPI  C21621652   0.615   2.687   7.846 -0.7620  0.6774  0.1337
  188SAPI  H16R21653   0.656   2.587   7.821  0.8158  1.8423 -2.3631
  188SAPI  H16S21654   0.516   2.671   7.894 -1.1928  1.8677 -0.3321
  188SAPI  C21721655   0.713   2.753   7.948  0.6395 -0.2744  0.1907
  188SAPI  H17R21656   0.691   2.717   8.051  0.5015 -0.8239 -0.0275
  188SAPI  H17S21657   0.701   2.863   7.956 -0.2338 -0.3376 -0.0946
  188SAPI  C21821658   0.866   2.729   7.922 -0.1191 -0.3584 -0.5352
  188SAPI  H18R21659   0.891   2.794   7.835 -2.4382  0.8707 -0.3525
  188SAPI  H18S21660   0.878   2.623   7.892  3.0999 -0.0941 -0.4902
  188SAPI  C21921661   0.946   2.764   8.043 -0.2995  0.5434 -0.9621
  188SAPI  H19R21662   0.899   2.852   8.093 -1.4168 -1.2512  1.3462
  188SAPI  H19S21663   1.051   2.792   8.024  0.1398 -0.4340 -0.0549
  188SAPI  C22021664   0.944   2.644   8.140  0.1454  0.5499  0.7727
  188SAPI  H20R21665   1.027   2.645   8.214  0.4944 -1.9469  0.5035
  188SAPI  H20S21666   0.934   2.543   8.096 -1.8359  0.2514  1.8115
  188SAPI  H20T21667   0.856   2.658   8.206 -0.2697  0.2367  0.2893
  188SAPI   C3321668   1.546   2.077   7.094  0.1627 -0.4410 -0.6144
  188SAPI   H3X21669   1.560   2.185   7.073  0.8379  0.2637  2.9322
  188SAPI   H3Y21670   1.644   2.025   7.081 -0.2699 -1.5004  0.2864
  188SAPI   C3421671   1.493   2.074   7.238  0.5889 -0.1320  0.2674
  188SAPI   H4X21672   1.394   2.124   7.240 -0.8785 -2.8741  0.8742
  188SAPI   H4Y21673   1.566   2.123   7.307  1.9184 -4.4537  2.3002
  188SAPI   C3521674   1.485   1.929   7.291  0.2585  0.5806  0.1395
  188SAPI   H5X21675   1.589   1.889   7.286 -0.1445 -0.3671 -1.4418
  188SAPI   H5Y21676   1.413   1.879   7.223  0.0401 -1.0482  1.5180
  188SAPI   C3621677   1.436   1.924   7.437 -0.2987  0.3850  0.0750
  188SAPI   H6X21678   1.404   1.819   7.451 -1.5130  0.3369 -2.5041
  188SAPI   H6Y21679   1.350   1.993   7.446 -3.2627 -2.5682 -2.9307
  188SAPI   C3721680   1.554   1.943   7.536 -0.3483  0.0121  0.3433
  188SAPI   H7X21681   1.592   2.045   7.512 -1.3364  0.7611  1.7606
  188SAPI   H7Y21682   1.640   1.877   7.514  0.0807  0.2539  1.2534
  188SAPI   C3821683   1.518   1.915   7.682  0.1610  0.3038 -0.1514
  188SAPI   H8X21684   1.610   1.913   7.745  0.0769  2.2349  0.0997
  188SAPI   H8Y21685   1.468   1.816   7.685 -0.0619  0.3625 -1.4466
  188SAPI   C3921686   1.423   2.020   7.738  0.0858  0.2460  0.3194
  188SAPI   H9X21687   1.389   1.983   7.837 -0.3721  2.3512  1.0097
  188SAPI   H9Y21688   1.327   2.024   7.683 -0.6879 -0.4108  1.5591
  188SAPI  C31021689   1.474   2.161   7.751  0.2754  0.1528  0.5325
  188SAPI  H10X21690   1.386   2.208   7.801 -0.3828  0.1707 -0.6010
  188SAPI  H10Y21691   1.498   2.211   7.654  1.5568  0.3743  0.9435
  188SAPI  C31121692   1.598   2.160   7.831 -0.4550  0.3464 -0.5081
  188SAPI  H11X21693   1.679   2.099   7.786 -0.2841 -0.0939  0.3737
  188SAPI  H11Y21694   1.572   2.112   7.927  0.2952 -0.3081 -0.6237
  188SAPI  C31221695   1.637   2.300   7.868  0.1679  0.2418 -0.7638
  188SAPI  H12X21696   1.698   2.290   7.960  0.0444 -1.4647 -0.8415
  188SAPI  H12Y21697   1.551   2.364   7.894  1.6052  1.2006  1.9844
  188SAPI  C31321698   1.722   2.375   7.762  0.1429  0.5768  0.2141
  188SAPI  H13X21699   1.658   2.373   7.671 -0.3125 -1.2961  0.5221
  188SAPI  H13Y21700   1.813   2.318   7.735 -0.4923  0.2374 -1.3991
  188SAPI  C31421701   1.773   2.511   7.807 -0.1949 -0.1339  0.7115
  188SAPI  H14X21702   1.858   2.550   7.747 -0.4607 -0.1624  0.3056
  188SAPI  H14Y21703   1.815   2.512   7.909  1.8578 -0.2973 -0.0813
  188SAPI  C31521704   1.655   2.607   7.793 -0.9378 -0.1047  0.4656
  188SAPI  H15X21705   1.671   2.703   7.846 -1.7798  2.5325 -3.5988
  188SAPI  H15Y21706   1.559   2.562   7.825 -1.6037  0.6791 -0.3956
  188SAPI  C31621707   1.627   2.647   7.645 -0.3647 -0.1558 -0.2325
  188SAPI  H16X21708   1.592   2.558   7.588 -0.0593 -0.2076 -0.3402
  188SAPI  H16Y21709   1.724   2.670   7.598 -0.7910 -0.2255 -1.1693
  188SAPI  C31721710   1.535   2.769   7.623  0.3973  0.7362 -0.8066
  188SAPI  H17X21711   1.531   2.804   7.518 -1.4194  0.2847 -0.9059
  188SAPI  H17Y21712   1.573   2.854   7.684  2.1469 -1.2962  1.1136
  188SAPI  C31821713   1.389   2.748   7.678 -0.1028  0.4013  0.0929
  188SAPI  H18X21714   1.330   2.841   7.669 -1.5229 -0.5971 -1.7978
  188SAPI  H18Y21715   1.395   2.724   7.786 -1.4503 -0.9119 -0.0875
  188SAPI  H18Z21716   1.339   2.668   7.619 -0.6046  1.6830 -1.2815
  189POPC     N21717   4.699   5.896  11.000  0.7507  0.2535  0.4174
  189POPC   C1221718   4.661   5.943  10.860  0.2786 -0.0026  0.1897
  189POPC  H12A21719   4.677   6.049  10.848 -1.2928  0.5356  2.1564
  189POPC  H12B21720   4.554   5.949  10.852  0.0279 -0.6539  2.3383
  189POPC   C1321721   4.625   5.984  11.100 -0.4963 -0.3793  0.7366
  189POPC  H13A21722   4.658   6.086  11.086 -0.1817 -0.2223  2.4920
  189POPC  H13B21723   4.517   5.973  11.095 -0.3862 -2.0008  1.1778
  189POPC  H13C21724   4.663   5.963  11.199  1.9561  0.2364  0.0005
  189POPC   C1421725   4.652   5.752  11.014  0.5271 -0.5180  0.3785
  189POPC  H14A21726   4.699   5.713  11.103  0.6969 -1.8449 -0.2814
  189POPC  H14B21727   4.545   5.742  11.029  0.3452 -0.8252 -1.0532
  189POPC  H14C21728   4.682   5.694  10.929  0.8150  0.6872 -0.3694
  189POPC   C1521729   4.851   5.902  11.008  0.1490  0.1711 -0.6353
  189POPC  H15A21730   4.889   5.860  11.100  0.2388  0.0714 -0.7185
  189POPC  H15B21731   4.881   6.005  10.996  2.4535  0.0162  2.6070
  189POPC  H15C21732   4.898   5.848  10.928  4.1588  0.2266  1.4511
  189POPC   C1121733   4.726   5.870  10.736  0.3330 -0.2245 -0.5457
  189POPC  H11A21734   4.682   5.916  10.645  1.2149  0.4937 -0.6235
  189POPC  H11B21735   4.708   5.760  10.739  3.0597 -0.7398 -0.0489
  189POPC     P21736   4.922   6.037  10.697  0.1598 -0.2220 -0.1620
  189POPC   O1321737   5.024   6.073  10.804  0.0906  0.3005  0.2275
  189POPC   O1421738   4.813   6.138  10.693  0.1569  0.3407 -0.3190
  189POPC   O1221739   4.866   5.890  10.724  0.1332 -0.5222 -0.6626
  189POPC   O1121740   4.999   6.032  10.557  0.3904 -0.6372 -0.4798
  189POPC    C121741   4.937   5.964  10.451  0.3851  0.6387  0.3173
  189POPC    HA21742   4.833   5.998  10.430 -0.9153 -2.3114  1.4865
  189POPC    HB21743   4.926   5.856  10.474  0.9835  0.8293  1.5678
  189POPC    C221744   5.026   5.971  10.329  0.2884  0.1315 -0.9977
  189POPC    HS21745   5.128   5.934  10.351  0.3793 -0.6834 -2.6002
  189POPC   O2121746   5.028   6.104  10.272  0.1338  0.6231 -0.4095
  189POPC   C2121747   5.140   6.139  10.224  0.5337 -0.5298  0.6515
  189POPC   O2221748   5.248   6.080  10.228 -0.0124 -0.0638 -0.0013
  189POPC   C2221749   5.109   6.257  10.134  0.3011 -0.0433 -0.3189
  189POPC   H2R21750   5.071   6.336  10.203 -0.1327 -2.3452  2.2710
  189POPC   H2S21751   5.025   6.227  10.068  0.8019  0.4970 -1.2200
  189POPC    C321752   4.979   5.856  10.224  0.6249  0.1646  0.1706
  189POPC    HX21753   4.869   5.870  10.209  0.9255  0.8137 -1.5485
  189POPC    HY21754   4.993   5.755  10.270  1.5162  1.1068  2.0966
  189POPC   O3121755   5.043   5.863  10.100  0.1229  0.1282 -0.4652
  189POPC   C3121756   5.173   5.811  10.116  0.0965 -0.6873 -0.4532
  189POPC   O3221757   5.221   5.765  10.219  0.6898  0.2557  0.8392
  189POPC   C3221758   5.250   5.838   9.989  0.0266 -0.6679 -0.1782
  189POPC   H2X21759   5.306   5.928  10.023 -0.9364 -1.2356  3.3326
  189POPC   H2Y21760   5.169   5.855   9.915  1.1127  1.1036 -1.0206
  189POPC   C2321761   5.224   6.303  10.041  0.0935 -0.0076 -0.3227
  189POPC   H3R21762   5.303   6.225  10.043  0.0658 -0.0270  0.7223
  189POPC   H3S21763   5.265   6.397  10.085  0.0113 -0.1605  0.0883
  189POPC   C2421764   5.182   6.342   9.904  0.2679 -0.2436  0.6680
  189POPC   H4R21765   5.268   6.390   9.852 -0.3831  2.3626  1.8539
  189POPC   H4S21766   5.098   6.413   9.893 -0.5919 -1.3182  0.0289
  189POPC   C2521767   5.140   6.221   9.818 -0.2834  0.4549 -0.1780
  189POPC   H5R21768   5.040   6.194   9.856 -1.3073  2.7898 -1.0147
  189POPC   H5S21769   5.222   6.150   9.842  1.7428  2.5980 -0.3685
  189POPC   C2621770   5.131   6.239   9.668  0.3141  0.6140  0.3171
  189POPC   H6R21771   5.163   6.344   9.647  1.3065  0.2609 -0.0049
  189POPC   H6S21772   5.031   6.242   9.619  0.7516  3.6986 -0.6484
  189POPC   C2721773   5.224   6.145   9.590 -0.2714 -0.4657 -0.5042
  189POPC   H7R21774   5.173   6.046   9.595 -1.1470 -0.1519 -2.3846
  189POPC   H7S21775   5.321   6.139   9.644 -0.9782  1.7974  1.1822
  189POPC   C2821776   5.257   6.187   9.452  0.4404 -0.5737 -0.6513
  189POPC   H8R21777   5.290   6.291   9.430  1.1256 -0.8254 -0.8468
  189POPC   H8S21778   5.162   6.171   9.396  0.0164 -1.0291  0.1954
  189POPC   C2921779   5.361   6.095   9.395  0.4072  1.0878  1.0293
  189POPC   H9121780   5.408   6.028   9.468  0.5598 -1.4152 -1.1887
  189POPC  C21021781   5.377   6.073   9.262  0.2064 -0.4479  0.3440
  189POPC  H10121782   5.453   6.004   9.222  0.0051 -0.0941 -0.6907
  189POPC  C21121783   5.295   6.155   9.160  0.5653 -0.5382 -0.1835
  189POPC  H11R21784   5.292   6.264   9.180  3.3034 -0.8285  2.6513
  189POPC  H11S21785   5.192   6.118   9.176 -0.0504  0.2225 -2.0919
  189POPC  C21221786   5.342   6.131   9.012 -0.0333  0.5637  0.0499
  189POPC  H12R21787   5.272   6.184   8.944  0.4650 -1.0644 -1.8236
  189POPC  H12S21788   5.332   6.024   8.983 -2.1639 -0.1029  2.7731
  189POPC  C21321789   5.479   6.183   8.995 -0.2429 -0.4007 -0.5808
  189POPC  H13R21790   5.547   6.153   9.078  0.5872  4.2770  0.7083
  189POPC  H13S21791   5.485   6.294   8.990  1.4022 -0.3707  1.0819
  189POPC  C21421792   5.542   6.127   8.865  0.1873 -0.6304  0.7270
  189POPC  H14R21793   5.478   6.169   8.785 -0.1589 -2.3614  0.0411
  189POPC  H14S21794   5.540   6.016   8.859  0.2939 -0.5489 -1.6746
  189POPC  C21521795   5.685   6.183   8.838 -0.1316  0.5023  0.8911
  189POPC  H15R21796   5.747   6.142   8.920 -0.2733 -1.3299  0.1463
  189POPC  H15S21797   5.678   6.294   8.844 -0.2983  0.6630 -1.3942
  189POPC  C21621798   5.753   6.146   8.704  0.1591 -0.3107 -0.1634
  189POPC  H16R21799   5.772   6.038   8.687 -0.0280 -0.0163 -2.6226
  189POPC  H16S21800   5.854   6.192   8.701 -1.9591  5.1834 -0.0337
  189POPC  C21721801   5.682   6.195   8.574 -0.1297  0.2022  0.2704
  189POPC  H17R21802   5.693   6.305   8.561 -0.1735  0.0495 -1.2934
  189POPC  H17S21803   5.571   6.194   8.588  0.1387 -1.1361  3.0425
  189POPC  C21821804   5.728   6.120   8.448  1.0287  0.6735 -0.1469
  189POPC  H18R21805   5.704   6.011   8.455  0.1430  0.8349 -0.6168
  189POPC  H18S21806   5.839   6.121   8.438  1.2328 -1.1291  1.2476
  189POPC  H18T21807   5.675   6.149   8.355 -1.1655 -0.3144  0.7157
  189POPC   C3321808   5.359   5.737   9.958  0.7731  0.1327  0.8343
  189POPC   H3X21809   5.305   5.640   9.953 -0.9847  0.9435  2.6028
  189POPC   H3Y21810   5.426   5.736  10.046  0.9278 -0.2804  0.7111
  189POPC   C3421811   5.453   5.783   9.847 -0.0607  0.6572  0.4412
  189POPC   H4X21812   5.553   5.738   9.864 -1.3615 -1.8778  2.0155
  189POPC   H4Y21813   5.468   5.893   9.847  0.2371  0.6599 -1.6870
  189POPC   C3521814   5.418   5.730   9.705  0.1358 -0.1905  0.6930
  189POPC   H5X21815   5.322   5.776   9.672 -0.5460 -2.0011  0.0597
  189POPC   H5Y21816   5.398   5.621   9.709 -2.0878  0.2192  2.2068
  189POPC   C3621817   5.521   5.776   9.604  0.5645  0.6603  0.5307
  189POPC   H6X21818   5.626   5.747   9.628  0.4263 -0.8266 -0.5120
  189POPC   H6Y21819   5.510   5.886   9.594  2.2290  0.6546 -3.9941
  189POPC   C3721820   5.497   5.723   9.462  0.5669  0.5085  0.1366
  189POPC   H7X21821   5.547   5.783   9.383  3.0705 -1.8567 -0.2220
  189POPC   H7Y21822   5.389   5.729   9.434  0.0885  0.4822  1.8625
  189POPC   C3821823   5.548   5.583   9.442 -0.0039  0.3986  0.2678
  189POPC   H8X21824   5.514   5.512   9.521 -2.4215  1.6174  0.4362
  189POPC   H8Y21825   5.658   5.585   9.450  0.0818  3.5195 -0.1813
  189POPC   C3921826   5.497   5.533   9.307  0.4292 -0.1826  0.1061
  189POPC   H9X21827   5.387   5.538   9.295  0.4245 -2.7204 -1.7844
  189POPC   H9Y21828   5.524   5.427   9.291 -3.4951 -1.0571 -2.0871
  189POPC  C31021829   5.556   5.613   9.193  0.3015 -0.1716 -0.0028
  189POPC  H10X21830   5.664   5.635   9.205  0.8100 -2.6688  0.5798
  189POPC  H10Y21831   5.500   5.709   9.194  1.9898  0.8474  0.4785
  189POPC  C31121832   5.510   5.550   9.056  0.2079  0.4481 -0.1200
  189POPC  H11X21833   5.399   5.548   9.054  0.2060 -1.9435 -0.4183
  189POPC  H11Y21834   5.552   5.448   9.046  1.8096  0.7768  2.3932
  189POPC  C31221835   5.560   5.644   8.950 -0.0872 -0.6424 -0.0404
  189POPC  H12X21836   5.668   5.638   8.924 -0.0208  2.0656 -0.7098
  189POPC  H12Y21837   5.552   5.752   8.976 -1.3802 -1.1870  2.0334
  189POPC  C31321838   5.480   5.632   8.819 -0.2593  0.2824  0.5053
  189POPC  H13X21839   5.383   5.681   8.838  0.0181  0.7219  0.8131
  189POPC  H13Y21840   5.470   5.524   8.796 -3.6934  0.8921 -1.5210
  189POPC  C31421841   5.542   5.705   8.700 -0.0372  0.2269 -0.8803
  189POPC  H14X21842   5.632   5.656   8.660 -0.5013 -1.0120 -0.4413
  189POPC  H14Y21843   5.576   5.804   8.739  0.6919 -1.2693  2.7228
  189POPC  C31521844   5.450   5.700   8.573  0.9200 -0.5253 -0.0756
  189POPC  H15X21845   5.512   5.771   8.514 -0.8354  1.6276  0.5514
  189POPC  H15Y21846   5.352   5.749   8.591  2.3419  1.5667  2.8935
  189POPC  C31621847   5.445   5.576   8.490 -0.2162  0.6264  0.0226
  189POPC  H16X21848   5.423   5.590   8.382 -0.4674  1.3641  0.1606
  189POPC  H16Y21849   5.369   5.509   8.536 -1.4118  1.6634 -0.3805
  189POPC  H16Z21850   5.541   5.521   8.488  0.2924  1.5146 -1.4140
  190POPC     N21851   3.248   3.735  11.421 -0.1432  0.2762  0.1281
  190POPC   C1221852   3.250   3.615  11.319 -0.0096 -0.7038 -0.7387
  190POPC  H12A21853   3.163   3.561  11.351  0.2652  0.3774  2.1880
  190POPC  H12B21854   3.342   3.565  11.346 -1.2251 -2.5840  0.0719
  190POPC   C1321855   3.274   3.687  11.561 -0.0727 -0.1207 -0.7500
  190POPC  H13A21856   3.373   3.644  11.567 -1.2936 -2.9942  0.9687
  190POPC  H13B21857   3.254   3.759  11.639 -0.7158 -1.9121  0.8494
  190POPC  H13C21858   3.215   3.605  11.600  0.8339  0.6534  2.5759
  190POPC   C1421859   3.343   3.837  11.388 -0.3635 -0.4817  0.0047
  190POPC  H14A21860   3.350   3.854  11.282  2.2251  0.8289  0.2920
  190POPC  H14B21861   3.312   3.931  11.430  1.7642  1.4104 -2.3182
  190POPC  H14C21862   3.440   3.823  11.433 -0.7411 -1.0112  0.6679
  190POPC   C1521863   3.110   3.795  11.417  0.0307  0.1689  0.0326
  190POPC  H15A21864   3.084   3.812  11.313 -0.8849 -1.1622  0.0214
  190POPC  H15B21865   3.109   3.890  11.468 -0.2869 -0.1192  0.5737
  190POPC  H15C21866   3.043   3.722  11.459  0.7201 -1.5510 -1.6752
  190POPC   C1121867   3.249   3.652  11.167 -0.0960 -0.1541 -0.5001
  190POPC  H11A21868   3.266   3.556  11.114  0.3868  0.8822 -2.3114
  190POPC  H11B21869   3.340   3.710  11.139  0.2939 -0.2128  0.5843
  190POPC     P21870   3.011   3.636  11.052  0.0213 -0.2770  0.2337
  190POPC   O1321871   2.908   3.743  11.032 -0.3736  0.1109 -0.1281
  190POPC   O1421872   2.972   3.520  11.124 -0.1043 -0.0035 -0.8730
  190POPC   O1221873   3.127   3.711  11.127  0.9252  0.1297  0.1775
  190POPC   O1121874   3.081   3.608  10.912 -0.5016 -0.0769  0.0039
  190POPC    C121875   3.139   3.705  10.825  0.6674  0.0000  0.3637
  190POPC    HA21876   3.232   3.663  10.782 -0.3097 -1.8850 -0.0178
  190POPC    HB21877   3.164   3.807  10.861 -0.8726  1.3330 -2.0530
  190POPC    C221878   3.054   3.730  10.687 -0.4440  0.2824 -0.2931
  190POPC    HS21879   2.967   3.792  10.715  1.4464  2.9839 -0.0030
  190POPC   O2121880   3.018   3.593  10.655  0.1571  0.3254 -0.3071
  190POPC   C2121881   2.903   3.587  10.588  0.8312 -0.0026  1.7366
  190POPC   O2221882   2.841   3.685  10.544 -0.1810  0.4424 -0.2068
  190POPC   C2221883   2.864   3.441  10.576 -0.4225 -0.6019 -0.1636
  190POPC   H2R21884   2.832   3.394  10.671  1.5843 -0.9766  0.3752
  190POPC   H2S21885   2.955   3.383  10.550 -0.1776 -0.7342  0.9476
  190POPC    C321886   3.137   3.803  10.577 -0.2281 -0.2475  0.0393
  190POPC    HX21887   3.239   3.761  10.561 -0.3698 -0.1760 -1.1779
  190POPC    HY21888   3.156   3.905  10.615 -0.3708  0.4817 -1.7779
  190POPC   O3121889   3.082   3.810  10.440  0.1053  0.1320 -0.3966
  190POPC   C3121890   3.121   3.707  10.358  1.0795 -0.6008 -0.2360
  190POPC   O3221891   3.180   3.605  10.391 -1.2972  0.2149 -0.1495
  190POPC   C3221892   3.062   3.735  10.215  0.5729  0.3590 -0.1992
  190POPC   H2X21893   3.073   3.838  10.176  2.0945  0.3248  0.0921
  190POPC   H2Y21894   2.952   3.729  10.232  0.7283  1.3489  1.3555
  190POPC   C2321895   2.761   3.426  10.459 -0.1797  0.3540 -0.1499
  190POPC   H3R21896   2.697   3.517  10.457  0.6301  0.9887  1.2008
  190POPC   H3S21897   2.707   3.333  10.484  0.7784 -0.1408  0.1572
  190POPC   C2421898   2.823   3.421  10.320 -0.0126  0.2677 -0.6949
  190POPC   H4R21899   2.892   3.335  10.321  1.4640  1.3709 -1.9032
  190POPC   H4S21900   2.877   3.516  10.296  0.9006  0.8876  3.2347
  190POPC   C2521901   2.723   3.408  10.211 -0.1917 -0.7334 -0.4154
  190POPC   H5R21902   2.655   3.322  10.232 -0.2867 -0.3122  1.1180
  190POPC   H5S21903   2.772   3.389  10.113  1.3574 -0.7457  0.3350
  190POPC   C2621904   2.625   3.536  10.195 -0.6197 -0.4381  0.2295
  190POPC   H6R21905   2.680   3.632  10.207  0.9888 -1.3306  0.3186
  190POPC   H6S21906   2.572   3.536  10.293 -0.4414 -0.8750  0.3317
  190POPC   C2721907   2.519   3.534  10.083 -0.2222  0.4040 -0.1301
  190POPC   H7R21908   2.438   3.608  10.099 -0.8214 -0.0622 -0.9211
  190POPC   H7S21909   2.465   3.437  10.087 -1.4307  1.1177  1.5341
  190POPC   C2821910   2.569   3.537   9.941  0.1638 -0.7662 -0.3959
  190POPC   H8R21911   2.479   3.520   9.879 -0.7883  0.0618  0.7216
  190POPC   H8S21912   2.636   3.448   9.934 -0.8094 -1.4361 -1.5180
  190POPC   C2921913   2.629   3.673   9.913 -1.0262  0.2286 -0.8484
  190POPC   H9121914   2.628   3.744   9.998 -1.0902  0.6354 -1.1870
  190POPC  C21021915   2.680   3.717   9.799  0.5366 -0.0714  0.5656
  190POPC  H10121916   2.726   3.816   9.788  1.1959 -0.5563 -1.4339
  190POPC  C21121917   2.684   3.636   9.670  0.0901 -0.0810  0.2920
  190POPC  H11R21918   2.609   3.554   9.665  1.9429 -1.7940 -0.9004
  190POPC  H11S21919   2.788   3.598   9.663  0.2193 -0.0287  1.6727
  190POPC  C21221920   2.660   3.704   9.539 -0.4178  0.4958  0.0796
  190POPC  H12R21921   2.563   3.757   9.529 -0.6269  0.1062  0.0550
  190POPC  H12S21922   2.678   3.628   9.460  0.5985  1.9419 -1.1539
  190POPC  C21321923   2.766   3.812   9.506  0.1140 -0.0227  0.4249
  190POPC  H13R21924   2.868   3.769   9.518  0.1566  0.3337  1.4337
  190POPC  H13S21925   2.767   3.892   9.583 -0.8640 -0.6216  1.0970
  190POPC  C21421926   2.751   3.863   9.365 -0.1545 -0.1220  0.1967
  190POPC  H14R21927   2.650   3.908   9.360  0.9908  2.7286  0.6752
  190POPC  H14S21928   2.758   3.781   9.290  1.2953  0.5289 -0.4306
  190POPC  C21521929   2.843   3.978   9.336 -0.2910 -0.4358  0.0989
  190POPC  H15R21930   2.945   3.941   9.312 -1.0479  0.4648 -5.8512
  190POPC  H15S21931   2.859   4.044   9.424 -0.1712 -0.7026  0.2822
  190POPC  C21621932   2.806   4.065   9.219 -0.2030 -0.3537  0.1979
  190POPC  H16R21933   2.699   4.091   9.226 -0.0900  1.0294 -2.1623
  190POPC  H16S21934   2.825   4.013   9.122 -1.2733  1.0354 -0.7989
  190POPC  C21721935   2.881   4.201   9.218 -0.4565 -0.6215 -0.2303
  190POPC  H17R21936   2.825   4.241   9.131  2.2690 -1.5346 -2.5745
  190POPC  H17S21937   2.988   4.180   9.194  0.0491  0.2280  1.1668
  190POPC  C21821938   2.866   4.282   9.345 -0.0918  0.1286 -0.0121
  190POPC  H18R21939   2.758   4.286   9.373  0.0568  1.1415  0.4501
  190POPC  H18S21940   2.896   4.384   9.314  0.0321 -0.2403 -1.1587
  190POPC  H18T21941   2.928   4.237   9.424  2.0453 -0.0347 -1.6980
  190POPC   C3321942   3.117   3.630  10.119 -0.6112  0.0384 -1.1981
  190POPC   H3X21943   3.086   3.528  10.150 -1.6035 -0.0020 -2.2230
  190POPC   H3Y21944   3.227   3.641  10.126 -0.8639  1.6659  3.0692
  190POPC   C3421945   3.078   3.651   9.978  0.5158  0.2675  0.5445
  190POPC   H4X21946   3.082   3.759   9.948 -1.3604  0.2708  0.1488
  190POPC   H4Y21947   2.970   3.625   9.975  0.3139  1.1090 -1.8063
  190POPC   C3521948   3.145   3.558   9.876 -0.0449  0.4528  0.9553
  190POPC   H5X21949   3.158   3.456   9.918 -0.1820  0.3506  0.7511
  190POPC   H5Y21950   3.249   3.597   9.869  0.9581 -1.5916  3.1249
  190POPC   C3621951   3.064   3.556   9.737  0.4035 -0.7742 -0.6155
  190POPC   H6X21952   3.075   3.654   9.687  0.2709  0.6326  1.9337
  190POPC   H6Y21953   2.962   3.547   9.779  1.0070 -0.1458  1.0980
  190POPC   C3721954   3.094   3.435   9.656 -0.0276 -0.3210 -0.9404
  190POPC   H7X21955   3.052   3.347   9.709 -0.9928 -0.1125 -1.3158
  190POPC   H7Y21956   3.201   3.429   9.630  0.4425  2.1199  0.1442
  190POPC   C3821957   3.009   3.447   9.525  1.1069 -0.1803  0.1816
  190POPC   H8X21958   3.032   3.542   9.473 -1.7836  0.3367 -0.2770
  190POPC   H8Y21959   2.903   3.452   9.557  1.2344 -0.6925  0.6989
  190POPC   C3921960   3.038   3.334   9.434 -0.3274  0.9745 -0.3876
  190POPC   H9X21961   2.981   3.246   9.468  2.0821  0.0510  1.5448
  190POPC   H9Y21962   3.145   3.307   9.424 -0.3550  1.3185 -1.8656
  190POPC  C31021963   2.990   3.372   9.293  0.1416  0.3920  0.4460
  190POPC  H10X21964   2.890   3.420   9.298  0.7017  1.6599 -0.0193
  190POPC  H10Y21965   2.982   3.280   9.232 -0.2601  0.3916  0.5003
  190POPC  C31121966   3.080   3.470   9.215  0.7864  0.0250 -0.5479
  190POPC  H11X21967   3.134   3.417   9.134  0.8694  0.9263 -1.0916
  190POPC  H11Y21968   3.154   3.528   9.275 -0.2354  0.3211  0.4510
  190POPC  C31221969   2.993   3.570   9.141 -0.1133 -0.2143 -0.7673
  190POPC  H12X21970   2.937   3.632   9.214  3.1474  2.9736 -0.6304
  190POPC  H12Y21971   2.924   3.518   9.072 -1.1646  0.6154 -0.3717
  190POPC  C31321972   3.073   3.651   9.049 -0.3626 -0.0749 -0.0224
  190POPC  H13X21973   3.127   3.595   8.970 -0.1376  1.1971 -0.8033
  190POPC  H13Y21974   3.154   3.701   9.105  0.6896 -0.0528 -1.5151
  190POPC  C31421975   2.996   3.765   8.978 -0.6185 -0.5825 -0.2667
  190POPC  H14X21976   3.074   3.842   8.961 -1.2821 -0.5044 -3.4707
  190POPC  H14Y21977   2.921   3.808   9.048  1.6315 -0.1069  2.0075
  190POPC  C31521978   2.922   3.721   8.848  0.2993 -0.7561 -0.0164
  190POPC  H15X21979   2.853   3.644   8.887  2.0795 -1.3857  2.1478
  190POPC  H15Y21980   2.998   3.662   8.791 -0.2212 -1.7305  0.2777
  190POPC  C31621981   2.862   3.823   8.753 -0.1482 -0.4621 -0.4618
  190POPC  H16X21982   2.803   3.769   8.676  0.3567 -1.2082 -0.3349
  190POPC  H16Y21983   2.947   3.876   8.705  0.6946 -2.3735 -1.1801
  190POPC  H16Z21984   2.808   3.904   8.807 -0.7980 -0.6149 -0.8747
  191POPC     N21985   4.784   2.712   5.956  0.2159  0.3963  0.0420
  191POPC   C1221986   4.804   2.696   6.104  0.1596 -0.3099 -0.2833
  191POPC  H12A21987   4.706   2.678   6.147 -0.1075  0.4943 -0.5343
  191POPC  H12B21988   4.830   2.791   6.149  0.1842 -0.3291 -0.2568
  191POPC   C1321989   4.711   2.838   5.926 -0.5039  0.6595 -0.2675
  191POPC  H13A21990   4.696   2.842   5.819 -0.0481  0.8038 -0.3282
  191POPC  H13B21991   4.615   2.850   5.973 -1.2909 -1.7244 -1.1051
  191POPC  H13C21992   4.773   2.921   5.957 -1.7615  2.0291 -1.2671
  191POPC   C1421993   4.915   2.726   5.880  0.4554  0.2855 -0.4849
  191POPC  H14A21994   4.965   2.807   5.931 -0.5073 -0.5674  1.9723
  191POPC  H14B21995   4.969   2.635   5.899 -0.8310 -0.4810 -0.3780
  191POPC  H14C21996   4.905   2.755   5.776  0.2314  0.2266 -0.4789
  191POPC   C1521997   4.707   2.599   5.897  0.2227 -0.0948 -0.1805
  191POPC  H15A21998   4.719   2.602   5.790  0.7320 -1.0799 -0.1683
  191POPC  H15B21999   4.602   2.608   5.917  0.2403 -0.7069  0.2415
  191POPC  H15C22000   4.751   2.504   5.924  1.2602  0.4354  0.0521
  191POPC   C1122001   4.902   2.592   6.159  0.7077  0.0084  0.1472
  191POPC  H11A22002   4.863   2.496   6.119  3.3690 -1.5250  0.9870
  191POPC  H11B22003   4.888   2.589   6.269  0.6985 -1.6050  0.1242
  191POPC     P22004   5.122   2.738   6.184  0.3192  0.0183  0.5467
  191POPC   O1322005   5.029   2.847   6.231 -0.3127 -0.3883 -0.3532
  191POPC   O1422006   5.224   2.782   6.094 -0.1274  0.8636  0.7176
  191POPC   O1222007   5.032   2.621   6.114 -0.0259  0.3851  0.0741
  191POPC   O1122008   5.200   2.675   6.300 -0.3306  0.4969 -0.0012
  191POPC    C122009   5.171   2.540   6.352  0.0029 -0.5656  0.6484
  191POPC    HA22010   5.250   2.469   6.319 -0.0022  0.8121 -2.7916
  191POPC    HB22011   5.070   2.499   6.328 -0.3882  1.0405 -0.5988
  191POPC    C222012   5.177   2.537   6.511  0.0618 -0.0804 -0.3740
  191POPC    HS22013   5.116   2.628   6.528 -0.0482  0.3270 -2.6594
  191POPC   O2122014   5.310   2.542   6.555 -0.1063 -0.4624 -0.5365
  191POPC   C2122015   5.336   2.603   6.672 -1.2344 -0.0568 -0.1942
  191POPC   O2222016   5.250   2.660   6.738  0.0162 -0.2951  0.5109
  191POPC   C2222017   5.490   2.608   6.692 -0.1682  0.5331 -0.2016
  191POPC   H2R22018   5.524   2.709   6.661  1.2004  0.4723  0.9712
  191POPC   H2S22019   5.535   2.535   6.621  1.8201  0.7463  0.7576
  191POPC    C322020   5.103   2.409   6.556 -1.1519 -0.4501 -0.8761
  191POPC    HX22021   5.168   2.325   6.524  0.7211  1.1203 -1.4256
  191POPC    HY22022   5.003   2.395   6.510 -0.8254  0.1258 -1.7886
  191POPC   O3122023   5.089   2.397   6.701 -0.2076  0.5728  0.2995
  191POPC   C3122024   4.989   2.462   6.756  0.1515 -0.1067 -0.3634
  191POPC   O3222025   4.920   2.543   6.701 -0.5216  0.3877  0.3922
  191POPC   C3222026   4.963   2.434   6.902 -0.0484 -0.7041 -0.2747
  191POPC   H2X22027   5.032   2.355   6.938  1.5466  0.1360 -1.3695
  191POPC   H2Y22028   4.859   2.400   6.922  0.3007 -1.2206  0.7489
  191POPC   C2322029   5.530   2.578   6.838 -0.3026 -0.1081 -0.1444
  191POPC   H3R22030   5.477   2.653   6.900 -3.3463 -2.0045 -0.2122
  191POPC   H3S22031   5.638   2.604   6.838  0.1602 -1.6956  1.8151
  191POPC   C2422032   5.514   2.437   6.893 -0.0891  0.0195  0.1187
  191POPC   H4R22033   5.547   2.369   6.811  1.5976  0.2562  0.5779
  191POPC   H4S22034   5.407   2.409   6.908  0.2214 -1.0381  0.4815
  191POPC   C2522035   5.580   2.416   7.029 -0.5922  0.6034 -0.1160
  191POPC   H5R22036   5.677   2.467   7.048 -0.1002 -0.7261  1.1527
  191POPC   H5S22037   5.591   2.309   7.055 -0.5699  1.0929  2.0829
  191POPC   C2622038   5.505   2.482   7.150  0.1108 -0.2056  0.1286
  191POPC   H6R22039   5.415   2.424   7.181 -0.5809  0.2039 -1.0515
  191POPC   H6S22040   5.472   2.584   7.123 -0.7472 -0.8158 -1.2306
  191POPC   C2722041   5.598   2.489   7.277  0.1257  0.3723 -0.1103
  191POPC   H7R22042   5.698   2.528   7.246  0.2644  1.1805  1.2655
  191POPC   H7S22043   5.615   2.384   7.310 -0.7303  0.0152 -0.7683
  191POPC   C2822044   5.546   2.587   7.383  0.2325  0.1597 -0.5359
  191POPC   H8R22045   5.571   2.689   7.347  4.3968 -0.1981  0.8065
  191POPC   H8S22046   5.613   2.576   7.471  0.3121 -0.3573 -0.6565
  191POPC   C2922047   5.398   2.565   7.419 -0.0173 -0.2130 -0.3563
  191POPC   H9122048   5.329   2.575   7.334 -0.1177 -1.3890 -0.4331
  191POPC  C21022049   5.336   2.533   7.538 -0.2081  0.3710  0.0819
  191POPC  H10122050   5.227   2.526   7.536 -0.1234 -1.7323  0.1463
  191POPC  C21122051   5.401   2.512   7.672 -0.6032  0.0452  0.0071
  191POPC  H11R22052   5.470   2.425   7.679  0.6091  1.0519  0.8980
  191POPC  H11S22053   5.321   2.493   7.746 -1.3117  2.4161 -0.0608
  191POPC  C21222054   5.453   2.650   7.716 -0.5580  0.4614 -0.3149
  191POPC  H12R22055   5.374   2.726   7.726 -0.6598  0.2807  0.2984
  191POPC  H12S22056   5.523   2.697   7.643 -1.4042  0.1108 -1.3768
  191POPC  C21322057   5.528   2.639   7.851 -0.1650  0.6831 -0.3616
  191POPC  H13R22058   5.564   2.741   7.877  1.9860 -0.0130 -0.3904
  191POPC  H13S22059   5.608   2.563   7.849 -1.2279 -0.5015  0.5483
  191POPC  C21422060   5.433   2.597   7.971  0.2826  0.5180  0.9537
  191POPC  H14R22061   5.400   2.493   7.951 -0.5289  0.4389  2.5419
  191POPC  H14S22062   5.348   2.667   7.964  1.9567  2.5432 -0.3713
  191POPC  C21522063   5.484   2.602   8.117 -0.3315 -0.4997 -0.0599
  191POPC  H15R22064   5.505   2.709   8.140  0.3865 -0.3348 -1.3902
  191POPC  H15S22065   5.582   2.550   8.113  0.4068  0.8328  0.0811
  191POPC  C21622066   5.382   2.541   8.213  0.4569  0.3813  0.4886
  191POPC  H16R22067   5.360   2.438   8.178 -2.0265  0.4366  1.6535
  191POPC  H16S22068   5.281   2.589   8.210 -0.1265 -0.8526 -2.5221
  191POPC  C21722069   5.426   2.535   8.359  0.6849  0.3328  0.0720
  191POPC  H17R22070   5.467   2.635   8.386  0.2432  0.9781 -1.4768
  191POPC  H17S22071   5.498   2.452   8.372 -1.3937 -1.4878  0.4450
  191POPC  C21822072   5.303   2.505   8.444 -0.2578 -0.6155 -0.0658
  191POPC  H18R22073   5.304   2.497   8.554 -0.8973 -1.7743 -0.1216
  191POPC  H18S22074   5.261   2.406   8.416 -2.2250 -0.1586  1.1004
  191POPC  H18T22075   5.236   2.591   8.421  0.2061 -0.3633 -0.5021
  191POPC   C3322076   4.986   2.554   6.995  0.2696  0.2709  0.2308
  191POPC   H3X22077   4.912   2.633   6.972 -0.3929 -0.5713 -0.6448
  191POPC   H3Y22078   5.094   2.580   6.997  0.9525 -2.3031  0.9378
  191POPC   C3422079   4.947   2.527   7.142 -0.3078 -0.5329  0.3746
  191POPC   H4X22080   5.020   2.447   7.165  0.8294 -0.5129 -2.6843
  191POPC   H4Y22081   4.845   2.487   7.154  0.0300 -1.4503  0.2160
  191POPC   C3522082   4.969   2.652   7.226 -0.7607  0.0267  0.4658
  191POPC   H5X22083   4.885   2.718   7.197 -0.1021 -0.3468 -2.6252
  191POPC   H5Y22084   5.063   2.695   7.186 -1.0488 -0.6482 -0.9849
  191POPC   C3622085   4.992   2.633   7.373 -0.8646  0.1862 -0.7736
  191POPC   H6X22086   5.065   2.550   7.384  0.4077  1.2964 -0.4869
  191POPC   H6Y22087   4.899   2.608   7.427 -0.1704  0.1347  0.4498
  191POPC   C3722088   5.067   2.763   7.430  0.7514  0.0173 -0.0291
  191POPC   H7X22089   4.998   2.844   7.401  0.1870  0.1980  1.7049
  191POPC   H7Y22090   5.167   2.779   7.383  1.7540 -2.8109  0.8832
  191POPC   C3822091   5.073   2.759   7.585  0.5881 -0.2845  0.5357
  191POPC   H8X22092   5.168   2.810   7.614  0.9453  0.3559 -1.5942
  191POPC   H8Y22093   5.075   2.653   7.618  0.3704 -0.5089 -0.1621
  191POPC   C3922094   4.952   2.810   7.673 -0.4287  0.1206 -0.3289
  191POPC   H9X22095   4.872   2.749   7.625 -0.9995 -0.2399  1.0385
  191POPC   H9Y22096   4.943   2.920   7.656 -2.9568 -0.0222 -0.2785
  191POPC  C31022097   4.967   2.784   7.821  0.0675 -0.4702  0.4109
  191POPC  H10X22098   4.982   2.675   7.840  0.4536 -0.1705  1.9576
  191POPC  H10Y22099   4.875   2.802   7.881 -0.6793 -1.5672 -0.3645
  191POPC  C31122100   5.084   2.867   7.884 -0.0024 -0.4506  0.7648
  191POPC  H11X22101   5.108   2.952   7.818  1.0905 -1.3203  0.0221
  191POPC  H11Y22102   5.177   2.807   7.878  1.5385  1.9548 -1.1376
  191POPC  C31222103   5.044   2.902   8.032 -0.2167  0.5428 -0.1992
  191POPC  H12X22104   5.028   2.811   8.094  0.1538 -0.5844 -1.6990
  191POPC  H12Y22105   4.942   2.946   8.027  0.0780  1.1137 -1.7983
  191POPC  C31322106   5.137   3.002   8.094 -0.0638 -0.6876 -0.6511
  191POPC  H13X22107   5.090   3.086   8.150  0.8838 -0.5890  0.0239
  191POPC  H13Y22108   5.193   3.061   8.019  2.1671 -1.8722 -0.0143
  191POPC  C31422109   5.237   2.942   8.189  0.0800 -0.5131 -0.2563
  191POPC  H14X22110   5.279   2.848   8.147 -0.4973 -0.2035 -1.6106
  191POPC  H14Y22111   5.185   2.920   8.284  0.3096  1.0026  0.2427
  191POPC  C31522112   5.358   3.041   8.225  0.9718  0.2053  0.3056
  191POPC  H15X22113   5.315   3.127   8.280  0.8044 -0.3930  1.1196
  191POPC  H15Y22114   5.418   3.071   8.136  1.0732 -0.6664  0.0728
  191POPC  C31622115   5.447   2.967   8.326 -0.2727 -0.0449 -0.0173
  191POPC  H16X22116   5.387   2.906   8.396  1.8647 -1.5085  0.6132
  191POPC  H16Y22117   5.516   3.041   8.373  0.6731  0.1848 -1.6826
  191POPC  H16Z22118   5.507   2.890   8.273 -1.2642 -2.4110  2.1315
  192POPC     N22119   6.406   4.229   5.956 -0.6764 -0.1634  0.4473
  192POPC   C1222120   6.401   4.366   6.007 -0.0656 -0.1343 -0.0296
  192POPC  H12A22121   6.299   4.385   6.038 -0.8836 -0.0765 -2.5818
  192POPC  H12B22122   6.408   4.438   5.927  1.2451 -0.5811 -0.3471
  192POPC   C1322123   6.303   4.209   5.848 -0.0426  0.3143 -0.9530
  192POPC  H13A22124   6.310   4.109   5.807 -1.0688  0.3886 -1.3471
  192POPC  H13B22125   6.203   4.237   5.879 -1.0023 -2.6788 -1.0455
  192POPC  H13C22126   6.334   4.276   5.770 -1.4627  2.0160 -0.1329
  192POPC   C1422127   6.546   4.200   5.896  0.2015  0.0325  0.2875
  192POPC  H14A22128   6.547   4.101   5.853 -1.7515 -0.2055  0.7173
  192POPC  H14B22129   6.571   4.265   5.812  2.3501  0.5687  1.2643
  192POPC  H14C22130   6.622   4.226   5.968 -1.6589  0.8500  2.0299
  192POPC   C1522131   6.383   4.123   6.066  0.6420 -0.4944  0.5821
  192POPC  H15A22132   6.284   4.132   6.109  1.2830 -1.5687  2.3905
  192POPC  H15B22133   6.449   4.142   6.149  0.3562  0.8493  0.5223
  192POPC  H15C22134   6.389   4.020   6.035  0.4740 -0.3478  0.0479
  192POPC   C1122135   6.500   4.419   6.116  0.6254  0.1003 -0.0873
  192POPC  H11A22136   6.449   4.380   6.207  0.0649  2.2880  0.5972
  192POPC  H11B22137   6.510   4.529   6.120  0.5297  0.0702  2.0010
  192POPC     P22138   6.704   4.286   6.231  0.1073 -0.5668  0.2071
  192POPC   O1322139   6.852   4.305   6.220 -0.2489  0.0525 -0.1688
  192POPC   O1422140   6.650   4.146   6.231 -0.9469  0.1722 -0.6173
  192POPC   O1222141   6.634   4.366   6.113  0.6305 -0.0977  0.5440
  192POPC   O1122142   6.651   4.359   6.358  0.1951 -1.0228 -0.0862
  192POPC    C122143   6.669   4.499   6.394  0.5145 -0.4270 -0.5916
  192POPC    HA22144   6.568   4.545   6.403  0.8461 -0.0392  2.1919
  192POPC    HB22145   6.735   4.554   6.324  2.4811  0.7896  2.0244
  192POPC    C222146   6.729   4.515   6.541 -0.2712 -0.5447 -0.4759
  192POPC    HS22147   6.661   4.575   6.605 -0.3726 -1.1407 -0.0102
  192POPC   O2122148   6.865   4.574   6.531  0.4528 -0.1336 -0.5256
  192POPC   C2122149   6.872   4.703   6.505 -0.4100  0.6057 -0.2017
  192POPC   O2222150   6.782   4.778   6.491 -0.2118 -0.1905 -0.2359
  192POPC   C2222151   7.019   4.742   6.521  0.1093 -0.0041 -0.3112
  192POPC   H2R22152   7.029   4.818   6.440 -0.5146 -0.7203 -1.0851
  192POPC   H2S22153   7.085   4.655   6.501 -0.7129 -0.7064 -0.0406
  192POPC    C322154   6.743   4.374   6.615  0.2295  0.2165 -0.4165
  192POPC    HX22155   6.811   4.311   6.553  0.2632 -0.8144  0.6284
  192POPC    HY22156   6.643   4.328   6.601 -0.9618  2.0634  1.4069
  192POPC   O3122157   6.760   4.378   6.754  0.3673 -0.1381  0.1158
  192POPC   C3122158   6.881   4.366   6.795  0.1821  0.3922  0.1195
  192POPC   O3222159   6.972   4.328   6.727 -0.0307  0.2481 -0.3717
  192POPC   C3222160   6.889   4.361   6.951  0.2577 -0.7065  0.7278
  192POPC   H2X22161   6.845   4.266   6.987  0.7929 -1.0516  0.4786
  192POPC   H2Y22162   6.837   4.450   6.995  1.1991 -0.0712  0.5921
  192POPC   C2322163   7.053   4.815   6.650  0.2908 -0.5907 -0.8400
  192POPC   H3R22164   6.966   4.875   6.683  2.0619  1.2059  0.9134
  192POPC   H3S22165   7.135   4.888   6.633  0.1866 -0.3871 -0.4692
  192POPC   C2422166   7.091   4.738   6.771  0.6707  0.1391 -0.3148
  192POPC   H4R22167   7.149   4.646   6.746 -0.5421  0.1490 -3.7743
  192POPC   H4S22168   6.999   4.696   6.817  0.5782 -0.8706 -1.3566
  192POPC   C2522169   7.188   4.815   6.873 -0.0452 -0.2992 -0.5832
  192POPC   H5R22170   7.164   4.922   6.864 -0.8892 -0.6551 -3.7062
  192POPC   H5S22171   7.293   4.798   6.840  0.5444 -0.0975  1.0980
  192POPC   C2622172   7.186   4.771   7.022 -0.3964  0.0080  0.4982
  192POPC   H6R22173   7.232   4.670   7.025 -0.7712 -0.1506  0.9632
  192POPC   H6S22174   7.088   4.765   7.074 -0.9302  1.0302 -0.3454
  192POPC   C2722175   7.283   4.852   7.112  0.7981  1.0009  0.2433
  192POPC   H7R22176   7.249   4.956   7.136 -1.2973  0.3236  0.4185
  192POPC   H7S22177   7.377   4.856   7.054  0.4505 -1.0812 -0.5461
  192POPC   C2822178   7.314   4.786   7.248  0.1099  0.6060  0.2114
  192POPC   H8R22179   7.405   4.829   7.294 -0.2562  1.4511  0.1725
  192POPC   H8S22180   7.350   4.682   7.236 -2.0395 -0.1609 -0.1072
  192POPC   C2922181   7.195   4.791   7.341  0.0966  1.0490 -0.0936
  192POPC   H9122182   7.105   4.744   7.300 -0.9894  2.6560  0.3475
  192POPC  C21022183   7.197   4.817   7.470 -0.5177 -0.6069 -0.6710
  192POPC  H10122184   7.106   4.837   7.528 -0.7652 -0.1723 -1.1991
  192POPC  C21122185   7.324   4.843   7.539 -0.9325  0.2039 -0.8772
  192POPC  H11R22186   7.351   4.947   7.510 -1.8979  0.2144 -1.8065
  192POPC  H11S22187   7.406   4.772   7.515 -1.2128 -0.3492 -0.2268
  192POPC  C21222188   7.303   4.853   7.695 -0.4732  0.2599  0.7406
  192POPC  H12R22189   7.407   4.852   7.735  1.0417 -0.8542 -2.7828
  192POPC  H12S22190   7.254   4.758   7.726 -0.9536  0.3956  0.3914
  192POPC  C21322191   7.223   4.971   7.747  0.1910 -0.3508  0.5573
  192POPC  H13R22192   7.124   4.977   7.698 -0.5997  1.7112  2.2605
  192POPC  H13S22193   7.264   5.066   7.709  2.0878 -2.3644 -2.9000
  192POPC  C21422194   7.195   4.970   7.895 -0.3351  0.1132  0.4485
  192POPC  H14R22195   7.294   4.958   7.943 -0.1453  2.7511  0.8766
  192POPC  H14S22196   7.126   4.887   7.920 -1.5542  1.0523  0.3119
  192POPC  C21522197   7.153   5.101   7.954 -0.1309 -0.6790 -0.1430
  192POPC  H15R22198   7.051   5.129   7.920  0.8528 -0.7171 -3.5517
  192POPC  H15S22199   7.219   5.177   7.908 -0.7545 -0.6306 -0.9917
  192POPC  C21622200   7.150   5.104   8.110  0.7102 -0.1119 -0.0114
  192POPC  H16R22201   7.252   5.081   8.148  1.7822  2.1423 -1.3131
  192POPC  H16S22202   7.083   5.021   8.142 -0.8335  0.5551 -1.4104
  192POPC  C21722203   7.098   5.240   8.165  0.0510  0.5415 -0.1803
  192POPC  H17R22204   7.056   5.222   8.266 -1.8609  0.1922 -0.9990
  192POPC  H17S22205   7.015   5.268   8.097  1.1986  2.3649 -0.9246
  192POPC  C21822206   7.206   5.348   8.171  0.3423  0.6719 -1.0722
  192POPC  H18R22207   7.290   5.306   8.230 -1.3209 -0.1264  0.8591
  192POPC  H18S22208   7.165   5.445   8.208  0.5456  1.1396 -2.0601
  192POPC  H18T22209   7.241   5.356   8.066  0.9995 -1.0544 -1.0118
  192POPC   C3322210   7.039   4.374   7.006 -0.3006  0.4368 -0.0836
  192POPC   H3X22211   7.081   4.476   6.991 -1.0716  1.0136  1.5444
  192POPC   H3Y22212   7.107   4.303   6.954 -0.1872 -0.5309  1.3538
  192POPC   C3422213   7.065   4.332   7.154 -0.2023 -0.3424 -0.7357
  192POPC   H4X22214   7.173   4.341   7.179  0.3213 -0.0909 -2.8362
  192POPC   H4Y22215   7.033   4.225   7.150  1.1312 -0.9240  2.0798
  192POPC   C3522216   6.978   4.404   7.262 -0.8120 -0.6861  0.2018
  192POPC   H5X22217   6.884   4.348   7.277 -1.4467  0.8161  2.2166
  192POPC   H5Y22218   6.955   4.507   7.226  1.5072 -0.3621 -0.5672
  192POPC   C3622219   7.045   4.419   7.397 -0.9626 -0.3694  0.5088
  192POPC   H6X22220   7.119   4.501   7.403  1.2076 -2.2015  0.1974
  192POPC   H6Y22221   7.094   4.319   7.400 -0.0249  0.0555 -0.2509
  192POPC   C3722222   6.948   4.427   7.511  0.2196  0.6185  0.3752
  192POPC   H7X22223   6.863   4.356   7.501  0.9209  0.0646 -2.5548
  192POPC   H7Y22224   6.884   4.518   7.506 -0.6752  0.0216  0.6807
  192POPC   C3822225   7.004   4.406   7.652  0.3914 -0.0284 -0.1713
  192POPC   H8X22226   7.037   4.498   7.704 -0.5652  0.1935  0.0779
  192POPC   H8Y22227   7.092   4.340   7.642  0.1875 -0.3701  0.2626
  192POPC   C3922228   6.906   4.333   7.744  0.8259 -0.0047  0.2198
  192POPC   H9X22229   6.871   4.245   7.686 -0.7475  1.3199 -0.9370
  192POPC   H9Y22230   6.815   4.396   7.754  1.0704  0.4215 -0.1837
  192POPC  C31022231   6.959   4.280   7.873 -0.4019 -0.1834 -0.1464
  192POPC  H10X22232   6.979   4.366   7.941 -0.0560  0.5943 -1.1988
  192POPC  H10Y22233   7.054   4.223   7.863  0.2340  0.7837  0.1554
  192POPC  C31122234   6.857   4.195   7.950 -0.6196 -0.1434 -0.1922
  192POPC  H11X22235   6.834   4.104   7.891  0.2008 -0.1436 -0.5217
  192POPC  H11Y22236   6.760   4.250   7.959 -1.3459 -1.4251 -0.0098
  192POPC  C31222237   6.901   4.155   8.091 -0.2509 -0.2421 -0.7153
  192POPC  H12X22238   6.947   4.241   8.144  0.6645 -0.9516 -0.3122
  192POPC  H12Y22239   6.980   4.078   8.073 -1.6304 -0.9306 -4.7383
  192POPC  C31322240   6.786   4.100   8.176  0.3956 -0.2517 -0.4052
  192POPC  H13X22241   6.771   3.993   8.154 -1.8203  0.1080 -0.9570
  192POPC  H13Y22242   6.691   4.149   8.143 -0.2944 -0.4103  1.2374
  192POPC  C31422243   6.810   4.109   8.330  0.2034  0.0684  0.8900
  192POPC  H14X22244   6.800   4.215   8.361 -3.4270 -0.0617  0.5540
  192POPC  H14Y22245   6.910   4.062   8.346 -0.4666 -0.9321  2.4306
  192POPC  C31522246   6.703   4.020   8.404 -0.2266 -0.0599 -0.1874
  192POPC  H15X22247   6.606   4.012   8.349 -0.2977 -2.3318  0.1745
  192POPC  H15Y22248   6.682   4.076   8.498 -0.1488  3.4202 -2.0642
  192POPC  C31622249   6.740   3.879   8.437 -0.4438 -0.1999 -0.0776
  192POPC  H16X22250   6.760   3.826   8.342 -0.6027 -0.6799  0.1531
  192POPC  H16Y22251   6.664   3.824   8.496 -0.6252  0.4270  0.2874
  192POPC  H16Z22252   6.837   3.878   8.492 -0.2349 -0.1900 -0.4416
  193SOD    SOD22253   0.250   0.066  12.056  0.2603  0.1822 -0.0902
  194SOD    SOD22254   3.098   6.624   5.835 -0.3909 -0.5169 -0.1774
  195SOD    SOD22255   4.123   2.745   5.572 -0.5275 -0.1288 -0.1063
  196SOD    SOD22256   1.010   3.601   1.084  0.0492  0.0396 -0.4087
  197SOD    SOD22257   3.749   3.775   4.535 -0.0099 -0.6295  0.0759
  198SOD    SOD22258   5.685   6.686   1.164 -0.3419 -0.0645  0.2630
  199SOD    SOD22259   2.994   3.622  14.060 -0.0702  0.0526 -0.1172
  200SOD    SOD22260   2.852   4.727   0.021 -0.5871 -0.3761  0.0120
  201SOD    SOD22261   4.894   2.111  15.688 -0.0662 -0.2037  0.8053
  202SOD    SOD22262   0.730   5.794  15.323  0.3272  0.1037  0.1407
  203SOD    SOD22263   0.691   5.316   2.714 -0.0617  0.1587  0.2272
  204SOD    SOD22264   5.424   1.817  13.261  0.1804  0.0285  0.0056
  205SOD    SOD22265   6.023   1.205  10.978  0.1782  0.1606 -0.3142
  206SOD    SOD22266   5.797   6.386  11.091  0.2696 -0.0021 -0.4738
  207SOD    SOD22267   0.071   2.607  10.727 -0.0181 -0.5175  0.0060
  208SOD    SOD22268   2.467   6.652   5.711 -0.0146 -0.3248  0.4212
  209SOD    SOD22269   3.075   2.838  11.295  0.0151  0.1453 -0.5590
  210SOD    SOD22270   3.064   2.223  12.130  0.0720  0.5031 -0.0730
  211SOD    SOD22271   1.624   2.955   2.336  0.0766  0.5932 -0.0828
  212SOD    SOD22272   2.740   2.312   3.968 -0.0428 -0.2321  0.0398
  213SOD    SOD22273   4.890   4.140   2.841  0.0701  0.0038  0.4265
  214SOD    SOD22274   4.590   6.766   3.048 -0.5392  0.0141  0.1861
  215SOD    SOD22275   3.067   0.142  13.246 -0.0873  0.0837  0.0998
  216SOD    SOD22276   4.712   5.847  11.705  0.1573 -0.6099  0.0959
  217SOD    SOD22277   1.785   6.190  14.686 -0.1444 -0.1206  0.1501
  218SOD    SOD22278   1.281   6.031  10.537 -0.4074  0.0582 -0.0529
  219SOD    SOD22279   0.748   1.286  14.484  0.0477 -0.4044 -0.0890
  220SOD    SOD22280   3.241   6.105  15.708  0.0460  0.2292 -0.1276
  221SOD    SOD22281   2.870   3.484  16.959 -0.2407  0.7367 -0.3042
  222SOD    SOD22282   2.428   4.077   4.028 -0.2136 -0.6086 -0.0425
  223SOD    SOD22283   1.841   4.917  12.705  0.1390  0.0898 -0.1041
  224SOD    SOD22284   5.398   5.966   6.069 -0.2597 -0.2537  0.5738
  225SOD    SOD22285   4.263   0.787  12.761 -0.7234 -0.1622  0.1323
  226SOD    SOD22286   4.444   4.347  12.351  0.1193 -0.2557  0.0705
  227SOD    SOD22287   5.752   1.693   2.172  0.3617 -0.2555 -0.4095
  228SOD    SOD22288   0.083   4.630  11.465  0.0982 -0.6096 -0.2511
  229SOD    SOD22289   0.376   2.418   5.666  0.0975 -0.4021  0.1780
  230SOD    SOD22290   4.985   3.944   0.400 -0.1612 -0.0493 -0.5821
  231SOD    SOD22291   2.315   5.977  13.436 -0.4018  0.3174  0.0460
  232SOD    SOD22292   4.814   4.203  16.753  0.1322  0.5304  0.3972
  233SOD    SOD22293   2.746   3.092   5.418  0.4702 -0.5901 -0.2335
  234SOD    SOD22294   3.381   6.715   1.297 -0.5063  0.3643 -0.1459
  235SOD    SOD22295   0.998   2.567  10.717  0.5458  0.3229 -0.2191
  236SOD    SOD22296   1.718   2.255   6.696  0.0858  0.1070  0.2696
  237SOD    SOD22297   1.225   0.320   2.070 -0.2867  0.3866 -0.2459
  238SOD    SOD22298   1.501   5.397   2.140  0.5514 -0.2239 -0.3930
  239SOD    SOD22299   0.409   1.666   2.597 -0.1128  0.1076  0.0301
  240SOD    SOD22300   4.141   1.310   5.105  0.2218  0.3657 -0.3416
  241SOD    SOD22301   5.421   4.127   3.802 -0.2206 -0.2495 -0.4127
  242SOD    SOD22302   4.740   0.614   0.680 -0.0556 -0.3731 -0.2369
  243SOD    SOD22303   3.783   3.631   6.324  0.1365  0.1169  0.0870
  244SOD    SOD22304   2.060   0.970   5.484  0.2572  0.0369 -0.4570
  245SOD    SOD22305   5.631   3.208  14.356 -0.5635 -0.4010 -0.1260
  246SOD    SOD22306   0.607   0.775   3.321  1.0443  0.2576 -0.1276
  247SOD    SOD22307   3.663   3.424   4.393  0.0401 -0.2333 -0.2331
  248SOD    SOD22308   0.629   3.803  11.230  0.5525 -0.1916 -0.2553
  249SOD    SOD22309   1.672   1.310  12.991  0.6322  0.2740  0.0838
  250SOD    SOD22310   3.104   3.009   2.564 -0.8024 -0.1021 -0.1151
  251SOD    SOD22311   6.416   2.418  15.867  0.2651  0.0448 -0.2827
  252SOD    SOD22312   2.505   6.349   4.297  0.6430 -0.2339  0.3443
  253SOD    SOD22313   5.955   2.206  10.597  0.0336  0.1434 -0.2983
  254SOD    SOD22314   5.874   1.806   5.419  0.0472  0.0267  0.1627
  255SOD    SOD22315   5.117   1.361  14.297  0.0059  0.7522  0.5399
  256SOD    SOD22316   5.311   3.217   1.359 -0.3291  0.3228  0.2524
  257SOD    SOD22317   2.906   2.006  10.891  0.2689  0.1092  0.1059
  258SOD    SOD22318   2.473   3.734   2.349  0.1583 -0.4988  0.2037
  259SOD    SOD22319   1.586   0.879   2.785  0.4740 -0.1761  0.2352
  260SOD    SOD22320   5.080   5.545  15.042 -0.6389  0.1394 -0.5768
  261SOD    SOD22321   5.711   4.238   2.541  0.0007 -0.0350 -0.3859
  262SOD    SOD22322   1.666   2.731   5.748  0.2664 -0.3137  0.2279
  263SOD    SOD22323   2.114   5.741   2.015 -0.3652  0.6644  0.1328
  264SOD    SOD22324   0.971   0.842   6.523  0.4538 -0.1599 -0.0295
  265SOD    SOD22325   0.252   5.849  10.609 -0.3443  0.3070  0.1495
  266SOD    SOD22326   1.381   5.945   2.501  0.6801 -0.1250  0.1287
  267SOD    SOD22327   5.158   5.235  11.056 -0.2425  0.0028 -0.0440
  268SOD    SOD22328   6.588   2.056   0.172 -0.2004  0.2721  0.0072
  269SOD    SOD22329   4.039   6.415  15.098 -0.1982  0.1129  0.1200
  270CLA    CLA22330   2.224   1.482  13.957 -0.1209 -0.0419 -0.0228
  271CLA    CLA22331   6.229   4.127   4.390  0.1808 -0.2360 -0.0035
  272CLA    CLA22332   5.431   3.498  16.945 -0.0949 -0.1969 -0.4896
  273CLA    CLA22333   2.684   2.901   4.078 -0.0879 -0.2939  0.4816
  274CLA    CLA22334   0.589   0.752  12.118  0.1825  0.6451  0.1327
  275CLA    CLA22335   6.690   6.062  11.636 -0.3720  0.2561  0.5924
  276CLA    CLA22336   2.633   0.298   3.757  0.0775  0.0664  0.2484
  277CLA    CLA22337   2.382   0.373   1.970  0.2868  0.3275 -0.3275
  278CLA    CLA22338   3.006   1.806   2.411  0.3416 -0.2253  0.2674
  279CLA    CLA22339   5.271   5.665   4.349 -0.7375  0.5039 -0.1933
  280CLA    CLA22340   2.746   2.111   2.668  0.1654  0.0397 -0.1535
  281CLA    CLA22341   6.076   3.826   0.938 -0.0489  0.1257  0.2250
  282CLA    CLA22342   4.877   4.760   3.644  0.1633  0.0603  0.2408
  283CLA    CLA22343   1.433   2.486   2.342  0.3947 -0.1053 -0.1823
  284CLA    CLA22344   1.714   2.292  16.260 -0.3312 -0.2982  0.3200
  285CLA    CLA22345   6.043   4.642   0.197  0.3795 -0.1827 -0.0119
  286CLA    CLA22346   4.971   1.088  16.049 -0.0810  0.4952  0.0777
  287CLA    CLA22347   6.390   6.782   3.003  0.2673  0.3593 -0.2804
  288CLA    CLA22348   4.552   2.384  16.863 -0.3028  0.0041  0.3677
  289CLA    CLA22349   1.891   0.938   1.319 -0.1769 -0.3344  0.1391
  290CLA    CLA22350   6.624   2.630   1.881  0.2717  0.0281  0.0036
  291CLA    CLA22351   0.642   4.193  15.137 -0.0319  0.4125 -0.1541
  292CLA    CLA22352   6.672   0.637   1.673  0.4980 -0.0317  0.2299
  293CLA    CLA22353   2.950   3.797  15.682  0.3906 -0.3345 -0.2714
  294CLA    CLA22354   5.280   5.985  11.891 -0.4054  0.2041  0.1136
  295CLA    CLA22355   5.402   2.787   3.523  0.0205 -0.2419  0.2917
  296CLA    CLA22356   0.798   0.248   4.399 -0.3477  0.0193 -0.3409
  297CLA    CLA22357   1.580   3.860   0.509  0.4366 -0.2638  0.3508
  298CLA    CLA22358   5.097   5.586  11.587  0.1689 -0.5753 -0.0547
  299CLA    CLA22359   6.432   3.484   4.682  0.4773 -0.0985 -0.2357
  300CLA    CLA22360   5.360   1.999  15.800 -0.1405  0.2741 -0.6304
  301CLA    CLA22361   3.326   2.233  12.882 -0.0397 -0.2155  0.0646
  302CLA    CLA22362   1.056   4.645   2.664  0.0293 -0.1887  0.3499
  303CLA    CLA22363   2.661   2.780   3.031  0.3346 -0.1524 -0.2748
  304CLA    CLA22364   1.268   5.918  16.074  0.1910 -0.1654  0.3425
  305CLA    CLA22365   5.967   0.905   3.822 -0.5943 -0.3529  0.3626
  306CLA    CLA22366   1.577   4.961   1.048  0.0650 -0.5721 -0.2057
  307CLA    CLA22367   5.396   4.797  14.040 -0.3173  0.0012  0.1580
  308CLA    CLA22368   0.805   3.944  13.278 -0.2874  0.1809 -0.0370
  309CLA    CLA22369   4.785   6.545  13.566 -0.3154 -0.3803 -0.1698
  310CLA    CLA22370   4.141   6.334   0.103  0.2026 -0.4513 -0.0782
  311CLA    CLA22371   3.605   1.178  16.449  0.0151 -0.0040  0.3568
  312CLA    CLA22372   3.352   4.932   3.563  0.0233  0.0517 -0.2534
  313CLA    CLA22373   0.263   3.882  11.422  0.1048  0.0179  0.0803
  314CLA    CLA22374   0.855   3.732   2.485  0.3087  0.0689  0.5402
  315CLA    CLA22375   4.192   1.803  13.258  0.1406  0.1614 -0.3126
  316CLA    CLA22376   4.280   3.122   1.188  0.1404  0.3478  0.2613
  317CLA    CLA22377   0.153   3.109  12.848 -0.2228  0.0513 -0.3800
  318CLA    CLA22378   4.340   1.148  16.611  0.7351 -0.4692 -0.1646
  319CLA    CLA22379   4.077   3.058  16.305  0.3676 -0.4002 -0.0474
  320CLA    CLA22380   0.444   1.955  17.039  0.1059  0.5054 -0.0183
  321CLA    CLA22381   3.874   6.412  13.445  0.2287  0.2526  0.0640
  322CLA    CLA22382   0.525   4.873   4.325  0.3304  0.2260  0.5725
  323TIP3   OH222383   4.902   0.309  17.143  0.2011  0.6560  0.1321
  323TIP3    H122384   4.845   0.290  17.068 -0.1731  1.3775  0.2225
  323TIP3    H222385   4.984   0.340  17.103  1.2963 -2.2187 -0.0550
  324TIP3   OH222386   5.942   3.487   3.957  0.2504  0.4568  0.2593
  324TIP3    H122387   5.992   3.417   3.999 -0.5001  0.4458  1.1595
  324TIP3    H222388   5.949   3.560   4.017 -0.7714  0.4681  0.3706
  325TIP3   OH222389   2.527   3.325   2.154 -0.2658  0.0270  0.1016
  325TIP3    H122390   2.587   3.253   2.179 -1.8168 -1.4389 -0.2272
  325TIP3    H222391   2.486   3.295   2.073 -1.0023  1.2701 -0.0031
  326TIP3   OH222392   1.469   0.341  12.970  0.0915 -0.7186  0.5821
  326TIP3    H122393   1.430   0.276  13.029  0.1556 -2.1582 -0.8812
  326TIP3    H222394   1.562   0.317  12.966  0.7283  1.1959  2.1431
  327TIP3   OH222395   4.327   0.653  16.868 -0.2207 -0.4196  0.5533
  327TIP3    H122396   4.373   0.637  16.950 -0.6430 -0.4072  0.7967
  327TIP3    H222397   4.235   0.659  16.894 -0.2825  0.3049  0.1765
  328TIP3   OH222398   2.225   0.752   2.112 -0.8495 -0.0106  0.1028
  328TIP3    H122399   2.229   0.838   2.070  0.9197  0.2689  0.7446
  328TIP3    H222400   2.268   0.693   2.050 -1.9768 -0.4300 -0.2962
  329TIP3   OH222401   6.291   6.499   0.199 -0.0146  0.3603 -0.4718
  329TIP3    H122402   6.209   6.450   0.194  0.6549 -1.1547  1.8633
  329TIP3    H222403   6.358   6.436   0.171  0.6324  0.6127  0.4662
  330TIP3   OH222404   6.137   0.063  10.732  0.3268 -0.3848 -0.1279
  330TIP3    H122405   6.228   0.052  10.763  0.6223  1.7100 -0.0910
  330TIP3    H222406   6.145   0.122  10.657 -0.9814 -0.4908 -0.3565
  331TIP3   OH222407   1.809   2.502  15.925 -0.7154 -0.2780  0.3012
  331TIP3    H122408   1.734   2.538  15.876 -1.0510 -2.0536 -0.5878
  331TIP3    H222409   1.886   2.535  15.879 -0.8849  1.9555  1.5084
  332TIP3   OH222410   1.682   4.120  13.504 -0.0722 -0.2834 -0.3008
  332TIP3    H122411   1.592   4.152  13.511  0.5179  1.3909 -0.0286
  332TIP3    H222412   1.712   4.116  13.595  0.3268 -0.2469 -0.4327
  333TIP3   OH222413   0.509   2.754  14.541 -0.2998  0.3760  0.5014
  333TIP3    H122414   0.493   2.780  14.632  0.5520  0.3553  0.6717
  333TIP3    H222415   0.598   2.787  14.522 -0.4338  0.3084 -0.2952
  334TIP3   OH222416   3.430   0.930   0.190 -0.7633  0.1450  0.2796
  334TIP3    H122417   3.449   0.843   0.226  1.8052  0.1976 -0.7169
  334TIP3    H222418   3.388   0.913   0.106 -1.0602 -0.1015  0.4762
  335TIP3   OH222419   0.585   6.016  16.445  0.1530 -0.5167 -0.4105
  335TIP3    H122420   0.513   6.052  16.394  0.0422  0.5687  0.4683
  335TIP3    H222421   0.567   6.044  16.535  1.9504  0.3017 -0.2501
  336TIP3   OH222422   5.494   1.575  13.217 -0.0898 -0.2357 -0.1848
  336TIP3    H122423   5.586   1.562  13.193 -0.0951 -1.8621  0.5109
  336TIP3    H222424   5.446   1.565  13.135  0.2697 -0.6156 -0.3560
  337TIP3   OH222425   6.281   1.877  13.784  0.4748  0.5145  0.2786
  337TIP3    H122426   6.258   1.912  13.697  0.1178 -1.1078 -0.3121
  337TIP3    H222427   6.197   1.847  13.820  0.8024  0.0486  0.6524
  338TIP3   OH222428   4.554   1.244  15.895  0.3103  0.6421 -0.2113
  338TIP3    H122429   4.555   1.174  15.830  0.2836  0.5919 -0.1579
  338TIP3    H222430   4.467   1.238  15.935  0.3949  0.5490 -0.0379
  339TIP3   OH222431   4.665   5.420   1.265 -0.1428 -0.2228 -0.0088
  339TIP3    H122432   4.643   5.334   1.302 -0.1878  0.5923  2.0031
  339TIP3    H222433   4.607   5.429   1.189  0.3472 -2.2303 -0.6753
  340TIP3   OH222434   3.185   0.960   2.589  0.1744  0.3671  0.0409
  340TIP3    H122435   3.138   1.043   2.584  0.1654  0.3163 -0.8594
  340TIP3    H222436   3.212   0.942   2.499  1.1265 -0.0606  0.3999
  341TIP3   OH222437   1.832   0.355   1.438 -0.0461  0.4119 -0.3325
  341TIP3    H122438   1.823   0.439   1.392 -0.8079  0.5164 -0.0209
  341TIP3    H222439   1.921   0.327   1.421  1.1086  2.5266  1.5751
  342TIP3   OH222440   0.793   4.121   5.344  0.0632 -0.4572  0.3284
  342TIP3    H122441   0.882   4.122   5.379 -0.0223 -1.1180  0.5892
  342TIP3    H222442   0.784   4.034   5.306  0.0167  0.1118 -1.0061
  343TIP3   OH222443   2.868   3.612  15.415 -0.6707  0.0559 -0.4116
  343TIP3    H122444   2.862   3.529  15.462 -0.6544  0.7430  0.8312
  343TIP3    H222445   2.876   3.678  15.483  2.1070  0.8805 -1.3975
  344TIP3   OH222446   6.001   5.745   1.458  0.9002  0.7330  0.4442
  344TIP3    H122447   6.009   5.795   1.376 -0.7918 -0.3688 -0.4445
  344TIP3    H222448   6.071   5.780   1.514  1.9602  1.6807 -1.3726
  345TIP3   OH222449   6.252   2.054  16.786 -0.2103 -0.4824  0.8299
  345TIP3    H122450   6.319   2.102  16.737 -0.0187 -1.9211 -0.4010
  345TIP3    H222451   6.169   2.091  16.757 -0.0306 -0.2251  0.6456
  346TIP3   OH222452   3.065   3.627  11.879  0.1008  0.4107 -0.0331
  346TIP3    H122453   3.108   3.710  11.902 -0.2014  0.0345  2.2001
  346TIP3    H222454   2.990   3.653  11.826 -0.1363  1.6097  0.8305
  347TIP3   OH222455   5.514   2.651   5.024  0.2539  0.2551 -0.2972
  347TIP3    H122456   5.509   2.644   5.120  2.4806 -0.8419 -0.1803
  347TIP3    H222457   5.430   2.620   4.993  0.0073 -0.7814  1.2732
  348TIP3   OH222458   0.470   5.530  14.621  1.1364 -0.4571 -0.4366
  348TIP3    H122459   0.564   5.543  14.628  1.1796 -0.8441 -0.3074
  348TIP3    H222460   0.452   5.449  14.669  0.5082  0.4743  0.9692
  349TIP3   OH222461   0.460   3.923   0.025 -0.0331  0.1904  0.4658
  349TIP3    H122462   0.553   3.905   0.038  0.6430  3.2558  0.7765
  349TIP3    H222463   0.418   3.888   0.104  1.0063 -0.2479  0.8442
  350TIP3   OH222464   0.662   0.769  16.151  0.1297 -0.7821 -0.2277
  350TIP3    H122465   0.681   0.711  16.225  1.2289 -0.0194  0.1174
  350TIP3    H222466   0.665   0.711  16.074 -0.6294 -1.5066  0.2644
  351TIP3   OH222467   2.742   2.329   3.739 -0.1388  0.1612 -0.3763
  351TIP3    H122468   2.831   2.327   3.704  0.1714  1.4188  0.2696
  351TIP3    H222469   2.699   2.400   3.692 -0.4272  0.3294  0.1236
  352TIP3   OH222470   4.655   2.547   4.049  0.1033  0.0480 -0.2851
  352TIP3    H122471   4.743   2.579   4.032  0.0693  0.4935  0.3358
  352TIP3    H222472   4.608   2.559   3.966  0.6925 -0.4286 -0.6911
  353TIP3   OH222473   4.808   2.614   1.318 -0.3455  0.4447  0.2598
  353TIP3    H122474   4.868   2.659   1.258  0.8536 -0.0274  1.0839
  353TIP3    H222475   4.782   2.681   1.381 -0.0631  0.4583  0.3630
  354TIP3   OH222476   3.737   0.465  16.424 -0.0526  0.1977  0.4759
  354TIP3    H122477   3.676   0.404  16.383  2.0485 -1.6825 -0.0167
  354TIP3    H222478   3.736   0.441  16.517 -1.9458  1.9484  1.0021
  355TIP3   OH222479   2.589   3.516  13.561  0.1399  0.6440  0.0567
  355TIP3    H122480   2.599   3.528  13.467  0.6430 -0.2113 -0.0102
  355TIP3    H222481   2.510   3.462  13.571 -0.1335  1.0576  0.1502
  356TIP3   OH222482   0.471   6.079   2.302 -0.0376  0.0671  0.0730
  356TIP3    H122483   0.394   6.129   2.328 -0.4775  0.0382 -1.1085
  356TIP3    H222484   0.447   6.039   2.218  0.5848 -1.4868  0.5962
  357TIP3   OH222485   3.880   1.117  11.341 -0.2683  0.5681 -0.4704
  357TIP3    H122486   3.963   1.085  11.305  0.5598  2.6486 -0.5618
  357TIP3    H222487   3.843   1.170  11.271 -0.2876  1.9239  0.5313
  358TIP3   OH222488   5.753   5.685   1.519  0.0762  0.2559  0.1401
  358TIP3    H122489   5.847   5.699   1.510 -0.3291  2.5641 -1.4620
  358TIP3    H222490   5.716   5.721   1.439 -2.2083 -0.3818  0.8385
  359TIP3   OH222491   3.684   1.697  16.584  0.4502 -0.3045  0.0927
  359TIP3    H122492   3.699   1.630  16.651  0.2171 -0.2276  0.2238
  359TIP3    H222493   3.595   1.681  16.554  0.7223 -0.6498 -0.5533
  360TIP3   OH222494   3.235   1.542   0.507  0.3678 -0.4202 -0.0942
  360TIP3    H122495   3.175   1.477   0.544 -2.6939  1.2709 -1.7506
  360TIP3    H222496   3.284   1.494   0.440 -0.0374 -1.5594  0.4016
  361TIP3   OH222497   1.894   6.692  11.349 -0.0709 -0.8022 -0.5141
  361TIP3    H122498   1.917   6.679  11.257 -0.2214 -1.2576 -0.4933
  361TIP3    H222499   1.894   6.787  11.361  1.4491 -0.7726 -0.5943
  362TIP3   OH222500   1.437   0.028  12.613 -0.1152 -0.2437 -0.3829
  362TIP3    H122501   1.516   0.076  12.587 -0.1748  0.1540  0.1447
  362TIP3    H222502   1.378   0.036  12.539  0.8444 -1.7331 -1.3602
  363TIP3   OH222503   3.318   2.487   2.772 -0.0010 -0.2937  0.5460
  363TIP3    H122504   3.259   2.417   2.798 -1.0271  0.9889  1.8669
  363TIP3    H222505   3.295   2.506   2.681 -2.3523  0.7899  1.2890
  364TIP3   OH222506   1.611   6.497  15.315  0.7232 -0.6752 -0.0709
  364TIP3    H122507   1.520   6.468  15.319  0.4962  0.1201  1.1161
  364TIP3    H222508   1.607   6.590  15.293  1.1753 -0.4015  0.9170
  365TIP3   OH222509   5.929   1.717  14.260  0.2818  0.8669 -0.3185
  365TIP3    H122510   5.934   1.622  14.268 -0.4432  0.8355 -0.1532
  365TIP3    H222511   6.009   1.749  14.300 -0.8458  0.4690  2.4479
  366TIP3   OH222512   5.950   0.062   4.660 -0.1344 -0.9116 -0.0146
  366TIP3    H122513   5.913  -0.025   4.672  0.6263 -1.1833  0.3909
  366TIP3    H222514   6.000   0.078   4.739  0.9304 -0.7073 -0.7048
  367TIP3   OH222515   6.583   6.430  13.608 -0.0519  0.2466  0.0558
  367TIP3    H122516   6.562   6.470  13.524 -1.4475 -0.0130  0.2639
  367TIP3    H222517   6.500   6.423  13.653  0.8127  1.4347  1.9563
  368TIP3   OH222518   1.069   4.405  14.178 -0.3179  0.2012 -0.7468
  368TIP3    H122519   1.106   4.327  14.137  0.1798 -0.3569  0.7072
  368TIP3    H222520   1.144   4.455  14.209 -0.6483  1.1024 -1.3445
  369TIP3   OH222521   2.497   6.770   5.070  0.6078 -0.4262 -0.1265
  369TIP3    H122522   2.443   6.739   4.997  0.3283  0.3312 -0.2589
  369TIP3    H222523   2.586   6.771   5.035  0.5013 -0.2505 -0.4002
  370TIP3   OH222524   6.061   1.032  12.153 -0.1474 -0.1477  0.3196
  370TIP3    H122525   6.118   1.052  12.078 -0.0485  0.4915  0.5613
  370TIP3    H222526   6.108   1.067  12.228  1.0788 -3.1174  1.0958
  371TIP3   OH222527   5.287   0.151  13.815  0.3379 -0.4808  0.2871
  371TIP3    H122528   5.269   0.229  13.762  0.1720 -1.1959 -0.7435
  371TIP3    H222529   5.374   0.167  13.852  1.4760 -0.8823 -2.0188
  372TIP3   OH222530   1.747   5.363  15.940 -0.3355  0.1743  0.5685
  372TIP3    H122531   1.699   5.282  15.958 -0.1502  0.1079  0.7717
  372TIP3    H222532   1.839   5.336  15.936 -0.3757  0.1828 -0.5244
  373TIP3   OH222533   6.148   3.168  15.672 -0.2139 -0.1178 -0.2803
  373TIP3    H122534   6.170   3.078  15.650 -0.4058 -0.6421  1.4918
  373TIP3    H222535   6.096   3.199  15.598 -3.3514 -2.6970  0.6199
  374TIP3   OH222536   2.684   4.275   5.785 -0.1724  0.9599  0.2782
  374TIP3    H122537   2.614   4.290   5.722 -0.9883  0.3879  1.0217
  374TIP3    H222538   2.670   4.343   5.852 -0.3924  0.4700  0.7352
  375TIP3   OH222539   1.527   0.674   5.109 -0.1646 -0.0276  0.2970
  375TIP3    H122540   1.559   0.607   5.047  1.2562 -0.9723  1.9612
  375TIP3    H222541   1.527   0.630   5.194  0.1702  1.9215  1.3579
  376TIP3   OH222542   2.985   3.299  16.868 -0.9449 -0.0102 -0.0060
  376TIP3    H122543   3.067   3.250  16.862 -1.6863 -1.4447  1.0636
  376TIP3    H222544   2.956   3.307  16.777  0.1477  0.1277 -0.3601
  377TIP3   OH222545   0.681   1.743   5.195  0.9220 -0.1987 -0.0433
  377TIP3    H122546   0.703   1.726   5.103  1.9463 -0.4122  0.2236
  377TIP3    H222547   0.683   1.657   5.237  0.9358 -0.0481  0.2681
  378TIP3   OH222548   0.475   3.170   4.236 -0.1097 -0.4058  0.4362
  378TIP3    H122549   0.509   3.124   4.160  0.9495  1.5031 -0.3056
  378TIP3    H222550   0.408   3.229   4.201 -0.9485 -0.8354  1.2673
  379TIP3   OH222551   5.905   0.413  16.307 -0.5204  0.0478 -0.4698
  379TIP3    H122552   5.829   0.355  16.308  0.4594 -1.3124 -1.5037
  379TIP3    H222553   5.872   0.495  16.269 -1.4572 -0.5474 -0.9716
  380TIP3   OH222554   2.581   4.153  14.238  0.3932  0.4330 -0.3866
  380TIP3    H122555   2.603   4.106  14.318 -0.4707 -0.7582 -0.8242
  380TIP3    H222556   2.629   4.106  14.169  1.2380  1.5281 -0.5843
  381TIP3   OH222557   2.568   2.477  16.036  0.0580  0.4998  0.1481
  381TIP3    H122558   2.611   2.532  16.102  2.0817  0.0653 -0.7500
  381TIP3    H222559   2.601   2.389  16.053  0.0818  0.2757 -1.0099
  382TIP3   OH222560   0.622   0.257  11.886  0.3750 -0.0530  0.4574
  382TIP3    H122561   0.566   0.292  11.816 -0.1298 -1.0754  0.3220
  382TIP3    H222562   0.640   0.332  11.942  1.9140  1.1369 -1.4696
  383TIP3   OH222563   5.282   2.941   1.781 -0.9594 -0.0578  0.1369
  383TIP3    H122564   5.280   2.963   1.874  0.6548  1.8806 -0.2230
  383TIP3    H222565   5.361   2.888   1.770 -0.0879  1.3094 -0.3985
  384TIP3   OH222566   3.628   0.743  13.222 -0.1859 -0.2676 -0.2748
  384TIP3    H122567   3.591   0.776  13.303 -0.4847  0.6144 -0.7565
  384TIP3    H222568   3.624   0.648  13.230 -1.2767 -0.1874  0.2559
  385TIP3   OH222569   1.684   5.478   4.142 -0.0903 -0.6236  0.0207
  385TIP3    H122570   1.603   5.502   4.188  0.8901  0.0541  1.4490
  385TIP3    H222571   1.680   5.382   4.138  0.0489 -0.7676  2.0872
  386TIP3   OH222572   6.228   2.258   3.203 -0.0208  0.0193  0.2872
  386TIP3    H122573   6.303   2.276   3.146  0.6769 -1.1219  0.8251
  386TIP3    H222574   6.234   2.325   3.271  0.4434  0.0019  0.2688
  387TIP3   OH222575   4.222   6.183  13.608 -0.5602 -0.2491  0.2332
  387TIP3    H122576   4.291   6.117  13.604  0.6590  0.9724  0.4820
  387TIP3    H222577   4.235   6.226  13.692  0.0677  1.7742 -0.8453
  388TIP3   OH222578   2.326   5.286  11.543  0.0747 -0.6798  0.0105
  388TIP3    H122579   2.269   5.362  11.551  1.3575  0.5581 -1.7431
  388TIP3    H222580   2.273   5.212  11.571 -1.5401  0.7196  0.8110
  389TIP3   OH222581   6.569   3.094  13.248  0.4661 -0.1441 -0.3168
  389TIP3    H122582   6.483   3.057  13.226  0.1639  0.5272 -0.3049
  389TIP3    H222583   6.578   3.169  13.190  0.5054  0.5089  0.5025
  390TIP3   OH222584   5.566   6.766  13.063 -0.1456 -0.7795  0.4458
  390TIP3    H122585   5.498   6.831  13.047 -0.4109 -1.1152  0.1977
  390TIP3    H222586   5.591   6.734  12.977 -1.2156 -2.2146  0.6251
  391TIP3   OH222587   4.674   4.186  11.943 -0.3398 -0.0713 -0.0412
  391TIP3    H122588   4.733   4.128  11.991  0.4252  1.1012  0.4796
  391TIP3    H222589   4.637   4.243  12.010 -0.1867  0.8101 -0.6910
  392TIP3   OH222590   5.247   2.489   5.349 -0.4863 -0.2416  0.4843
  392TIP3    H122591   5.279   2.480   5.438 -0.4537 -1.6673  0.3405
  392TIP3    H222592   5.324   2.514   5.298 -0.2655 -0.5389  0.6711
  393TIP3   OH222593   0.755   5.661   5.850  0.6166  0.3621 -0.4171
  393TIP3    H122594   0.713   5.705   5.924  1.4938 -0.2859  0.4848
  393TIP3    H222595   0.770   5.571   5.880  1.0725  0.1146 -1.3417
  394TIP3   OH222596   1.335   1.310   0.113  0.0468 -0.1312  0.8205
  394TIP3    H122597   1.399   1.242   0.133  1.0413  0.3400 -0.6299
  394TIP3    H222598   1.276   1.270   0.048  0.0368  0.0709  0.7044
  395TIP3   OH222599   0.870   1.463   5.288  0.1271 -0.0487 -1.2984
  395TIP3    H122600   0.784   1.455   5.248 -1.2973 -0.9594  1.6322
  395TIP3    H222601   0.913   1.380   5.269 -2.2441 -2.4357  2.3528
  396TIP3   OH222602   6.418   1.526   2.362 -0.0253 -0.6502 -0.0117
  396TIP3    H122603   6.477   1.505   2.434  1.3595 -1.0535 -1.2139
  396TIP3    H222604   6.367   1.601   2.394  0.7979 -0.5936  1.2367
  397TIP3   OH222605   0.447   0.390  13.168  0.5039  0.1988  0.2144
  397TIP3    H122606   0.442   0.330  13.094  0.4774 -0.2884  0.6020
  397TIP3    H222607   0.356   0.414  13.186  0.5874  1.0888 -0.5231
  398TIP3   OH222608   3.348   0.591   4.266 -0.0436  0.2002 -0.3129
  398TIP3    H122609   3.288   0.536   4.316  0.0173  0.7053  0.3277
  398TIP3    H222610   3.323   0.577   4.174 -1.6070  0.9324 -0.0288
  399TIP3   OH222611   5.760   1.267  13.233  0.4386  0.1387  0.1059
  399TIP3    H122612   5.820   1.340  13.251 -0.9540  1.0584  1.2762
  399TIP3    H222613   5.697   1.270  13.304  0.1032 -2.0069 -0.0363
  400TIP3   OH222614   4.318   6.298   5.342 -0.5196  0.1295  0.1747
  400TIP3    H122615   4.310   6.310   5.248 -0.3594 -0.6631  0.0563
  400TIP3    H222616   4.398   6.344   5.366  0.6739 -1.5569 -0.4410
  401TIP3   OH222617   3.843   0.275  15.184 -0.1964 -0.1822  0.5604
  401TIP3    H122618   3.922   0.320  15.155  0.8436 -0.6214  2.5887
  401TIP3    H222619   3.797   0.339  15.238 -0.7883 -0.2407  0.1434
  402TIP3   OH222620   2.709   3.484   5.101 -0.1680  0.3973 -0.2932
  402TIP3    H122621   2.783   3.504   5.044  0.0545 -0.0498 -0.1670
  402TIP3    H222622   2.699   3.562   5.156  0.3571  0.3689 -0.1516
  403TIP3   OH222623   6.604   1.947  13.019  0.7767 -0.5262  0.1301
  403TIP3    H122624   6.674   1.992  12.972  1.1132 -0.1841  0.9408
  403TIP3    H222625   6.552   2.018  13.057 -0.2208 -0.7702 -0.7530
  404TIP3   OH222626   3.784   6.695   5.364 -0.4012 -0.4051 -0.0869
  404TIP3    H122627   3.864   6.715   5.411 -1.5148  0.9920  1.3112
  404TIP3    H222628   3.806   6.708   5.272  1.4173 -1.7690  0.0962
  405TIP3   OH222629   4.423   5.672  11.328 -0.3424 -0.4382 -0.1322
  405TIP3    H122630   4.352   5.613  11.353 -1.4676  0.9168 -0.0759
  405TIP3    H222631   4.489   5.614  11.288 -0.8550 -1.8957  1.0523
  406TIP3   OH222632   6.262   0.787  11.026  0.2552  0.5703 -0.0187
  406TIP3    H122633   6.274   0.788  10.931 -0.2662 -0.0351 -0.1001
  406TIP3    H222634   6.325   0.721  11.057  0.2164  0.5540  0.0247
  407TIP3   OH222635   0.433   3.270  14.179 -0.0735  0.1021  0.1083
  407TIP3    H122636   0.523   3.241  14.160 -0.0802  0.0955  0.0864
  407TIP3    H222637   0.436   3.298  14.270 -0.0360  0.1534  0.0913
  408TIP3   OH222638   3.821   5.171   3.425  0.4738  0.0683  0.1188
  408TIP3    H122639   3.827   5.176   3.520  0.7910 -1.8643  0.2583
  408TIP3    H222640   3.753   5.105   3.409  0.0277  0.7784 -1.0085
  409TIP3   OH222641   0.528   0.259   3.701  0.1264 -0.5182 -0.3594
  409TIP3    H122642   0.527   0.305   3.785 -0.3594 -1.7233  0.3385
  409TIP3    H222643   0.582   0.181   3.718 -0.4073 -1.0418 -0.9958
  410TIP3   OH222644   4.732   0.212   5.451  0.3775 -0.4824  0.3398
  410TIP3    H122645   4.793   0.267   5.501  0.3165  0.7272 -0.8543
  410TIP3    H222646   4.787   0.171   5.384 -0.0217  0.1816 -0.4016
  411TIP3   OH222647   4.548   0.988   3.548 -0.0703 -0.8788  0.8421
  411TIP3    H122648   4.584   0.932   3.617 -1.6353  0.4363  2.8269
  411TIP3    H222649   4.469   0.942   3.519  0.6763 -1.5145 -0.2481
  412TIP3   OH222650   5.417   2.783   1.486  0.0406 -0.4373  0.6898
  412TIP3    H122651   5.322   2.781   1.484 -0.0288 -0.8994  2.5103
  412TIP3    H222652   5.444   2.770   1.395 -1.6211  1.5688 -0.1497
  413TIP3   OH222653   5.034   0.429   5.822  0.5682  0.0934 -0.0940
  413TIP3    H122654   5.026   0.466   5.910  0.1177 -0.1071 -0.0479
  413TIP3    H222655   4.943   0.415   5.794  0.6545  1.2421 -1.0562
  414TIP3   OH222656   0.188   0.727   3.758  0.0638 -0.6413  0.0431
  414TIP3    H122657   0.182   0.819   3.784  1.4064 -0.1920 -1.1308
  414TIP3    H222658   0.119   0.716   3.692  0.0537 -0.4209  0.0165
  415TIP3   OH222659   5.019   3.124   2.242 -0.5556  0.4113 -0.4909
  415TIP3    H122660   5.064   3.061   2.186 -1.3281 -0.8354  0.2562
  415TIP3    H222661   5.086   3.158   2.300 -0.1409  0.2612 -0.8791
  416TIP3   OH222662   6.051   0.388  11.117 -0.5603 -0.4355  0.3257
  416TIP3    H122663   6.046   0.320  11.184  1.7843 -1.0566 -0.0345
  416TIP3    H222664   6.131   0.437  11.139 -0.2806 -0.0529 -1.4264
  417TIP3   OH222665   0.622   1.734  15.058 -0.2977 -0.0503 -0.2687
  417TIP3    H122666   0.636   1.652  15.107  1.5030  0.3722 -0.0135
  417TIP3    H222667   0.532   1.758  15.078 -0.5201 -1.4021  0.5221
  418TIP3   OH222668   0.505   1.074  13.633 -0.1222  0.2496  0.7404
  418TIP3    H122669   0.537   1.014  13.564 -0.7461  2.1636 -1.3353
  418TIP3    H222670   0.476   1.016  13.703 -0.6998 -1.9133 -1.1465
  419TIP3   OH222671   0.156   6.473   1.922  0.7700 -0.2389 -0.4027
  419TIP3    H122672   0.065   6.455   1.946  0.5101  0.4373 -0.8530
  419TIP3    H222673   0.207   6.450   2.000  0.0393  1.0602  0.4994
  420TIP3   OH222674   6.069   5.657   0.753 -0.3390 -0.1411 -0.2581
  420TIP3    H122675   6.009   5.726   0.782  0.9684  1.5765 -1.3816
  420TIP3    H222676   6.061   5.588   0.818 -1.3337  1.3154  1.2325
  421TIP3   OH222677   5.574   5.721   2.779  0.1130 -0.4471  0.2371
  421TIP3    H122678   5.597   5.812   2.763 -1.0876 -0.2619 -0.5527
  421TIP3    H222679   5.513   5.698   2.709 -1.7577 -1.0207  1.9527
  422TIP3   OH222680   0.830   2.046   4.793 -0.0347  0.1411 -0.4201
  422TIP3    H122681   0.864   2.106   4.727 -0.3095 -1.9384 -2.5908
  422TIP3    H222682   0.891   1.972   4.793 -0.6169 -0.3794  0.9096
  423TIP3   OH222683   1.462   4.390  13.138 -0.0557 -0.3135 -0.5924
  423TIP3    H122684   1.390   4.453  13.139 -0.8100 -1.1489 -1.2862
  423TIP3    H222685   1.423   4.309  13.106  1.3884 -0.5445 -1.8711
  424TIP3   OH222686   2.575   1.149   2.959  0.2408 -0.3761 -0.0129
  424TIP3    H122687   2.658   1.110   2.931  0.5693  0.3418 -0.0380
  424TIP3    H222688   2.579   1.239   2.928 -0.7894 -0.4879 -0.5091
  425TIP3   OH222689   3.772   4.727  10.996 -0.4094 -0.1261  0.5848
  425TIP3    H122690   3.864   4.749  10.983 -0.4518 -0.5394 -0.5656
  425TIP3    H222691   3.725   4.799  10.954 -0.5724 -0.9489 -0.6895
  426TIP3   OH222692   1.952   1.421  15.696  0.3361  0.5290 -0.1126
  426TIP3    H122693   1.951   1.463  15.609  0.0053 -1.0453 -0.9077
  426TIP3    H222694   2.031   1.367  15.696  0.0108  0.0451  0.3252
  427TIP3   OH222695   5.560   2.899   4.660 -0.1568 -0.7465  0.0973
  427TIP3    H122696   5.609   2.968   4.616  0.4385 -1.0117  0.3326
  427TIP3    H222697   5.600   2.818   4.628  1.2608 -0.9489  2.1729
  428TIP3   OH222698   5.251   3.093   1.531 -0.1866  0.1267 -0.0691
  428TIP3    H122699   5.158   3.113   1.543  0.3038  2.2215  0.6659
  428TIP3    H222700   5.270   3.028   1.599 -1.2458 -0.8932 -0.7020
  429TIP3   OH222701   2.471   0.643  12.059 -0.2188  0.5581 -0.0451
  429TIP3    H122702   2.383   0.650  12.022 -0.1725 -0.8507 -0.5116
  429TIP3    H222703   2.487   0.548  12.062  1.7085  0.7997 -1.0380
  430TIP3   OH222704   3.512   5.880  16.325  0.4489 -0.2774  0.0507
  430TIP3    H122705   3.480   5.942  16.390  0.7442 -1.6795  1.6191
  430TIP3    H222706   3.474   5.796  16.351  0.6770 -0.9058 -1.5336
  431TIP3   OH222707   0.586   5.425  12.120  0.6862 -0.3483 -0.5892
  431TIP3    H122708   0.633   5.508  12.108  0.2613  0.0127  0.1862
  431TIP3    H222709   0.505   5.450  12.164  1.2647 -1.3614  1.1353
  432TIP3   OH222710   4.000   1.799   1.643  0.1627  0.1581  0.5158
  432TIP3    H122711   4.070   1.802   1.577 -1.9938 -1.2089 -2.0143
  432TIP3    H222712   3.982   1.891   1.662  0.8256  0.5930 -0.8384
  433TIP3   OH222713   4.855   2.679  12.469 -0.4787  0.2833  0.3015
  433TIP3    H122714   4.806   2.759  12.486 -2.7839 -0.8517 -0.6727
  433TIP3    H222715   4.901   2.696  12.386 -1.8534  0.2279 -0.4906
  434TIP3   OH222716   6.011   2.942  16.922  0.6080  0.3931  0.3689
  434TIP3    H122717   5.970   2.908  17.001  0.0806  0.5652  0.1784
  434TIP3    H222718   6.006   3.037  16.931  0.4964  0.4127  0.1073
  435TIP3   OH222719   1.570   0.180  16.451  0.0067 -1.0066  0.1791
  435TIP3    H122720   1.554   0.204  16.543  2.1849  0.8762  0.1578
  435TIP3    H222721   1.644   0.119  16.455  0.1221 -0.9021 -0.3165
  436TIP3   OH222722   3.500   0.201  10.464  0.0029 -0.1724  0.2921
  436TIP3    H122723   3.426   0.255  10.436 -1.4219 -1.9675  0.3829
  436TIP3    H222724   3.565   0.210  10.395 -0.1098  1.7442  0.3881
  437TIP3   OH222725   4.944   5.267  11.662  0.1741 -0.2891  0.6132
  437TIP3    H122726   4.911   5.315  11.586  1.6408  0.0702  0.1698
  437TIP3    H222727   4.993   5.332  11.711  1.0349 -1.0128  0.7335
  438TIP3   OH222728   6.237   0.055  16.366 -0.3707  0.4203  0.1681
  438TIP3    H122729   6.325   0.044  16.401  0.0536  1.1068 -0.6519
  438TIP3    H222730   6.200   0.128  16.416 -0.5302  0.0413  0.6076
  439TIP3   OH222731   5.924   0.009  15.720 -0.6864 -0.0459  0.3698
  439TIP3    H122732   5.957  -0.081  15.716  0.8516  0.5225 -0.4936
  439TIP3    H222733   5.979   0.058  15.658  0.0231  1.9473  2.4121
  440TIP3   OH222734   1.015   3.906   2.090  0.1408 -0.4012 -0.2662
  440TIP3    H122735   0.925   3.924   2.061 -0.7802 -2.3140  1.1308
  440TIP3    H222736   1.042   3.986   2.134 -0.0939  0.9134 -2.3879
  441TIP3   OH222737   0.439   5.662   5.713 -0.2234 -0.1403  0.0860
  441TIP3    H122738   0.441   5.638   5.620 -0.7291  0.9607 -0.2196
  441TIP3    H222739   0.463   5.581   5.758 -0.6852 -0.8933 -0.9596
  442TIP3   OH222740   4.978   2.985   0.746 -0.0149  0.5311  0.1555
  442TIP3    H122741   4.909   2.975   0.680  0.2712  1.5608 -0.3101
  442TIP3    H222742   5.015   2.897   0.755 -0.6163  0.2075 -0.4287
  443TIP3   OH222743   2.010   3.371  13.292  0.9614 -0.1661  0.4092
  443TIP3    H122744   1.945   3.324  13.344  1.8321 -1.2331  0.5685
  443TIP3    H222745   2.044   3.439  13.351 -1.7202  2.1162 -0.4311
  444TIP3   OH222746   5.653   3.072   2.868  0.4460  0.2677 -0.0880
  444TIP3    H122747   5.671   3.031   2.953  0.1683  0.7181  0.1873
  444TIP3    H222748   5.583   3.135   2.886 -0.2506 -0.2811 -0.8286
  445TIP3   OH222749   4.970   0.704  11.694  0.1034  0.6256  0.2682
  445TIP3    H122750   4.979   0.797  11.676  0.3135  0.6262  0.3687
  445TIP3    H222751   4.955   0.699  11.789  0.5203  0.5329  0.3305
  446TIP3   OH222752   0.377   4.027  10.962  0.0121 -0.1669 -0.1982
  446TIP3    H122753   0.281   4.017  10.962 -0.2307  1.3572  2.1643
  446TIP3    H222754   0.391   4.121  10.953  1.1908 -0.1838  1.1538
  447TIP3   OH222755   6.772   6.077  12.471 -0.1712 -0.7189  0.0747
  447TIP3    H122756   6.822   6.004  12.509  2.3407  1.5931  1.5391
  447TIP3    H222757   6.685   6.040  12.456  0.7035 -3.7666  1.5371
  448TIP3   OH222758   4.930   0.592   3.409  0.8430 -0.0623  0.8609
  448TIP3    H122759   5.002   0.529   3.401  0.0134 -0.8237 -1.1631
  448TIP3    H222760   4.957   0.667   3.356  0.3019 -0.2303  0.3326
  449TIP3   OH222761   0.949   1.507   4.748 -0.3137 -0.0589  0.6619
  449TIP3    H122762   0.985   1.460   4.673 -1.7394  0.0162 -0.0983
  449TIP3    H222763   0.917   1.439   4.806  1.1684 -0.1352  1.4413
  450TIP3   OH222764   5.169   1.052   4.297  0.2577  0.3218 -0.0080
  450TIP3    H122765   5.120   0.978   4.334  1.5237 -0.8737 -0.6356
  450TIP3    H222766   5.101   1.112   4.266 -0.9263 -2.0260 -2.3691
  451TIP3   OH222767   0.837   5.398   5.988 -0.4183  0.1745  0.0783
  451TIP3    H122768   0.839   5.316   6.038 -0.5113 -0.3890 -0.8340
  451TIP3    H222769   0.927   5.429   5.990 -0.7329  1.1920  2.2339
  452TIP3   OH222770   4.622   6.179  14.932  0.1898 -0.7325  0.4976
  452TIP3    H122771   4.620   6.267  14.892 -0.1983 -1.3008 -0.7895
  452TIP3    H222772   4.659   6.123  14.864  0.3843 -1.5841  1.2923
  453TIP3   OH222773   1.310   1.540  13.062  0.0034 -0.0604  0.3809
  453TIP3    H122774   1.246   1.611  13.062 -1.7396 -1.5311 -0.8650
  453TIP3    H222775   1.324   1.521  13.155 -0.3152  1.1875  0.7019
  454TIP3   OH222776   5.957   1.077   2.308 -0.1537  0.4094  0.3240
  454TIP3    H122777   6.031   1.054   2.364 -0.0391  1.3611  0.5805
  454TIP3    H222778   5.968   1.023   2.230  1.4109  1.2548 -0.0873
  455TIP3   OH222779   5.714   6.259   3.588  0.4493 -0.5685  0.3162
  455TIP3    H122780   5.683   6.180   3.544  0.3885 -0.1689 -0.3757
  455TIP3    H222781   5.728   6.233   3.679 -0.3722 -1.1572  0.2770
  456TIP3   OH222782   6.728   5.513  10.733  0.1814  0.1665  0.0351
  456TIP3    H122783   6.706   5.554  10.649  2.0643  2.1930  0.4255
  456TIP3    H222784   6.683   5.566  10.798  0.0749 -0.3669  0.3983
  457TIP3   OH222785   1.239   2.568  13.837 -0.7819  0.1754  0.1152
  457TIP3    H122786   1.318   2.597  13.790 -1.8412  1.2879 -1.0603
  457TIP3    H222787   1.229   2.630  13.909 -0.4127 -0.1755  0.4770
  458TIP3   OH222788   2.375   1.175  16.702 -0.0982 -0.1111 -0.1333
  458TIP3    H122789   2.363   1.153  16.795  0.9475 -0.4380 -0.0601
  458TIP3    H222790   2.324   1.110  16.655  0.8357 -1.0985  0.1687
  459TIP3   OH222791   0.117   3.593   2.113  0.4783 -0.4218  0.2717
  459TIP3    H122792   0.155   3.507   2.132  2.2344 -0.2202 -1.9060
  459TIP3    H222793   0.163   3.653   2.172  1.1374 -0.6517  0.0052
  460TIP3   OH222794   6.143   0.385  14.337 -0.5409 -0.0425  0.0403
  460TIP3    H122795   6.056   0.418  14.360 -0.3599  0.4436  0.0358
  460TIP3    H222796   6.198   0.408  14.412  0.3078  2.5569 -1.2934
  461TIP3   OH222797   2.569   0.003   6.118 -0.0207 -0.0349 -0.6110
  461TIP3    H122798   2.511  -0.068   6.147 -0.6925  0.9028  0.4029
  461TIP3    H222799   2.556   0.072   6.182  1.5464  0.5562 -0.8958
  462TIP3   OH222800   3.141   6.079   5.207 -0.0820 -0.6113 -0.0614
  462TIP3    H122801   3.072   6.020   5.178 -0.2185  0.0828 -1.1874
  462TIP3    H222802   3.104   6.166   5.197  0.0717 -0.3015  1.6971
  463TIP3   OH222803   3.096   2.384   0.814  0.1682  0.4882 -0.3556
  463TIP3    H122804   3.168   2.325   0.837 -2.0065 -1.8337  0.9875
  463TIP3    H222805   3.084   2.370   0.720  0.4716 -0.2720 -0.2915
  464TIP3   OH222806   6.755   4.744   5.046 -0.1346 -0.4483  0.2251
  464TIP3    H122807   6.839   4.790   5.037  0.0826 -0.9089 -0.1633
  464TIP3    H222808   6.739   4.708   4.959 -0.2908 -1.1199  0.5286
  465TIP3   OH222809   4.792   2.994  15.069  0.0468 -0.0176  0.2381
  465TIP3    H122810   4.831   2.941  15.138 -2.0065  2.0851  3.2370
  465TIP3    H222811   4.836   3.078  15.075 -1.3106  0.7244  0.1458
  466TIP3   OH222812   5.565   1.940  13.424  0.3081 -0.5084 -0.1901
  466TIP3    H122813   5.554   2.026  13.463 -1.0758  0.4635 -2.5137
  466TIP3    H222814   5.656   1.938  13.394  0.6724 -0.3358  0.8730
  467TIP3   OH222815   2.861   6.417  11.549  0.1398  0.4204 -0.0292
  467TIP3    H122816   2.892   6.425  11.639  0.0401 -2.0829  0.2959
  467TIP3    H222817   2.766   6.411  11.555  0.2008 -1.0184 -0.1392
  468TIP3   OH222818   1.041   4.899  11.962 -0.0192  0.5392  0.4173
  468TIP3    H122819   1.126   4.864  11.990  0.3927 -0.2865 -1.7075
  468TIP3    H222820   1.061   4.955  11.887 -1.3144  0.5004  0.0167
  469TIP3   OH222821   1.383   3.911  14.421  0.5809  0.1903 -0.3077
  469TIP3    H122822   1.408   3.909  14.513 -0.0790  0.1414 -0.1206
  469TIP3    H222823   1.420   3.993  14.388  0.5600  0.3576  0.0781
  470TIP3   OH222824   4.488   4.160  14.941 -0.5114 -0.1790 -0.4532
  470TIP3    H122825   4.580   4.187  14.937 -0.0978 -1.3645  0.3294
  470TIP3    H222826   4.446   4.227  14.994 -0.1163  0.3978 -0.8505
  471TIP3   OH222827   4.735   4.380  15.541 -0.2497 -0.0387 -0.2037
  471TIP3    H122828   4.769   4.306  15.592  0.4939  0.2739 -0.2295
  471TIP3    H222829   4.789   4.381  15.462 -1.3044 -0.4383 -0.9502
  472TIP3   OH222830   0.212   6.778   4.415  0.4534  0.0552  0.4959
  472TIP3    H122831   0.180   6.792   4.325 -0.1753 -0.8414  0.5651
  472TIP3    H222832   0.180   6.854   4.463 -1.2174 -0.5785  0.4505
  473TIP3   OH222833   4.874   6.297   3.957 -0.0916  0.4628 -0.0590
  473TIP3    H122834   4.800   6.358   3.949  0.3065  0.9867  0.1687
  473TIP3    H222835   4.915   6.320   4.040 -1.0306 -1.3695  0.9661
  474TIP3   OH222836   5.582   1.769   2.322 -0.0401 -0.1013  0.0985
  474TIP3    H122837   5.489   1.747   2.330 -0.7108  1.6764 -1.7400
  474TIP3    H222838   5.604   1.811   2.405 -0.9162 -0.4163  0.5060
  475TIP3   OH222839   0.617   4.187  11.926 -0.2082 -0.1688  0.3524
  475TIP3    H122840   0.625   4.098  11.892 -0.4994 -0.1057  0.1049
  475TIP3    H222841   0.702   4.207  11.964  0.4571  0.1001 -1.1996
  476TIP3   OH222842   2.177   4.016   2.620 -0.2596  0.7990  0.1151
  476TIP3    H122843   2.105   4.076   2.640  0.4539  1.8427 -0.4141
  476TIP3    H222844   2.162   3.941   2.678 -2.2147  0.6302 -0.5400
  477TIP3   OH222845   0.200   0.441   0.258  0.6427 -0.3240  0.7195
  477TIP3    H122846   0.115   0.434   0.214  0.6456  0.9088  0.4783
  477TIP3    H222847   0.263   0.452   0.187  0.7586  0.7593  0.9767
  478TIP3   OH222848   2.136   1.757   0.942  0.0401  1.1308 -0.0335
  478TIP3    H122849   2.101   1.686   0.994 -1.5288  1.2418 -0.8930
  478TIP3    H222850   2.230   1.756   0.961  0.2837 -1.8733 -0.8654
  479TIP3   OH222851   3.795   3.408   2.293 -0.2085  0.3860 -0.1576
  479TIP3    H122852   3.727   3.473   2.312 -1.6230 -1.3700  1.1036
  479TIP3    H222853   3.753   3.324   2.308  2.4073 -0.7841  1.2763
  480TIP3   OH222854   1.334   6.786  13.752 -0.2747 -0.4431  0.3814
  480TIP3    H122855   1.401   6.852  13.733  1.2291 -2.2671 -1.0628
  480TIP3    H222856   1.251   6.833  13.744  0.7490  1.4876  0.4579
  481TIP3   OH222857   2.673   5.219   4.426 -0.0789 -0.1160  1.0109
  481TIP3    H122858   2.683   5.131   4.460 -0.7444 -0.3637  0.5776
  481TIP3    H222859   2.580   5.226   4.402 -0.0871  0.7753  1.2564
  482TIP3   OH222860   1.507   2.938   3.541  0.2067  0.0385 -0.4487
  482TIP3    H122861   1.565   2.963   3.612  1.3265  1.4703 -1.7985
  482TIP3    H222862   1.478   2.850   3.563 -0.8675  1.0299  2.6214
  483TIP3   OH222863   5.153   5.398  13.599 -0.1484  0.1379  0.0994
  483TIP3    H122864   5.125   5.362  13.515 -0.8384  0.9739 -0.0440
  483TIP3    H222865   5.225   5.458  13.577  0.7914 -0.8715  0.3049
  484TIP3   OH222866   4.944   0.632  11.399 -0.5439  0.4103 -0.5900
  484TIP3    H122867   4.959   0.724  11.422 -0.2857 -0.3194  2.5583
  484TIP3    H222868   4.876   0.603  11.459  1.1798 -2.0993  0.3169
  485TIP3   OH222869   0.455   4.739   1.040  0.0852 -0.5811 -0.1039
  485TIP3    H122870   0.474   4.825   1.003  0.4305 -0.7949 -0.4343
  485TIP3    H222871   0.518   4.681   0.998 -0.0211 -0.9637  0.2578
  486TIP3   OH222872   4.476   0.495   0.225  0.2165  0.0056  0.1440
  486TIP3    H122873   4.469   0.487   0.130  0.2777 -0.8651  0.1980
  486TIP3    H222874   4.388   0.475   0.257  0.6701 -1.9391  0.3585
  487TIP3   OH222875   2.608   1.119  15.180 -0.0785 -0.5926  0.5434
  487TIP3    H122876   2.631   1.119  15.273  2.0834 -0.7295  0.0729
  487TIP3    H222877   2.566   1.034  15.165  1.1049 -1.3057  1.0946
  488TIP3   OH222878   3.640   0.813  11.827 -0.3048  0.3285  0.6273
  488TIP3    H122879   3.568   0.869  11.797  0.5244  0.6442 -0.8860
  488TIP3    H222880   3.695   0.871  11.880 -1.7547 -0.2200  2.8742
  489TIP3   OH222881   2.538   4.283  13.206 -0.2040 -0.6425 -0.2108
  489TIP3    H122882   2.562   4.240  13.288  0.9897 -0.3535 -0.3847
  489TIP3    H222883   2.466   4.342  13.230 -0.3663 -1.1087  0.4707
  490TIP3   OH222884   0.632   2.822   1.783  0.0370 -0.5628  0.1929
  490TIP3    H122885   0.577   2.866   1.717 -0.2366 -0.7380  0.3015
  490TIP3    H222886   0.677   2.754   1.735  1.3669  0.5640 -0.2287
  491TIP3   OH222887   3.675   0.697   2.295 -0.6010 -0.2827 -0.1718
  491TIP3    H122888   3.620   0.762   2.339  0.7140  1.5418 -1.0421
  491TIP3    H222889   3.729   0.749   2.235  1.6329 -2.0162  0.1960
  492TIP3   OH222890   6.104   4.321  16.910 -0.2087  0.3579 -0.0488
  492TIP3    H122891   6.059   4.381  16.969 -1.0393  1.5659 -1.8116
  492TIP3    H222892   6.194   4.354  16.906 -0.0806  0.1198  0.6929
  493TIP3   OH222893   6.599   1.668  16.299 -0.5075 -0.0053 -0.0576
  493TIP3    H122894   6.514   1.708  16.316  0.8234  1.7920  3.0571
  493TIP3    H222895   6.606   1.598  16.364 -0.1690 -1.1809 -1.3073
  494TIP3   OH222896   0.971   5.984  12.737  0.5126 -0.6249  0.7472
  494TIP3    H122897   1.064   5.998  12.724  0.5456  0.0469  1.6134
  494TIP3    H222898   0.929   6.046  12.677  0.6151 -0.9604  0.3235
  495TIP3   OH222899   2.863   0.527   3.552 -0.4513 -0.6270  0.0433
  495TIP3    H122900   2.879   0.597   3.488 -0.1176 -0.6773  0.0694
  495TIP3    H222901   2.772   0.503   3.539 -0.5897 -0.1365  0.0824
  496TIP3   OH222902   3.933   1.441   1.451  0.0728 -0.6735  0.2090
  496TIP3    H122903   3.850   1.407   1.418 -0.8236  0.7521  0.8853
  496TIP3    H222904   3.909   1.496   1.526  1.5328  0.3981 -0.0512
  497TIP3   OH222905   4.340   1.433   3.017 -0.0208 -0.5118  0.2232
  497TIP3    H122906   4.309   1.466   2.932  0.0259  0.8266  0.7062
  497TIP3    H222907   4.413   1.375   2.994  0.3121  0.2136 -0.6323
  498TIP3   OH222908   6.053   0.875  14.338 -0.4681  0.7665 -0.6803
  498TIP3    H122909   5.978   0.861  14.396 -0.1501 -1.6653 -0.7482
  498TIP3    H222910   6.015   0.885  14.251 -0.7787 -0.0214 -0.6470
  499TIP3   OH222911   2.806   4.908  14.276 -0.4390  0.1419 -0.0178
  499TIP3    H122912   2.745   4.834  14.273  0.3439 -0.5651  1.1509
  499TIP3    H222913   2.753   4.981  14.308 -0.9579 -0.1732 -0.1444
  500TIP3   OH222914   6.315   2.767   3.835  0.4170  0.1678  0.3936
  500TIP3    H122915   6.243   2.809   3.882 -0.2694  0.5567 -0.9373
  500TIP3    H222916   6.373   2.734   3.903 -1.4995 -1.0293  1.5291
  501TIP3   OH222917   5.270   2.538   3.652 -0.4212  0.6904  0.4130
  501TIP3    H122918   5.316   2.614   3.615 -0.2848  0.6807  0.5609
  501TIP3    H222919   5.178   2.564   3.652 -0.2065  1.7515  2.4678
  502TIP3   OH222920   2.589   2.943   1.517 -0.8003 -0.5743  0.1447
  502TIP3    H122921   2.613   2.922   1.427 -0.9903 -0.0701 -0.0236
  502TIP3    H222922   2.552   3.031   1.513  2.1685  0.8589  1.2014
  503TIP3   OH222923   6.316   5.904  14.789  0.5066  0.0327 -0.1568
  503TIP3    H122924   6.316   5.819  14.833  0.4410  0.1849  0.1414
  503TIP3    H222925   6.389   5.899  14.729 -0.1575 -0.6392 -0.9351
  504TIP3   OH222926   5.689   1.970   3.344  0.1197 -0.3876 -0.0361
  504TIP3    H122927   5.774   1.969   3.300 -0.0769 -0.2067 -0.4228
  504TIP3    H222928   5.627   1.999   3.277 -0.5504 -2.2981 -0.2966
  505TIP3   OH222929   0.015   1.213  12.600  0.0988 -0.0242  0.2383
  505TIP3    H122930   0.053   1.295  12.570 -2.6731  2.3190  2.4828
  505TIP3    H222931  -0.057   1.196  12.540 -0.5968  0.3649  0.9408
  506TIP3   OH222932   1.881   3.404  16.955 -0.1406  0.2238 -0.0830
  506TIP3    H122933   1.948   3.398  17.023 -2.2618 -0.8452  2.0690
  506TIP3    H222934   1.847   3.493  16.963  1.8197  1.2478 -2.1152
  507TIP3   OH222935   6.772   2.193   3.542 -0.2851  0.5393 -0.7564
  507TIP3    H122936   6.741   2.102   3.544 -1.5499  0.9525  0.2688
  507TIP3    H222937   6.853   2.193   3.594 -1.6944  0.4158  1.6266
  508TIP3   OH222938   5.096   6.066   4.027 -0.2131 -0.1592 -0.3109
  508TIP3    H122939   5.103   5.976   4.058 -1.3308 -0.2081 -0.1897
  508TIP3    H222940   5.110   6.060   3.932  4.4497  0.1298  0.1236
  509TIP3   OH222941   3.883   6.068  13.386 -0.0704 -0.4810  0.0724
  509TIP3    H122942   3.965   6.080  13.338  0.0624 -0.1793  0.3715
  509TIP3    H222943   3.833   6.148  13.367  0.3787  0.0898  1.2083
  510TIP3   OH222944   4.069   0.190  11.922  0.1617  0.2916  0.0394
  510TIP3    H122945   4.068   0.155  12.011 -1.4782  0.8976  0.2931
  510TIP3    H222946   4.100   0.280  11.932  0.6450  0.1403 -0.0965
  511TIP3   OH222947   5.431   1.415  11.467  0.5621 -0.3349 -0.1767
  511TIP3    H122948   5.405   1.400  11.558 -2.0328  0.5711 -0.6751
  511TIP3    H222949   5.447   1.510  11.463 -0.9160 -0.0910 -0.9681
  512TIP3   OH222950   3.837   4.248  11.467 -0.7269 -0.4767  0.0189
  512TIP3    H122951   3.772   4.180  11.446 -2.5047  0.7191  1.2933
  512TIP3    H222952   3.784   4.322  11.496  1.2628  0.4915  1.3476
  513TIP3   OH222953   3.550   5.637   1.891 -0.1472 -0.0510  0.2878
  513TIP3    H122954   3.485   5.604   1.953  2.1443 -0.4017  2.6709
  513TIP3    H222955   3.634   5.619   1.932  1.4874  1.0387 -2.3142
  514TIP3   OH222956   2.117   5.279  11.267 -0.5410  0.2373  0.6101
  514TIP3    H122957   2.188   5.259  11.205 -1.1716  0.2234 -0.1207
  514TIP3    H222958   2.082   5.194  11.292 -1.8166  0.2890 -0.8440
  515TIP3   OH222959   6.709   5.466   0.585  0.1701  0.1247 -0.0202
  515TIP3    H122960   6.694   5.406   0.511  1.2301  0.1262 -0.2522
  515TIP3    H222961   6.801   5.489   0.578 -0.1377  1.5088  0.2890
  516TIP3   OH222962   0.749   4.737   0.554 -0.0275 -0.4147  0.2349
  516TIP3    H122963   0.822   4.733   0.492 -0.6760 -0.2531 -0.5578
  516TIP3    H222964   0.780   4.688   0.630  0.1833 -2.0638 -0.8570
  517TIP3   OH222965   2.113   1.498   2.276  0.2859  0.4374  0.1721
  517TIP3    H122966   2.150   1.581   2.309 -0.9046  1.1656 -0.2649
  517TIP3    H222967   2.019   1.514   2.270 -0.1319 -1.3872  1.2662
  518TIP3   OH222968   1.474   4.293  11.235  0.5989  0.1669 -0.3237
  518TIP3    H122969   1.438   4.320  11.151  2.5982  0.0106 -1.2785
  518TIP3    H222970   1.455   4.366  11.294 -0.7116  0.3318 -0.9192
  519TIP3   OH222971   1.604   0.144   4.011 -1.0854 -0.1398 -0.3049
  519TIP3    H122972   1.576   0.167   4.100 -2.1627 -1.7379 -0.1828
  519TIP3    H222973   1.541   0.187   3.954 -1.0540 -0.0063 -0.2391
  520TIP3   OH222974   3.337   0.322   4.072  0.2636 -0.5364 -0.2358
  520TIP3    H122975   3.340   0.255   4.003 -0.5928  0.3164 -1.1279
  520TIP3    H222976   3.324   0.404   4.025 -0.9990 -0.0096  0.9900
  521TIP3   OH222977   0.656   1.452   2.970  0.4800 -0.1835 -0.2835
  521TIP3    H122978   0.613   1.376   3.011  2.0807 -0.0965  1.7191
  521TIP3    H222979   0.739   1.418   2.938  0.0216  0.1671 -1.9425
  522TIP3   OH222980   6.404   1.711  14.159  0.4901 -0.1612  0.4862
  522TIP3    H122981   6.453   1.723  14.241 -0.1120  0.6678  0.7388
  522TIP3    H222982   6.429   1.786  14.105 -1.5655  1.0926  1.1768
  523TIP3   OH222983   3.248   3.238  16.945 -0.2769 -0.0512 -0.1983
  523TIP3    H122984   3.312   3.205  17.008 -1.9120 -1.4995  0.8072
  523TIP3    H222985   3.245   3.332  16.960  2.6953  0.3276 -1.3734
  524TIP3   OH222986   5.434   0.643  11.677 -0.7624 -0.5075  0.0704
  524TIP3    H122987   5.445   0.589  11.599 -0.5053 -1.0447  0.4755
  524TIP3    H222988   5.477   0.726  11.655 -0.8099 -0.6039 -0.4055
  525TIP3   OH222989   1.406   4.234   3.568  1.0360  0.2036 -0.1421
  525TIP3    H122990   1.396   4.215   3.661  0.4550 -1.0861 -0.4433
  525TIP3    H222991   1.330   4.287   3.545  0.7011 -0.2429 -0.0683
  526TIP3   OH222992   2.148   5.535   5.391 -0.2554  0.3250  0.0540
  526TIP3    H122993   2.083   5.554   5.323  0.2922 -0.0387 -0.5831
  526TIP3    H222994   2.159   5.618   5.437 -0.7919  0.5214 -0.1587
  527TIP3   OH222995   1.716   5.839  16.345 -0.2676  0.2243  0.0944
  527TIP3    H122996   1.752   5.750  16.349  0.2854  0.4485  0.0752
  527TIP3    H222997   1.696   5.853  16.253  0.8829  0.6102 -0.1068
  528TIP3   OH222998   5.673   4.139  13.057  0.1319 -0.1662 -0.5175
  528TIP3    H122999   5.611   4.121  12.986 -2.2607  1.8501  0.9194
  528TIP3    H223000   5.759   4.141  13.013 -1.0950 -0.1188 -3.1278
  529TIP3   OH223001   4.435   0.784   0.377 -0.1685  0.0372 -0.1922
  529TIP3    H123002   4.510   0.726   0.392  0.6197  0.7478 -1.3207
  529TIP3    H223003   4.425   0.786   0.282 -1.8594 -0.3204 -0.0561
  530TIP3   OH223004   4.748   0.785   4.676 -0.4735  0.3394  0.6117
  530TIP3    H123005   4.757   0.701   4.631  2.3321 -0.8769  3.0553
  530TIP3    H223006   4.740   0.850   4.607 -2.6028 -1.8566 -1.3871
  531TIP3   OH223007   1.596   6.525   0.116  0.3977 -0.0918  0.3992
  531TIP3    H123008   1.679   6.486   0.091  1.1024 -0.3414  2.8342
  531TIP3    H223009   1.591   6.511   0.211 -1.8627  0.9742  0.5000
  532TIP3   OH223010   3.382   0.733   2.684  0.5907  1.0894 -0.2027
  532TIP3    H123011   3.360   0.781   2.763  2.5917  1.5771  0.1148
  532TIP3    H223012   3.303   0.738   2.629 -0.3597  1.8740  1.1933
  533TIP3   OH223013   0.982   5.182  14.950 -0.1964 -0.1333 -0.6663
  533TIP3    H123014   1.062   5.190  14.899  0.9891 -2.7133  0.5857
  533TIP3    H223015   0.948   5.095  14.929 -0.7319 -0.4905  1.4014
  534TIP3   OH223016   0.255   3.298  12.604 -0.1229  0.5895 -0.0302
  534TIP3    H123017   0.194   3.372  12.599  0.5676  1.1253 -0.5802
  534TIP3    H223018   0.216   3.241  12.670 -1.2268  0.9199 -0.3712
  535TIP3   OH223019   0.090   3.747  12.937 -0.5150 -0.4704 -0.5361
  535TIP3    H123020   0.073   3.839  12.960  0.2961  0.0041 -1.7410
  535TIP3    H223021   0.003   3.709  12.924 -0.8951 -0.1077  0.7535
  536TIP3   OH223022   3.647   4.074   1.221 -0.0347 -0.5884 -0.4961
  536TIP3    H123023   3.646   4.124   1.139 -0.3088 -0.0072 -0.1442
  536TIP3    H223024   3.711   4.119   1.276 -2.4427  1.3083  0.9712
  537TIP3   OH223025   5.380   0.964  11.496  0.1445  0.0986  0.3239
  537TIP3    H123026   5.361   0.879  11.454  1.4449 -0.7574  1.3846
  537TIP3    H223027   5.361   1.029  11.429  1.8736 -1.2045 -1.5516
  538TIP3   OH223028   3.928   0.535  13.011  0.0497  0.1244  0.6140
  538TIP3    H123029   3.999   0.471  13.013  1.6021  1.7816  0.7982
  538TIP3    H223030   3.957   0.605  13.070 -0.8032  1.7881 -0.8574
  539TIP3   OH223031   6.078   2.815   2.317 -0.0021 -0.3357 -0.7191
  539TIP3    H123032   6.123   2.899   2.316  0.9173 -0.7981 -0.2735
  539TIP3    H223033   5.988   2.835   2.340  0.5365  0.4001  0.8898
  540TIP3   OH223034   1.041   0.319  12.690  0.0588  0.2867 -0.4491
  540TIP3    H123035   1.051   0.353  12.779 -0.5708  0.2129 -0.3508
  540TIP3    H223036   1.065   0.392  12.633 -0.5561  0.6556 -0.2311
  541TIP3   OH223037   0.839   6.271   3.043  0.2337  0.4500 -0.5748
  541TIP3    H123038   0.809   6.350   2.998  1.7573  1.2255 -0.3108
  541TIP3    H223039   0.871   6.303   3.128  0.3464 -0.5353 -0.2304
  542TIP3   OH223040   3.268   3.628   6.278  0.1791  0.3776 -0.3852
  542TIP3    H123041   3.307   3.662   6.359 -1.4817  2.1235 -0.2303
  542TIP3    H223042   3.220   3.550   6.305  0.5837  0.2897  0.0949
  543TIP3   OH223043   5.473   0.061   1.261 -0.3041  0.5319 -0.6405
  543TIP3    H123044   5.482   0.155   1.279  0.2689  0.2271  0.7279
  543TIP3    H223045   5.456   0.022   1.346  0.9768 -0.7889 -0.9604
  544TIP3   OH223046   0.137   0.657  16.217  0.0944  0.0358 -0.3829
  544TIP3    H123047   0.127   0.622  16.129 -0.9587  1.9091 -1.0517
  544TIP3    H223048   0.191   0.735  16.206 -1.4558  1.2674  0.3312
  545TIP3   OH223049   6.255   1.195   4.609 -0.3562  0.3034 -0.2623
  545TIP3    H123050   6.252   1.155   4.696 -1.8525  2.7773  0.9383
  545TIP3    H223051   6.281   1.124   4.551 -1.3066 -1.9615  1.8909
  546TIP3   OH223052   2.478   4.812  15.639 -0.5825  0.1878 -0.0507
  546TIP3    H123053   2.554   4.864  15.665 -1.0503  0.5360  0.6914
  546TIP3    H223054   2.424   4.808  15.719 -1.1255 -0.4197 -0.4393
  547TIP3   OH223055   6.744   0.910   0.864  0.1782 -0.0450 -0.2476
  547TIP3    H123056   6.760   0.826   0.908  0.5359  0.3940  0.4780
  547TIP3    H223057   6.773   0.896   0.774  1.6068 -0.2809  0.2164
  548TIP3   OH223058   5.147   0.607   2.034 -0.0998 -0.1654  0.3598
  548TIP3    H123059   5.076   0.576   1.977  0.7501 -1.3339 -0.0952
  548TIP3    H223060   5.145   0.549   2.109  1.4899 -1.3626 -0.4859
  549TIP3   OH223061   1.580   2.332  15.976 -0.2349  0.5840 -0.0457
  549TIP3    H123062   1.635   2.279  15.919  1.0688  1.3060  0.4949
  549TIP3    H223063   1.626   2.331  16.061 -0.6337  1.8434  0.2033
  550TIP3   OH223064   2.498   5.778   4.525  0.2664 -0.4707 -0.1535
  550TIP3    H123065   2.514   5.764   4.431  0.8007 -2.8171  0.2265
  550TIP3    H223066   2.404   5.793   4.531  0.4526  1.5280 -1.1956
  551TIP3   OH223067   3.786   4.190   2.329 -0.2794 -0.8383  0.3148
  551TIP3    H123068   3.731   4.226   2.259  1.6339  1.4493 -0.1222
  551TIP3    H223069   3.788   4.258   2.396  0.6484 -1.5788  1.0722
  552TIP3   OH223070   4.049   0.796  16.896  0.1260 -0.6791 -0.1126
  552TIP3    H123071   3.981   0.859  16.871 -1.0071 -2.3644 -1.4322
  552TIP3    H223072   4.018   0.712  16.863  2.6083 -1.6020 -0.2611
  553TIP3   OH223073   5.718   3.441   1.055  0.5986  0.1302  0.0242
  553TIP3    H123074   5.682   3.353   1.046  1.1240 -0.2660  1.5392
  553TIP3    H223075   5.664   3.495   0.997 -0.5614 -0.9576  0.0524
  554TIP3   OH223076   2.479   3.710   4.694 -0.3774  0.0588  0.4916
  554TIP3    H123077   2.466   3.661   4.775  0.6804 -1.3000 -0.1291
  554TIP3    H223078   2.530   3.787   4.720  0.2139 -0.5213  1.0635
  555TIP3   OH223079   5.037   0.811   3.241 -0.2611  0.1796 -0.5989
  555TIP3    H123080   5.043   0.886   3.301 -1.0057  1.2468 -1.7944
  555TIP3    H223081   5.122   0.808   3.198 -0.3812  0.6306 -0.8731
  556TIP3   OH223082   6.041   2.812   0.214  0.1308  0.2104 -0.1069
  556TIP3    H123083   6.053   2.718   0.196  1.3753  0.3395 -0.0322
  556TIP3    H223084   5.953   2.831   0.182  1.0420 -0.2731 -3.1584
  557TIP3   OH223085   4.507   6.515   2.726  0.1296  0.7931  0.3964
  557TIP3    H123086   4.565   6.475   2.791 -0.2737  1.5587  1.2428
  557TIP3    H223087   4.454   6.442   2.694  0.5263  0.3601  0.7130
  558TIP3   OH223088   6.331   3.429  16.421  0.1466  0.0140  0.2656
  558TIP3    H123089   6.344   3.505  16.364 -0.2641 -0.7352 -0.8704
  558TIP3    H223090   6.414   3.382  16.418  0.4075  0.4189  0.9849
  559TIP3   OH223091   2.787   2.094  12.806  0.3071 -0.0243  0.0154
  559TIP3    H123092   2.829   2.135  12.882  0.1074  1.8498 -0.8380
  559TIP3    H223093   2.725   2.160  12.774  1.5718 -0.0450 -2.7674
  560TIP3   OH223094   4.471   5.167  11.488 -0.1274 -0.3666  0.1948
  560TIP3    H123095   4.543   5.106  11.500 -0.7456 -1.0908  0.2605
  560TIP3    H223096   4.416   5.156  11.565 -0.2619  0.2508  0.1942
  561TIP3   OH223097   2.048   6.577   5.653 -0.3979 -0.1766  0.5757
  561TIP3    H123098   1.955   6.563   5.669 -0.3914  1.0436  1.9160
  561TIP3    H223099   2.051   6.630   5.573 -0.7692 -1.2495 -0.1709
  562TIP3   OH223100   2.954   4.376  16.682  0.0477  0.3446 -0.0364
  562TIP3    H123101   2.949   4.303  16.744 -0.8220  0.9730  0.6431
  562TIP3    H223102   2.863   4.400  16.665  0.2899  0.4893 -1.2069
  563TIP3   OH223103   1.186   2.296  15.965  0.0241 -1.0359  0.2608
  563TIP3    H123104   1.216   2.272  15.878  0.0067 -0.1370 -0.0031
  563TIP3    H223105   1.123   2.228  15.989  1.2727 -2.2286  0.2825
  564TIP3   OH223106   2.826   5.954  11.223 -0.5412 -0.1771  0.1609
  564TIP3    H123107   2.894   6.011  11.256 -1.4374  0.0577  1.6927
  564TIP3    H223108   2.872   5.877  11.190  0.7440  1.5394 -2.4106
  565TIP3   OH223109   1.950   4.205  12.125 -0.1077  0.8200 -0.4635
  565TIP3    H123110   2.028   4.244  12.086 -0.5182  2.9600  0.7384
  565TIP3    H223111   1.896   4.179  12.050  2.0922 -1.6689 -1.3679
  566TIP3   OH223112   4.870   6.066  15.520 -0.2209  0.2705  0.1263
  566TIP3    H123113   4.828   6.136  15.470  2.0871  1.6164 -0.0468
  566TIP3    H223114   4.885   6.103  15.607  1.4760  0.2284 -0.1135
  567TIP3   OH223115   3.538   2.932   2.132 -0.2747 -0.2309 -0.6528
  567TIP3    H123116   3.633   2.920   2.138 -0.2453  0.5137  1.0985
  567TIP3    H223117   3.502   2.863   2.188 -0.8541 -1.1867 -2.1494
  568TIP3   OH223118   6.568   2.815   0.227  0.3280  0.3130  0.0086
  568TIP3    H123119   6.574   2.735   0.280  1.8056 -0.4312 -1.2059
  568TIP3    H223120   6.507   2.870   0.275 -1.6100 -1.9538  0.3297
  569TIP3   OH223121   3.961   1.156   0.160 -0.2546  0.1105  0.1984
  569TIP3    H123122   3.985   1.107   0.238  1.9713  1.1547  0.2523
  569TIP3    H223123   3.978   1.096   0.087  1.0569  0.2910  0.3416
  570TIP3   OH223124   1.449   5.593   4.262  0.3728  0.0060  0.2845
  570TIP3    H123125   1.386   5.541   4.312 -0.3694  0.2503 -0.3739
  570TIP3    H223126   1.447   5.679   4.303 -0.4515  0.2895 -0.3321
  571TIP3   OH223127   0.456   4.925  15.932  0.2797  0.3332  0.3116
  571TIP3    H123128   0.433   5.014  15.905  0.6768  0.1683 -0.6181
  571TIP3    H223129   0.444   4.924  16.027 -1.5914  0.8197  0.1038
  572TIP3   OH223130   1.193   3.070   5.386  0.6033 -0.0369  0.3313
  572TIP3    H123131   1.235   3.131   5.447  1.1930 -0.2759  0.1725
  572TIP3    H223132   1.155   3.002   5.442 -0.7781  0.8907  0.5643
  573TIP3   OH223133   4.403   2.881  15.301 -0.4261 -0.3845 -0.2812
  573TIP3    H123134   4.457   2.957  15.279  0.6436 -0.9792  0.2205
  573TIP3    H223135   4.355   2.862  15.221  0.3569 -0.0238 -0.8532
  574TIP3   OH223136   4.713   5.488  13.101  0.0372 -0.0003  0.1554
  574TIP3    H123137   4.633   5.487  13.154 -0.5546 -0.5602 -0.7227
  574TIP3    H223138   4.683   5.504  13.012  0.8574 -0.6527 -0.2560
  575TIP3   OH223139   3.870   4.935   3.114 -0.1885 -0.3219  0.1568
  575TIP3    H123140   3.838   4.879   3.184  0.5689 -1.7557 -0.5840
  575TIP3    H223141   3.890   4.874   3.042  0.1081  0.9719 -0.8997
  576TIP3   OH223142   0.323   5.704  11.299 -0.4439 -0.1515  0.5487
  576TIP3    H123143   0.292   5.744  11.380 -0.4741 -1.5344  1.2588
  576TIP3    H223144   0.251   5.647  11.271 -0.7366  0.8651 -0.8851
  577TIP3   OH223145   5.785   4.650  15.678  1.0252  0.5074 -0.3152
  577TIP3    H123146   5.731   4.724  15.705 -0.0457 -0.1833 -0.5059
  577TIP3    H223147   5.796   4.598  15.757  1.3702  0.6230 -0.2873
  578TIP3   OH223148   6.708   5.682   3.747  0.1033 -0.0339 -0.4810
  578TIP3    H123149   6.661   5.618   3.693 -0.7697  1.7926 -2.0136
  578TIP3    H223150   6.800   5.671   3.722 -0.2512  0.5752 -2.1908
  579TIP3   OH223151   1.467   4.441  13.627 -0.1762 -0.0072  0.1299
  579TIP3    H123152   1.548   4.488  13.650 -0.8718  0.6248  1.3902
  579TIP3    H223153   1.482   4.410  13.538  1.4985  0.0087  0.3740
  580TIP3   OH223154   0.050   5.057  15.898  0.2636  0.1220 -0.0445
  580TIP3    H123155  -0.005   5.119  15.945  1.0845 -1.3290  3.0414
  580TIP3    H223156   0.140   5.084  15.918  0.6303 -1.5082  0.6243
  581TIP3   OH223157   4.452   4.401   1.800 -0.7230 -0.4123 -0.2215
  581TIP3    H123158   4.362   4.399   1.832 -1.1981 -2.0980 -1.4759
  581TIP3    H223159   4.497   4.334   1.852 -0.2582  0.1765  0.1539
  582TIP3   OH223160   4.952   3.101  11.359  0.1757  0.5370  0.0734
  582TIP3    H123161   5.037   3.145  11.354 -0.5082  1.9654  0.4109
  582TIP3    H223162   4.930   3.081  11.268  0.9207  0.0587 -0.0064
  583TIP3   OH223163   6.036   2.518  16.596 -0.3216 -0.8407 -0.1790
  583TIP3    H123164   5.975   2.587  16.623 -0.6592 -0.8256 -0.9491
  583TIP3    H223165   6.102   2.564  16.545 -0.0742 -0.9699  0.0227
  584TIP3   OH223166   1.158   1.644  12.094  0.8542  0.2206 -0.2589
  584TIP3    H123167   1.202   1.581  12.150  2.5486  1.2110 -0.3981
  584TIP3    H223168   1.223   1.713  12.079 -0.6994  1.7015 -0.6136
  585TIP3   OH223169   6.038   6.651   5.992 -0.6947 -0.0034 -0.5147
  585TIP3    H123170   6.049   6.633   6.085  0.0775  1.4663 -0.3001
  585TIP3    H223171   6.022   6.565   5.953  1.4955 -0.9842  0.6124
  586TIP3   OH223172   3.138   3.555   1.297  0.0081  0.3075  0.5769
  586TIP3    H123173   3.201   3.544   1.368  2.3373  2.1248 -1.0475
  586TIP3    H223174   3.190   3.587   1.223 -2.6288  0.5886 -1.3090
  587TIP3   OH223175   0.351   1.355  14.350 -0.0788 -0.1509  0.3835
  587TIP3    H123176   0.390   1.293  14.412 -0.5108 -0.1597  0.6593
  587TIP3    H223177   0.378   1.324  14.264  1.5291  0.5500  0.5990
  588TIP3   OH223178   1.417   0.066  16.795 -0.6871 -0.6517 -0.4934
  588TIP3    H123179   1.428  -0.027  16.814 -0.5471 -0.8390 -1.4588
  588TIP3    H223180   1.324   0.076  16.777 -0.8067 -0.4862  0.1746
  589TIP3   OH223181   0.374   4.568   0.321  0.6843 -0.2864  0.2743
  589TIP3    H123182   0.331   4.515   0.388  2.0442  0.0045  1.4333
  589TIP3    H223183   0.466   4.571   0.349  1.0447  0.8597 -0.9539
  590TIP3   OH223184   1.073   6.019   3.967 -0.1005 -0.4432 -0.5714
  590TIP3    H123185   0.996   5.994   4.017  0.1110  1.4596  0.8085
  590TIP3    H223186   1.044   6.092   3.913  0.6825  0.2125 -0.1232
  591TIP3   OH223187   2.192   3.386  11.513  0.3319  0.0259  0.0630
  591TIP3    H123188   2.184   3.461  11.455 -0.9542  0.1767  0.3959
  591TIP3    H223189   2.261   3.333  11.475 -0.3546  0.2112 -1.5099
  592TIP3   OH223190   2.552   4.114   1.326 -0.8948 -0.7156 -0.0293
  592TIP3    H123191   2.549   4.171   1.403  0.3421 -0.2743 -0.2907
  592TIP3    H223192   2.584   4.031   1.359  1.8064  0.0989 -0.3702
  593TIP3   OH223193   0.339   0.019  16.756  0.8485 -0.5223 -0.0671
  593TIP3    H123194   0.251   0.013  16.794  1.4421 -0.4310  1.3900
  593TIP3    H223195   0.331  -0.024  16.671 -1.1834  1.5773 -1.0644
  594TIP3   OH223196   1.629   2.494   1.728 -0.8480 -0.4491  0.0615
  594TIP3    H123197   1.710   2.445   1.744 -1.2732 -0.3583  3.2522
  594TIP3    H223198   1.563   2.448   1.781 -2.5341  0.3912 -1.2282
  595TIP3   OH223199   5.265   4.335  15.049  0.4056  0.1683 -0.2290
  595TIP3    H123200   5.203   4.381  15.107  0.5373  2.1291 -1.5368
  595TIP3    H223201   5.343   4.322  15.103 -0.7182 -1.4143  1.1287
  596TIP3   OH223202   1.792   3.626  13.402  0.4541 -0.3546 -0.4841
  596TIP3    H123203   1.865   3.601  13.458  0.1686  0.0154  0.0561
  596TIP3    H223204   1.834   3.671  13.328  0.6298  2.7746  1.3749
  597TIP3   OH223205   6.514   3.700   5.291 -0.0863 -0.4008 -0.6939
  597TIP3    H123206   6.601   3.730   5.317 -0.6630  1.6379 -0.9310
  597TIP3    H223207   6.523   3.674   5.200  0.1764  0.3371 -0.8854
  598TIP3   OH223208   3.458   4.449  11.453 -0.2082  0.3621 -0.5137
  598TIP3    H123209   3.408   4.442  11.534 -0.5263 -1.4917 -0.8187
  598TIP3    H223210   3.482   4.541  11.447  3.0160  0.0678  3.5632
  599TIP3   OH223211   2.382   5.455   1.801 -0.3978  0.2774  0.9568
  599TIP3    H123212   2.371   5.390   1.871 -0.7912 -0.2400  0.4184
  599TIP3    H223213   2.380   5.540   1.847  0.0469 -0.0802  1.6546
  600TIP3   OH223214   3.758   0.180   4.884  0.3176 -0.4056 -0.1787
  600TIP3    H123215   3.831   0.209   4.829  1.6660  0.4840  1.9344
  600TIP3    H223216   3.800   0.136   4.958 -1.1662  1.0077  1.6146
  601TIP3   OH223217   4.370   3.761  13.974  0.2033  0.5484  0.0326
  601TIP3    H123218   4.410   3.845  13.953 -0.7592  1.1235  0.4165
  601TIP3    H223219   4.306   3.781  14.043 -1.5125 -0.1207 -1.2741
  602TIP3   OH223220   2.847   2.076   0.855  0.6850 -0.2151 -0.3360
  602TIP3    H123221   2.875   1.993   0.892  0.2693 -1.3185 -2.3658
  602TIP3    H223222   2.927   2.114   0.817  0.7481  0.0109  0.0170
  603TIP3   OH223223   3.812   4.252   4.073 -0.4710  0.3995  0.0942
  603TIP3    H123224   3.841   4.165   4.100 -0.6955 -0.4922 -2.2932
  603TIP3    H223225   3.882   4.285   4.017 -0.7814  1.4084  0.2738
  604TIP3   OH223226   0.384   4.231   1.166  0.0014 -0.1644  0.0587
  604TIP3    H123227   0.317   4.264   1.107  0.6978  1.3790  0.0775
  604TIP3    H223228   0.383   4.136   1.153 -0.2066  0.0739 -2.0705
  605TIP3   OH223229   5.369   5.300   2.510  0.5541  0.6051  1.0721
  605TIP3    H123230   5.442   5.353   2.541 -0.2806  1.5190  1.5059
  605TIP3    H223231   5.350   5.333   2.422 -2.2454  3.6004  2.5803
  606TIP3   OH223232   0.317   1.707  14.536 -0.2995  0.1253 -0.4718
  606TIP3    H123233   0.393   1.655  14.509 -0.6621 -1.3750  1.2456
  606TIP3    H223234   0.257   1.701  14.461  0.3165 -0.6149 -0.9279
  607TIP3   OH223235   0.593   2.739  16.010 -0.3404 -0.2541 -0.5807
  607TIP3    H123236   0.578   2.779  15.924 -0.7335  0.4480 -0.1932
  607TIP3    H223237   0.647   2.662  15.992  1.2088  0.9458 -1.2647
  608TIP3   OH223238   3.227   0.621   1.068 -0.2870 -0.4271 -0.0731
  608TIP3    H123239   3.136   0.606   1.093 -0.0699  0.2828  1.2270
  608TIP3    H223240   3.221   0.683   0.995 -0.8763 -1.2511 -0.7374
  609TIP3   OH223241   3.967   3.900   3.494  0.2308 -0.0960 -0.2294
  609TIP3    H123242   4.015   3.976   3.459 -0.0379 -1.3247 -3.6685
  609TIP3    H223243   3.875   3.923   3.483  0.0939 -0.0059  0.9993
  610TIP3   OH223244   3.564   0.263  14.315  0.3455 -0.1617  0.6205
  610TIP3    H123245   3.609   0.319  14.379  0.7250 -0.0005  0.2151
  610TIP3    H223246   3.588   0.174  14.340  2.6848 -0.0215 -0.8764
  611TIP3   OH223247   3.555   1.665  16.065 -0.3503  0.5549  0.3278
  611TIP3    H123248   3.520   1.577  16.053 -1.1843  0.7809  1.0100
  611TIP3    H223249   3.527   1.691  16.153 -0.3730  1.6157  0.0259
  612TIP3   OH223250   3.543   2.835   5.798  0.3948  0.1127  0.0032
  612TIP3    H123251   3.556   2.856   5.705  1.5177 -0.8678 -0.0850
  612TIP3    H223252   3.488   2.757   5.798  1.8963 -0.9894  0.0633
  613TIP3   OH223253   5.320   2.023  16.852  0.8790 -0.4386  0.2121
  613TIP3    H123254   5.289   2.114  16.848  1.4168 -0.2073  1.1114
  613TIP3    H223255   5.287   1.990  16.935 -0.5702 -1.5575 -0.7619
  614TIP3   OH223256   2.561   5.190  13.800 -0.2204 -0.4055  0.2787
  614TIP3    H123257   2.528   5.111  13.843 -1.9770  0.9142  1.5171
  614TIP3    H223258   2.482   5.237  13.773  0.8014 -0.0020 -2.3043
  615TIP3   OH223259   5.663   3.082  13.935  0.3806 -0.3131 -0.3364
  615TIP3    H123260   5.588   3.122  13.978  0.3000 -0.4491 -0.3488
  615TIP3    H223261   5.632   3.060  13.847  0.3529 -0.6081 -0.2567
  616TIP3   OH223262   1.974   3.185   0.201  0.0650 -0.2988 -0.1427
  616TIP3    H123263   1.997   3.241   0.127  1.2137  0.2030  0.5457
  616TIP3    H223264   1.943   3.246   0.268 -1.0203 -0.7495 -0.2269
  617TIP3   OH223265   5.167   3.786   0.318 -0.0395 -0.0750 -0.8933
  617TIP3    H123266   5.123   3.706   0.289 -0.9308  0.4068 -0.9095
  617TIP3    H223267   5.200   3.827   0.238 -0.2515 -0.0457 -0.9663
  618TIP3   OH223268   6.263   0.771   2.998 -0.1936  0.1870 -0.4099
  618TIP3    H123269   6.353   0.802   3.005 -0.4190  0.4559  2.4905
  618TIP3    H223270   6.211   0.851   2.987 -0.2167  0.2161 -0.1027
  619TIP3   OH223271   0.375   1.926   4.762  0.1973 -0.1008 -0.1428
  619TIP3    H123272   0.444   1.936   4.697  0.5951  2.5129  0.5694
  619TIP3    H223273   0.416   1.953   4.845 -1.5137  1.1222  0.3690
  620TIP3   OH223274   1.959   0.822  15.313  0.3371 -0.3220 -0.2042
  620TIP3    H123275   1.932   0.826  15.221 -0.3490 -0.0113  0.0027
  620TIP3    H223276   2.016   0.897  15.324 -1.1523  0.8118  0.0998
  621TIP3   OH223277   5.467   5.821   5.308 -0.6778  0.3585 -0.1138
  621TIP3    H123278   5.485   5.801   5.400  2.6063  1.8236 -0.2917
  621TIP3    H223279   5.490   5.913   5.299 -0.3546  0.0996 -2.5248
  622TIP3   OH223280   0.264   3.791   3.085  0.2096 -0.2310  0.0735
  622TIP3    H123281   0.256   3.696   3.096  2.8818 -0.6750 -1.1640
  622TIP3    H223282   0.226   3.807   2.999 -0.5605 -0.0778  0.4269
  623TIP3   OH223283   1.881   4.873   1.065  0.4632 -0.2166  0.5357
  623TIP3    H123284   1.892   4.899   1.156 -2.5013 -1.1089  1.2379
  623TIP3    H223285   1.795   4.907   1.040  0.7795 -0.8505 -1.6419
  624TIP3   OH223286   1.958   3.057  13.897 -0.4320  0.3766  0.0958
  624TIP3    H123287   1.864   3.052  13.913 -0.7700  3.0198 -0.5734
  624TIP3    H223288   1.997   3.021  13.977 -1.9613 -1.2147  0.1915
  625TIP3   OH223289   0.721   3.388  14.389 -0.3048  0.6435 -0.8214
  625TIP3    H123290   0.742   3.472  14.348  0.3595  0.3859 -1.0113
  625TIP3    H223291   0.739   3.323  14.322  2.4722  0.0553  0.3741
  626TIP3   OH223292   4.159   6.002  14.922 -0.4345 -0.2509  0.4211
  626TIP3    H123293   4.218   6.003  14.997  0.5990 -0.4016 -0.3520
  626TIP3    H223294   4.216   6.025  14.848 -1.6433  0.9522 -0.1619
  627TIP3   OH223295   0.866   4.821  11.670 -0.3443 -0.5080  0.5440
  627TIP3    H123296   0.915   4.785  11.744 -0.4313 -1.0771  0.3336
  627TIP3    H223297   0.899   4.772  11.594  0.9267  1.1749 -0.0511
  628TIP3   OH223298   6.223   2.365   4.207  0.9986  0.2909  0.1600
  628TIP3    H123299   6.152   2.318   4.250  0.4861 -0.1461 -1.1135
  628TIP3    H223300   6.204   2.457   4.223 -1.3007  0.3542 -2.1631
  629TIP3   OH223301   2.325   4.484   5.534  0.2830  0.3848  0.3628
  629TIP3    H123302   2.247   4.449   5.491  0.8655  2.3971 -2.6344
  629TIP3    H223303   2.292   4.552   5.592 -0.2681  0.0624  0.4372
  630TIP3   OH223304   3.495   1.861   2.478  0.4610  0.5714 -0.9147
  630TIP3    H123305   3.419   1.805   2.493 -0.5557  2.1537  0.0656
  630TIP3    H223306   3.544   1.858   2.560  1.2200 -0.0521 -1.3770
  631TIP3   OH223307   2.413   0.682   0.067 -0.2722 -0.4249 -0.1099
  631TIP3    H123308   2.369   0.673   0.152 -0.1976 -1.9463 -0.2070
  631TIP3    H223309   2.386   0.604   0.019  0.1449  0.1469 -1.2827
  632TIP3   OH223310   1.609   0.380   0.832  0.0816 -0.0186 -0.0796
  632TIP3    H123311   1.579   0.373   0.923  1.9735  0.5264  0.6426
  632TIP3    H223312   1.653   0.296   0.815 -0.8450 -0.3846 -0.7445
  633TIP3   OH223313   0.261   6.007   1.346  0.2307 -0.6292  0.2360
  633TIP3    H123314   0.236   5.915   1.334 -1.3968 -0.2956  0.7798
  633TIP3    H223315   0.325   6.006   1.417 -0.8995 -1.2251  1.2891
  634TIP3   OH223316   6.084   4.077   4.820  0.0849 -0.3336  0.0656
  634TIP3    H123317   5.996   4.092   4.853  0.3355  0.9148  0.2333
  634TIP3    H223318   6.114   4.164   4.792  2.1373 -0.2705  2.1871
  635TIP3   OH223319   4.869   4.059  15.464  0.2620  0.0507 -0.0518
  635TIP3    H123320   4.897   4.089  15.378 -0.2039 -0.1017 -0.2544
  635TIP3    H223321   4.940   4.086  15.523  0.9269 -0.4877 -0.5935
  636TIP3   OH223322   1.781   1.264  13.900 -0.3710 -0.0059 -0.0494
  636TIP3    H123323   1.724   1.339  13.883 -1.2297 -1.0633 -2.1319
  636TIP3    H223324   1.790   1.221  13.816  0.9263 -1.7023  0.8914
  637TIP3   OH223325   5.089   0.308   2.944  0.0618 -0.6776  0.4010
  637TIP3    H123326   5.182   0.292   2.928 -0.4560 -1.4223 -2.4171
  637TIP3    H223327   5.062   0.237   3.002  0.8166 -1.7236 -0.4975
  638TIP3   OH223328   1.453   4.222   1.787 -0.3527 -0.2519  0.2366
  638TIP3    H123329   1.537   4.209   1.743 -0.3922 -1.0325  0.3734
  638TIP3    H223330   1.430   4.314   1.770  1.0669  0.2967  1.1652
  639TIP3   OH223331   5.069   1.731   4.766 -0.1692  0.5190 -0.4240
  639TIP3    H123332   5.120   1.782   4.701  1.2955  0.6861  0.7934
  639TIP3    H223333   5.005   1.794   4.799 -1.0083  0.4079 -1.7414
  640TIP3   OH223334   1.003   0.758  13.235  0.3135 -0.5779 -0.8574
  640TIP3    H123335   1.027   0.851  13.232  1.9965 -0.9652 -0.2116
  640TIP3    H223336   0.967   0.740  13.148  0.2986  0.5770 -1.1162
  641TIP3   OH223337   3.297   4.354  12.321 -0.3160  0.6192 -0.4452
  641TIP3    H123338   3.319   4.446  12.336 -1.9336  0.7630  1.4479
  641TIP3    H223339   3.381   4.308  12.327  0.1398  1.6070  2.1288
  642TIP3   OH223340   1.474   4.510   5.807 -0.1283 -0.2093 -0.0022
  642TIP3    H123341   1.494   4.459   5.728 -0.1812 -0.2274 -0.0039
  642TIP3    H223342   1.382   4.534   5.797  0.4853  1.9094 -1.1585
  643TIP3   OH223343   3.756   1.655  15.463  0.5984  0.2533  0.0593
  643TIP3    H123344   3.738   1.563  15.483  0.7868  0.5165  1.5272
  643TIP3    H223345   3.800   1.653  15.378  0.7301 -1.0267  0.1412
  644TIP3   OH223346   1.900   5.207   1.250  0.6910 -0.0862 -0.1968
  644TIP3    H123347   1.921   5.117   1.275  0.3252 -0.2462 -0.4727
  644TIP3    H223348   1.855   5.199   1.167 -1.1114  0.1970  0.7129
  645TIP3   OH223349   5.915   0.912   4.139 -0.1419  0.2668 -0.5774
  645TIP3    H123350   5.926   0.904   4.044 -2.3446  0.0231 -0.8616
  645TIP3    H223351   5.826   0.946   4.151 -0.1410 -0.2802  1.4109
  646TIP3   OH223352   4.328   5.662  14.571 -0.0941  0.4798 -0.0249
  646TIP3    H123353   4.399   5.716  14.606  2.4208 -1.9350 -1.0846
  646TIP3    H223354   4.260   5.667  14.638  2.4437  0.1755  2.7906
  647TIP3   OH223355   5.995   1.204  14.402 -0.4533 -0.0290  0.3849
  647TIP3    H123356   6.070   1.145  14.401 -1.5231 -1.4471  0.3638
  647TIP3    H223357   6.002   1.251  14.485  1.8585  1.8227 -0.7531
  648TIP3   OH223358   6.670   1.053  14.296  0.2765  0.3253  0.2297
  648TIP3    H123359   6.597   1.045  14.233 -0.0388 -0.2041  0.6482
  648TIP3    H223360   6.644   1.125  14.353  0.5656  0.8123 -0.2459
  649TIP3   OH223361   5.479   4.141   4.529 -0.0516 -0.2167  0.1770
  649TIP3    H123362   5.504   4.227   4.498 -0.8217 -0.1891 -0.4022
  649TIP3    H223363   5.549   4.083   4.499 -0.6004 -0.1339 -1.3539
  650TIP3   OH223364   3.582   5.305  15.748 -0.3054 -0.1514  0.4492
  650TIP3    H123365   3.496   5.266  15.766 -0.4589 -0.4301 -0.8010
  650TIP3    H223366   3.637   5.230  15.726  0.5265 -0.0780  2.1383
  651TIP3   OH223367   6.174   0.894  12.437 -0.2023 -0.5784  0.1111
  651TIP3    H123368   6.161   0.989  12.438  0.1850 -0.5218  1.0102
  651TIP3    H223369   6.091   0.858  12.407 -0.3158  0.0504 -0.3409
  652TIP3   OH223370   0.274   6.449   5.372  0.0303 -0.1338  0.5472
  652TIP3    H123371   0.258   6.387   5.301  1.9868 -0.0511 -0.0453
  652TIP3    H223372   0.187   6.475   5.402 -0.9020 -3.3535  1.0440
  653TIP3   OH223373   1.344   5.360  17.054 -0.2394  0.6738  0.2733
  653TIP3    H123374   1.274   5.356  16.988 -1.0144  1.2203  1.0409
  653TIP3    H223375   1.299   5.344  17.137  0.5714  0.9429  0.7750
  654TIP3   OH223376   5.583   0.418   5.242 -0.0331  0.2383 -0.4087
  654TIP3    H123377   5.679   0.419   5.241  0.0270  3.2761  0.0046
  654TIP3    H223378   5.559   0.478   5.312 -2.2672 -0.5516 -0.4296
  655TIP3   OH223379   5.396   1.434   6.092 -0.2844 -0.0821  0.2628
  655TIP3    H123380   5.344   1.356   6.110  1.2374 -1.7017 -1.8075
  655TIP3    H223381   5.462   1.435   6.162  0.0328 -1.0335 -0.0010
  656TIP3   OH223382   5.643   1.540   0.190 -0.1128 -0.5213 -0.3040
  656TIP3    H123383   5.548   1.552   0.187 -0.4015 -2.4544 -0.1411
  656TIP3    H223384   5.668   1.527   0.099  0.1782  0.9569 -0.4642
  657TIP3   OH223385   0.986   2.119  12.624 -0.5375  0.4866 -0.0864
  657TIP3    H123386   0.932   2.064  12.566  3.1937 -1.9077 -1.6454
  657TIP3    H223387   1.024   2.184  12.565  2.2597 -1.1688 -0.3178
  658TIP3   OH223388   3.124   6.377   1.769  0.0277 -0.0702 -0.4557
  658TIP3    H123389   3.143   6.331   1.688  2.3561  0.5613 -0.3185
  658TIP3    H223390   3.146   6.469   1.751  0.8343  0.0350  0.9350
  659TIP3   OH223391   0.229   2.856   3.122 -0.1434  1.0538  0.2438
  659TIP3    H123392   0.145   2.859   3.168 -0.2482  1.9178  0.0142
  659TIP3    H223393   0.294   2.871   3.190 -0.2413  1.4589  0.2462
  660TIP3   OH223394   4.729   5.731   1.736  0.3497 -0.2663 -0.1399
  660TIP3    H123395   4.725   5.661   1.801  0.8950 -0.6542 -0.5162
  660TIP3    H223396   4.737   5.685   1.652 -0.0654  0.2335 -0.4591
  661TIP3   OH223397   3.610   6.584   6.499  0.0986  0.0336 -0.3328
  661TIP3    H123398   3.549   6.521   6.537 -0.4421  1.1524  0.7586
  661TIP3    H223399   3.659   6.618   6.574  1.1977  0.0597 -1.0494
  662TIP3   OH223400   5.642   4.367  11.693  0.0806 -0.4328 -0.0313
  662TIP3    H123401   5.703   4.338  11.626  0.0280 -0.3005 -0.1379
  662TIP3    H223402   5.605   4.448  11.658  1.4831  0.6983  1.0023
  663TIP3   OH223403   1.747   0.671  11.714  0.3779  0.2967  0.0983
  663TIP3    H123404   1.806   0.675  11.789  1.2662 -2.0562 -0.3876
  663TIP3    H223405   1.662   0.650  11.752  0.7294 -0.4325  0.5001
  664TIP3   OH223406   3.266   0.497   4.660  0.8130 -0.5774 -0.6503
  664TIP3    H123407   3.307   0.502   4.747 -2.9139 -0.1034  1.2868
  664TIP3    H223408   3.257   0.588   4.632 -0.1904 -0.5655 -0.3322
  665TIP3   OH223409   1.518   4.292   4.821 -0.1496  0.0976  0.0779
  665TIP3    H123410   1.472   4.252   4.895 -2.2881 -0.9211 -1.6861
  665TIP3    H223411   1.495   4.385   4.827  1.4253  0.4340  1.8232
  666TIP3   OH223412   1.998   1.706  15.640  0.2606  0.4093 -0.5500
  666TIP3    H123413   2.015   1.635  15.577  0.7628 -2.0522  2.1600
  666TIP3    H223414   2.083   1.721  15.682 -0.1693  1.6616 -0.0877
  667TIP3   OH223415   0.029   1.980  12.592  0.4538 -0.2597  0.2124
  667TIP3    H123416  -0.040   1.956  12.530 -0.3312  1.9945  0.1581
  667TIP3    H223417   0.093   2.027  12.539 -0.8453  2.8593  1.2204
  668TIP3   OH223418   5.542   2.698   1.245 -0.5762  0.0858 -0.2456
  668TIP3    H123419   5.630   2.736   1.244 -1.1619  1.4838 -0.3083
  668TIP3    H223420   5.555   2.608   1.217  0.8782  0.1796  0.0489
  669TIP3   OH223421   6.099   6.257  12.905 -0.1480  0.0719  0.1011
  669TIP3    H123422   6.110   6.226  12.815 -0.6201  0.5203 -0.1119
  669TIP3    H223423   6.175   6.222  12.952 -0.6907 -1.4608 -0.1185
  670TIP3   OH223424   1.700   6.097  13.454  0.3511 -0.5450 -0.0018
  670TIP3    H123425   1.705   6.184  13.495  2.7701 -1.0028  0.8008
  670TIP3    H223426   1.709   6.115  13.360 -1.0874  0.1826 -0.0331
  671TIP3   OH223427   1.289   2.568  14.213 -0.5225  0.1086 -0.4106
  671TIP3    H123428   1.274   2.605  14.300  0.0754 -0.4389 -0.0705
  671TIP3    H223429   1.271   2.641  14.153 -1.3966  0.3612  0.1374
  672TIP3   OH223430   1.204   6.262   1.259  0.2937 -0.9839  0.2375
  672TIP3    H123431   1.111   6.264   1.239  0.3694  0.7737 -0.0491
  672TIP3    H223432   1.233   6.175   1.231 -0.9338 -0.9622 -1.2018
  673TIP3   OH223433   5.938   2.895   4.219  0.4883  0.2921  0.1710
  673TIP3    H123434   5.873   2.825   4.217  1.7432 -0.9266 -0.9203
  673TIP3    H223435   5.892   2.973   4.188 -0.2772 -0.7345 -1.4301
  674TIP3   OH223436   5.442   6.318   2.577  0.5630 -0.6100  0.4654
  674TIP3    H123437   5.419   6.386   2.641  0.6171 -0.9638  0.8687
  674TIP3    H223438   5.528   6.287   2.606  1.4993  0.5546 -0.9013
  675TIP3   OH223439   1.413   6.806   0.323 -0.2641  0.0630  0.0755
  675TIP3    H123440   1.440   6.888   0.281 -1.2980  0.6663  0.5579
  675TIP3    H223441   1.371   6.756   0.253  1.4227 -0.5973 -0.5163
  676TIP3   OH223442   6.273   5.163  15.979  0.3558  0.2037 -0.3757
  676TIP3    H123443   6.196   5.106  15.982 -0.8407  1.7803  1.7134
  676TIP3    H223444   6.347   5.103  15.976 -0.9028 -1.3893 -1.1823
  677TIP3   OH223445   0.396   1.470   3.427  0.0279 -0.4361  0.4645
  677TIP3    H123446   0.393   1.542   3.491 -2.1065 -1.0604  1.1547
  677TIP3    H223447   0.441   1.508   3.351  0.5091  1.0749  1.4474
  678TIP3   OH223448   1.593   0.936  12.889 -0.1955 -0.3768 -0.0160
  678TIP3    H123449   1.570   0.986  12.968  1.1495  0.2250  0.0131
  678TIP3    H223450   1.525   0.960  12.826  0.9663  2.4048 -0.3610
  679TIP3   OH223451   1.401   4.083  15.634  0.3551  0.0717  0.1157
  679TIP3    H123452   1.350   4.041  15.703  1.3618  1.7649  2.0108
  679TIP3    H223453   1.336   4.115  15.572 -0.7064 -0.0703  1.1274
  680TIP3   OH223454   4.218   3.421   0.086  0.1323  0.4280  0.1481
  680TIP3    H123455   4.214   3.326   0.078 -0.4929  0.5190 -0.8466
  680TIP3    H223456   4.298   3.445   0.040 -0.8745  0.5370 -1.6521
  681TIP3   OH223457   5.143   6.159   1.282  0.1748 -0.3846  0.7100
  681TIP3    H123458   5.150   6.254   1.288 -0.5908 -0.0955 -1.8147
  681TIP3    H223459   5.065   6.137   1.333 -0.4064  0.5163  0.2313
  682TIP3   OH223460   6.363   1.038  12.133 -0.0514 -0.0303  0.2987
  682TIP3    H123461   6.420   1.020  12.207  0.1474 -0.6642  0.0053
  682TIP3    H223462   6.360   0.955  12.085 -1.8161 -0.2353  0.7057
  683TIP3   OH223463   1.220   0.084  13.442  0.1929  0.0437  0.2629
  683TIP3    H123464   1.218   0.129  13.357  2.2706 -0.4566 -0.1197
  683TIP3    H223465   1.187  -0.004  13.423  0.5680 -0.0386 -0.0272
  684TIP3   OH223466   4.426   3.497  14.697  0.5672 -0.0328 -0.4103
  684TIP3    H123467   4.425   3.568  14.632 -0.2862  0.4867  0.1514
  684TIP3    H223468   4.414   3.541  14.781  1.9815 -0.6636  0.1576
  685TIP3   OH223469   1.596   5.762  15.131 -0.1699 -0.3121 -0.0771
  685TIP3    H123470   1.621   5.835  15.188  0.7418 -1.9222  1.7461
  685TIP3    H223471   1.527   5.717  15.180 -1.3172 -0.2361 -1.5609
  686TIP3   OH223472   5.413   4.686  13.319 -0.1559 -0.0198 -0.0257
  686TIP3    H123473   5.353   4.731  13.259  0.5824  0.4414 -0.4291
  686TIP3    H223474   5.475   4.641  13.262  0.0212 -0.3059  0.3889
  687TIP3   OH223475   6.321   3.564  11.318 -0.5181 -0.9383 -0.4454
  687TIP3    H123476   6.286   3.594  11.402  0.1091 -0.3706 -0.3821
  687TIP3    H223477   6.345   3.473  11.334 -0.5528 -0.8821 -0.0469
  688TIP3   OH223478   3.096   6.255   3.466 -0.2239 -0.0378 -0.0722
  688TIP3    H123479   3.183   6.239   3.503 -0.1082 -0.8675 -0.6691
  688TIP3    H223480   3.108   6.246   3.371 -0.9770 -0.2451 -0.1541
  689TIP3   OH223481   2.264   4.322   4.294  0.0608 -0.0878 -0.3584
  689TIP3    H123482   2.280   4.291   4.205  0.5984 -0.0457 -0.2854
  689TIP3    H223483   2.331   4.389   4.308  0.3284 -0.4749  0.2662
  690TIP3   OH223484   4.865   4.190   4.315  0.3714  0.5078 -0.3554
  690TIP3    H123485   4.880   4.221   4.404  0.0663  0.9151 -0.4392
  690TIP3    H223486   4.945   4.143   4.292  0.6256  0.7678 -0.0209
  691TIP3   OH223487   3.356   4.472   3.890  0.9458  0.9955 -0.2646
  691TIP3    H123488   3.368   4.555   3.844  0.2277 -1.1070 -4.6932
  691TIP3    H223489   3.277   4.486   3.943  1.0425  3.2141 -0.6047
  692TIP3   OH223490   6.192   6.690  11.134  0.1543  0.2443  0.0220
  692TIP3    H123491   6.198   6.780  11.102 -2.4297  0.7436  0.7491
  692TIP3    H223492   6.213   6.697  11.227 -2.6263  0.6450  0.7101
  693TIP3   OH223493   5.081   0.535  10.636 -0.7876  0.0774  0.0162
  693TIP3    H123494   5.086   0.558  10.544 -1.4781  0.2045  0.0107
  693TIP3    H223495   5.044   0.612  10.679  1.1389  0.7001  0.6679
  694TIP3   OH223496   1.774   2.189   3.739 -0.0069 -0.2835 -0.1313
  694TIP3    H123497   1.862   2.201   3.704  0.1877  0.9690  0.7295
  694TIP3    H223498   1.726   2.266   3.710 -0.8572 -0.9662 -0.6106
  695TIP3   OH223499   6.055   5.835  15.168 -0.4627  0.3514 -0.0199
  695TIP3    H123500   6.004   5.859  15.091 -0.2577  0.3723 -0.1499
  695TIP3    H223501   6.008   5.760  15.206  0.3698 -0.7927 -1.1450
  696TIP3   OH223502   1.005   3.541  14.578 -0.1181 -0.4086 -0.1360
  696TIP3    H123503   1.010   3.570  14.670 -1.5454 -2.1949  0.5691
  696TIP3    H223504   0.950   3.463  14.581 -0.0860 -0.5827 -2.5289
  697TIP3   OH223505   5.410   5.229  16.970 -0.0704  1.1116  0.4826
  697TIP3    H123506   5.406   5.305  17.028 -0.1821  1.0800  0.5151
  697TIP3    H223507   5.453   5.262  16.891  0.7105  0.9887  0.8398
  698TIP3   OH223508   1.911   0.350  15.879  0.2625 -0.4635  0.3946
  698TIP3    H123509   2.004   0.367  15.896  0.8047 -1.3176 -1.5075
  698TIP3    H223510   1.868   0.368  15.963  2.2324 -0.8124  1.5364
  699TIP3   OH223511   3.883   1.259  13.716 -0.2030 -0.5864 -0.4930
  699TIP3    H123512   3.821   1.239  13.645 -2.4118 -0.0662  1.1635
  699TIP3    H223513   3.828   1.296  13.785  2.0565  0.1760  0.9963
  700TIP3   OH223514   2.436   5.334  15.020  0.0675  0.0782 -0.4596
  700TIP3    H123515   2.472   5.246  15.037 -1.6095 -1.0550 -2.2658
  700TIP3    H223516   2.484   5.364  14.943 -0.8403 -0.2323 -1.1668
  701TIP3   OH223517   1.561   0.495   3.974  0.1059 -0.1106 -0.0131
  701TIP3    H123518   1.622   0.511   4.046 -0.7934 -1.7221  1.2011
  701TIP3    H223519   1.614   0.504   3.895  0.7749  3.3730  0.6596
  702TIP3   OH223520   1.377   4.162  13.023  0.2570 -0.2513 -0.0832
  702TIP3    H123521   1.405   4.071  13.019 -1.2246 -0.7154 -0.6923
  702TIP3    H223522   1.292   4.163  12.978  1.0973  1.7749 -1.7930
  703TIP3   OH223523   3.153   3.221  13.525  0.1943  0.1507  0.1365
  703TIP3    H123524   3.060   3.203  13.511  0.2201  0.1969 -0.1026
  703TIP3    H223525   3.158   3.316  13.533  0.0111  0.0477  1.7542
  704TIP3   OH223526   4.403   0.102  11.969 -0.1382  0.3740  0.2896
  704TIP3    H123527   4.448   0.187  11.977  0.4726  0.1435 -0.5538
  704TIP3    H223528   4.392   0.090  11.874 -1.2734  0.0481  0.4543
  705TIP3   OH223529   0.978   6.258  14.627 -0.6490  0.6223  0.5606
  705TIP3    H123530   0.927   6.230  14.551  0.6195  2.0979 -0.9056
  705TIP3    H223531   1.055   6.301  14.590  0.5612  0.4424  2.6957
  706TIP3   OH223532   0.425   6.207   3.497 -0.2032 -0.0677  0.0561
  706TIP3    H123533   0.465   6.199   3.411  0.0939  0.0818  0.1786
  706TIP3    H223534   0.333   6.183   3.483 -0.1415 -0.1105 -0.2869
  707TIP3   OH223535   0.367   3.491  16.081  0.0295 -0.2981  0.1331
  707TIP3    H123536   0.314   3.459  16.008  1.0765  0.5450 -1.0304
  707TIP3    H223537   0.454   3.455  16.065  0.0574 -0.8813  1.5019
  708TIP3   OH223538   5.918   6.613   3.950  0.6854 -0.0862  0.2336
  708TIP3    H123539   5.923   6.660   4.033 -0.6262  1.7799 -0.6857
  708TIP3    H223540   5.965   6.531   3.966  0.3422  0.1485  2.8456
  709TIP3   OH223541   0.091   4.092  11.605 -1.0319  0.1736 -0.1233
  709TIP3    H123542   0.144   4.037  11.547  0.1967  0.4242  0.7247
  709TIP3    H223543   0.034   4.141  11.546  0.2201  0.4588 -1.1389
  710TIP3   OH223544   2.764   2.588   4.036  0.0887 -0.5464  0.1045
  710TIP3    H123545   2.776   2.670   4.084 -0.9674 -0.6548  0.5850
  710TIP3    H223546   2.675   2.594   4.000  0.1345 -1.3338 -0.1544
  711TIP3   OH223547   6.217   2.024  14.972  0.3227  0.2003 -0.4601
  711TIP3    H123548   6.232   2.081  14.897  0.0093 -0.5710 -1.1163
  711TIP3    H223549   6.187   2.084  15.041  0.0358  0.8363 -1.1233
  712TIP3   OH223550   4.436   2.406  13.470  0.3932  0.0502 -0.2019
  712TIP3    H123551   4.427   2.392  13.565  1.1039  1.3506  0.0814
  712TIP3    H223552   4.507   2.347  13.444 -0.5860 -1.1914 -0.1746
  713TIP3   OH223553   1.764   3.324  16.232  0.0459 -0.4748  0.3911
  713TIP3    H123554   1.750   3.419  16.238 -2.0849 -0.6633 -0.5761
  713TIP3    H223555   1.839   3.307  16.290  0.2837  1.7404  0.8309
  714TIP3   OH223556   1.307   4.039  14.927 -0.0789 -0.1603 -0.0944
  714TIP3    H123557   1.268   4.027  15.013  0.2734  0.1863  0.1167
  714TIP3    H223558   1.373   4.107  14.940  0.8354 -0.9794 -0.3759
  715TIP3   OH223559   3.751   2.789  11.271  0.1218  0.5245  0.4018
  715TIP3    H123560   3.780   2.865  11.320  2.7150 -0.7117  0.9662
  715TIP3    H223561   3.748   2.818  11.180  0.3791  1.4669  0.6871
  716TIP3   OH223562   2.219   5.538  15.474 -0.1071  0.5722  0.2039
  716TIP3    H123563   2.138   5.545  15.424  0.0523  1.6223  0.0650
  716TIP3    H223564   2.286   5.520  15.408 -0.3386 -1.2648  0.4238
  717TIP3   OH223565   3.809   3.972  15.334 -0.0391  0.4479 -0.5698
  717TIP3    H123566   3.889   3.919  15.336 -0.8613 -0.8705 -1.2811
  717TIP3    H223567   3.798   3.996  15.242  0.6563  2.4393 -0.1763
  718TIP3   OH223568   0.332   1.418  16.910  0.1900 -0.0138  0.1092
  718TIP3    H123569   0.275   1.396  16.984 -0.7121 -0.1981 -0.6206
  718TIP3    H223570   0.369   1.503  16.932  1.3033 -0.8168  1.5623
  719TIP3   OH223571   5.288   5.094   3.228  0.0969  0.2789  0.1492
  719TIP3    H123572   5.313   5.157   3.296 -0.5409  1.5774 -0.7775
  719TIP3    H223573   5.371   5.057   3.197  0.5678  1.3868  0.0460
  720TIP3   OH223574   5.404   6.669  15.075 -0.0006 -0.8579 -0.3590
  720TIP3    H123575   5.435   6.632  15.158  0.1801 -0.4802 -0.2567
  720TIP3    H223576   5.320   6.708  15.097  1.1109  1.3463  0.2023
  721TIP3   OH223577   3.652   2.603   5.595  0.3819  0.1692 -0.2703
  721TIP3    H123578   3.690   2.575   5.678 -0.6652 -0.4841  0.0111
  721TIP3    H223579   3.688   2.543   5.531  0.4300  0.0491 -0.1313
  722TIP3   OH223580   1.847   4.113   5.921 -0.0436 -0.3549 -0.1495
  722TIP3    H123581   1.763   4.158   5.933 -0.4489 -1.3834  1.0953
  722TIP3    H223582   1.913   4.182   5.933 -0.6955  0.2908 -0.2406
  723TIP3   OH223583   0.416   4.344  11.605  0.1007  0.4384  0.5079
  723TIP3    H123584   0.376   4.281  11.666 -1.1304  2.0833  1.5089
  723TIP3    H223585   0.400   4.429  11.646  0.3021  1.5265 -1.5618
  724TIP3   OH223586   0.796   0.705  10.938 -0.3027  0.2946 -0.2180
  724TIP3    H123587   0.777   0.670  10.851  0.4999  1.2991 -0.8242
  724TIP3    H223588   0.877   0.754  10.927 -0.3826  0.7499  1.0228
  725TIP3   OH223589   0.665   4.296   5.523  0.4353 -0.1044  0.2170
  725TIP3    H123590   0.677   4.256   5.437 -0.1257 -0.2573  0.2081
  725TIP3    H223591   0.721   4.244   5.581  0.0629 -0.6225  0.1211
  726TIP3   OH223592   1.562   4.365  10.582 -0.2381 -0.1160 -1.0290
  726TIP3    H123593   1.500   4.380  10.510 -0.4692 -0.1259 -0.8362
  726TIP3    H223594   1.626   4.304  10.547  0.0858  0.4626 -1.4750
  727TIP3   OH223595   4.081   4.490  11.874  0.5704  0.1286 -0.5302
  727TIP3    H123596   4.164   4.446  11.892  0.4095 -0.6915 -1.6462
  727TIP3    H223597   4.020   4.419  11.855 -1.0657  0.5572  2.5573
  728TIP3   OH223598   1.332   6.015  13.053 -0.2340  0.6668  0.4944
  728TIP3    H123599   1.385   6.031  12.974 -2.3976  0.7324 -1.0267
  728TIP3    H223600   1.290   6.099  13.071  0.6835  0.8108  2.1261
  729TIP3   OH223601   1.844   1.887  11.861  0.1198  0.7893 -0.3152
  729TIP3    H123602   1.888   1.964  11.825 -0.7376  2.3437  1.7389
  729TIP3    H223603   1.905   1.852  11.926  0.0213  0.4452 -0.4042
  730TIP3   OH223604   4.899   6.231   2.424 -0.4332  0.1797  0.3160
  730TIP3    H123605   4.883   6.305   2.366  0.9985  0.2688 -0.0147
  730TIP3    H223606   4.983   6.196   2.395  0.3635  0.2424  2.3331
  731TIP3   OH223607   6.453   6.361   2.953 -0.1366  0.6497  0.2762
  731TIP3    H123608   6.450   6.404   3.038  1.2043 -0.0964  0.7245
  731TIP3    H223609   6.493   6.426   2.895  1.1864  0.3102  0.7790
  732TIP3   OH223610   2.978   1.428  16.116  0.1393 -0.3084  0.3017
  732TIP3    H123611   3.059   1.468  16.083  0.4094 -0.2903  0.9763
  732TIP3    H223612   2.926   1.502  16.147  0.2159 -0.3898  0.6268
  733TIP3   OH223613   5.207   5.646  12.839  0.1389 -0.5776  0.2149
  733TIP3    H123614   5.259   5.692  12.773 -0.6694 -0.7866 -0.5883
  733TIP3    H223615   5.270   5.621  12.906  0.8785  0.1626 -0.1925
  734TIP3   OH223616   5.177   6.783  11.333  0.1465 -0.5144  0.0006
  734TIP3    H123617   5.214   6.696  11.349 -0.2756 -1.4481 -3.2553
  734TIP3    H223618   5.082   6.769  11.333  0.0813 -0.1222 -0.7098
  735TIP3   OH223619   0.077   2.583   4.800 -0.2757 -0.2243  0.7159
  735TIP3    H123620   0.079   2.520   4.728  0.7251 -0.0271  0.5535
  735TIP3    H223621  -0.001   2.637   4.783 -0.3577 -0.5316  0.0913
  736TIP3   OH223622   3.822   4.202  15.705 -0.3299 -0.0296 -0.7218
  736TIP3    H123623   3.797   4.231  15.793  2.0651 -0.5735  0.2258
  736TIP3    H223624   3.794   4.111  15.700  1.3593 -0.6658  0.3657
  737TIP3   OH223625   4.369   4.701   3.831  0.5205 -0.2821 -0.2425
  737TIP3    H123626   4.342   4.771   3.772  0.4896  0.6896  0.8946
  737TIP3    H223627   4.464   4.694   3.819  1.0551  2.1278  1.8480
  738TIP3   OH223628   2.473   0.991   1.061 -0.3157 -0.4209 -0.2407
  738TIP3    H123629   2.413   0.918   1.078 -0.5328 -0.4784 -1.2275
  738TIP3    H223630   2.416   1.068   1.054 -0.3006 -0.4979 -1.3209
  739TIP3   OH223631   0.887   5.411  13.502 -0.4781 -0.0342  0.1374
  739TIP3    H123632   0.881   5.506  13.505  0.5992  0.0282  0.4432
  739TIP3    H223633   0.796   5.382  13.486 -0.7670  1.0379 -0.2372
  740TIP3   OH223634   1.710   2.356  12.199  0.3081 -0.1109 -0.0406
  740TIP3    H123635   1.645   2.297  12.160  1.3275 -0.6398 -1.0204
  740TIP3    H223636   1.700   2.438  12.151 -0.5659  0.2693  0.7705
  741TIP3   OH223637   1.098   4.279  12.100  0.0763 -0.5854 -0.2837
  741TIP3    H123638   1.031   4.279  12.031 -0.4224  0.0331  0.1839
  741TIP3    H223639   1.096   4.190  12.134  0.9618 -1.1573 -1.6520
  742TIP3   OH223640   5.678   1.708   5.861 -0.3562  0.5638  0.0481
  742TIP3    H123641   5.625   1.776   5.903 -0.6698  0.6744 -0.5142
  742TIP3    H223642   5.617   1.636   5.846 -0.2799  0.5689 -0.3081
  743TIP3   OH223643   5.853   1.773  11.043  0.5278 -0.2496 -0.2015
  743TIP3    H123644   5.886   1.839  11.104  1.8387 -1.5402  0.5711
  743TIP3    H223645   5.764   1.755  11.073  1.4820 -1.6102  2.0977
  744TIP3   OH223646   5.042   6.643   0.747  0.0532  0.4373 -0.3267
  744TIP3    H123647   5.113   6.597   0.791 -1.0089 -3.9605 -2.5595
  744TIP3    H223648   4.986   6.675   0.817  1.5951 -0.6098  1.4647
  745TIP3   OH223649   5.279   5.277  16.166 -0.2712  0.2287  0.1582
  745TIP3    H123650   5.252   5.204  16.109  2.1996  0.0729 -0.9141
  745TIP3    H223651   5.370   5.294  16.142 -0.6727  3.5285  0.5714
  746TIP3   OH223652   5.103   0.666  10.384 -0.6950 -0.4196  0.4876
  746TIP3    H123653   5.154   0.726  10.439 -0.4865 -0.8151  0.7220
  746TIP3    H223654   5.028   0.719  10.356 -0.7537 -0.1806  1.0729
  747TIP3   OH223655   1.068   2.582  12.704  0.0580 -0.1041 -0.0446
  747TIP3    H123656   0.982   2.558  12.739  0.7855 -0.4096  1.6415
  747TIP3    H223657   1.049   2.636  12.628 -1.6280 -0.2962  0.2078
  748TIP3   OH223658   4.978   5.984  14.894  0.4158  0.5953  0.6381
  748TIP3    H123659   5.034   5.975  14.972  1.6283  2.2120  0.0188
  748TIP3    H223660   5.014   6.060  14.848 -0.3254 -0.2541 -1.4666
  749TIP3   OH223661   4.916   3.750   4.532 -0.3092 -0.0261 -0.0246
  749TIP3    H123662   4.921   3.750   4.436  0.2334 -1.5122 -0.0136
  749TIP3    H223663   4.855   3.680   4.553  0.3598 -0.3841  0.7524
  750TIP3   OH223664   5.642   2.232  13.219  0.2623  0.2260 -0.3799
  750TIP3    H123665   5.564   2.226  13.164  0.7094 -0.3564 -0.9685
  750TIP3    H223666   5.709   2.185  13.170  0.5123 -0.8833  0.9501
  751TIP3   OH223667   3.363   4.503   3.306  0.1499 -0.1997 -0.0523
  751TIP3    H123668   3.316   4.516   3.224  1.9503 -0.6966 -1.2329
  751TIP3    H223669   3.455   4.495   3.279  0.7175 -0.9425  1.9703
  752TIP3   OH223670   3.259   0.245  13.311 -0.7141 -0.3278 -0.6348
  752TIP3    H123671   3.354   0.233  13.304 -0.3448  1.2302  1.1121
  752TIP3    H223672   3.248   0.325  13.362 -2.9840 -0.7671 -0.3307
  753TIP3   OH223673   3.432   3.424  16.069  0.8052  0.1125  0.4668
  753TIP3    H123674   3.353   3.440  16.122 -0.2927  1.7151 -1.5178
  753TIP3    H223675   3.414   3.342  16.024  1.5295 -0.9963  2.1138
  754TIP3   OH223676   5.053   2.494   4.570 -0.9806 -0.4219 -0.2332
  754TIP3    H123677   4.963   2.482   4.538 -0.5905 -1.1475 -1.1135
  754TIP3    H223678   5.106   2.495   4.490 -0.2364  0.3415  0.2604
  755TIP3   OH223679   5.618   6.608   4.735  0.3878  1.2653  0.0548
  755TIP3    H123680   5.545   6.582   4.792  0.3987  3.4602  1.1775
  755TIP3    H223681   5.612   6.549   4.660  0.3335 -1.7090  2.2550
  756TIP3   OH223682   3.867   2.504  11.677 -0.7407  0.3833 -0.5490
  756TIP3    H123683   3.956   2.539  11.685 -0.5859  0.2465 -1.5604
  756TIP3    H223684   3.811   2.582  11.670 -0.8173  0.4968  0.9188
  757TIP3   OH223685   4.272   6.589  12.742  0.1924  0.0961 -0.0132
  757TIP3    H123686   4.255   6.511  12.796  2.7119  1.2670  2.7274
  757TIP3    H223687   4.342   6.562  12.682 -2.1576 -1.0047 -2.4808
  758TIP3   OH223688   1.488   3.691  15.963 -0.7723  0.2984 -0.2988
  758TIP3    H123689   1.568   3.743  15.951 -0.4882 -0.1299 -0.2895
  758TIP3    H223690   1.470   3.655  15.876 -1.1856  0.7237 -0.3891
  759TIP3   OH223691   0.822   6.245  16.239 -0.0318 -0.1159 -0.5709
  759TIP3    H123692   0.795   6.187  16.310 -1.3466  0.1509 -0.8211
  759TIP3    H223693   0.833   6.331  16.280 -1.5678  0.2166 -0.7859
  760TIP3   OH223694   1.007   0.636   1.909  0.0101  0.5159 -0.3681
  760TIP3    H123695   1.020   0.542   1.922 -0.1683  0.7349  1.8100
  760TIP3    H223696   1.042   0.676   1.989 -0.7460  2.2303 -0.8493
  761TIP3   OH223697   2.394   2.087   2.883  0.0125  0.0439  0.6825
  761TIP3    H123698   2.378   2.181   2.880  0.7683  0.1783 -1.1325
  761TIP3    H223699   2.488   2.079   2.900 -0.0779 -0.3770  0.9983
  762TIP3   OH223700   3.406   1.786  16.364  0.2237  0.0899  0.5965
  762TIP3    H123701   3.343   1.858  16.352  1.1525  0.7585 -0.4572
  762TIP3    H223702   3.482   1.828  16.404  0.7237 -0.3246  0.0922
  763TIP3   OH223703   1.518   2.980  14.693 -0.3040 -0.1562 -0.2285
  763TIP3    H123704   1.587   2.923  14.728 -0.5951  0.5406  1.5869
  763TIP3    H223705   1.550   3.069  14.708 -0.3971  0.1915 -1.9224
  764TIP3   OH223706   0.023   5.386  15.623  0.6960 -0.1542  0.2028
  764TIP3    H123707  -0.065   5.411  15.598  0.0792 -1.2124  1.2190
  764TIP3    H223708   0.051   5.454  15.685  0.2137 -0.3344  0.6219
  765TIP3   OH223709   3.408   6.639  11.168  0.0164  0.0258 -0.3879
  765TIP3    H123710   3.413   6.650  11.073 -0.7369 -2.5620 -0.8215
  765TIP3    H223711   3.315   6.629  11.187  0.1761  0.2648  0.5944
  766TIP3   OH223712   0.402   0.466   1.175  0.0430 -0.5600 -0.1786
  766TIP3    H123713   0.450   0.478   1.257  0.1075  0.5662 -0.3664
  766TIP3    H223714   0.422   0.377   1.148  0.3769 -0.7920  0.8025
  767TIP3   OH223715   5.276   0.124   4.811 -0.0898  0.0755 -0.4998
  767TIP3    H123716   5.371   0.116   4.805 -0.0541  1.5553 -3.0335
  767TIP3    H223717   5.242   0.056   4.754 -0.5272  0.2916 -0.5006
  768TIP3   OH223718   2.571   5.682   5.106  0.8642 -0.2822 -0.0056
  768TIP3    H123719   2.584   5.739   5.181 -1.2903  1.0370 -0.5394
  768TIP3    H223720   2.620   5.602   5.127  0.6467  0.1879  2.5958
  769TIP3   OH223721   4.556   3.969   0.393  0.2830 -0.0439 -0.0761
  769TIP3    H123722   4.571   4.024   0.316  0.3788  1.9464  1.2661
  769TIP3    H223723   4.508   4.026   0.453  0.0220 -1.6099  1.2699
  770TIP3   OH223724   1.206   6.799  11.002 -0.1609 -0.1635 -0.5871
  770TIP3    H123725   1.134   6.812  10.941 -0.8328  0.2408  0.2713
  770TIP3    H223726   1.265   6.739  10.957 -0.3821  0.5360 -1.8366
  771TIP3   OH223727   4.664   5.265  13.964  0.0670  0.0490 -0.1870
  771TIP3    H123728   4.674   5.318  14.044  1.0730  0.6175 -0.6672
  771TIP3    H223729   4.651   5.176  13.995 -0.8296  0.4562  0.6332
  772TIP3   OH223730   2.027   2.717   2.198 -0.1740  0.1325  0.6231
  772TIP3    H123731   2.092   2.647   2.208 -2.3998 -2.5796 -1.9258
  772TIP3    H223732   2.071   2.782   2.142  0.6770 -1.1752 -0.2856
  773TIP3   OH223733   6.601   0.061  11.554 -0.2443  0.0763  0.5043
  773TIP3    H123734   6.688   0.041  11.589 -0.5540  0.1881  1.3728
  773TIP3    H223735   6.616   0.129  11.489  0.4044 -0.4460  0.1043
  774TIP3   OH223736   1.902   4.544  13.939 -0.0101  0.3634  0.1234
  774TIP3    H123737   1.935   4.476  13.880  0.8204  1.5906 -0.8813
  774TIP3    H223738   1.943   4.625  13.907 -1.3766  1.4204  0.9619
  775TIP3   OH223739   3.307   0.586  15.329  0.3993  0.1914 -0.3244
  775TIP3    H123740   3.316   0.536  15.410 -1.3185  0.0925 -0.1547
  775TIP3    H223741   3.397   0.606  15.303  1.0063 -0.3775  1.2196
  776TIP3   OH223742   1.447   4.132  11.610  0.0022 -0.1021 -0.0988
  776TIP3    H123743   1.478   4.218  11.581 -1.5048  0.4272 -0.2449
  776TIP3    H223744   1.506   4.108  11.681 -0.6902  1.9628  1.2652
  777TIP3   OH223745   2.755   2.209  11.734 -0.2675 -0.2545 -0.3142
  777TIP3    H123746   2.708   2.250  11.806 -0.5400 -1.9341  0.5013
  777TIP3    H223747   2.692   2.210  11.661 -0.2295  0.8326 -0.3485
  778TIP3   OH223748   5.884   6.210  11.454  0.0660  0.4593  0.1442
  778TIP3    H123749   5.866   6.257  11.535 -0.6828  0.0831  0.2105
  778TIP3    H223750   5.963   6.252  11.418  1.7717 -0.8460  2.1911
  779TIP3   OH223751   6.671   5.625   5.741  0.4886 -0.0560  0.3443
  779TIP3    H123752   6.749   5.656   5.787  0.7867 -1.9342  1.1981
  779TIP3    H223753   6.637   5.554   5.796 -0.5862 -0.7120 -1.0969
  780TIP3   OH223754   4.968   3.864  11.557  0.1440  0.3510  0.7260
  780TIP3    H123755   4.903   3.844  11.489  1.9954 -0.9140 -0.7716
  780TIP3    H223756   4.934   3.821  11.636  0.0625 -2.0421 -0.5099
  781TIP3   OH223757   2.532   1.534  15.595 -0.0234  0.0232 -0.1765
  781TIP3    H123758   2.610   1.587  15.614  0.7380 -1.6071  1.6126
  781TIP3    H223759   2.548   1.499  15.508  0.2255  1.3793 -0.6991
  782TIP3   OH223760   4.909   4.516   2.260  0.2929  0.0309  0.1944
  782TIP3    H123761   4.962   4.576   2.208  0.9998 -1.0870 -0.4393
  782TIP3    H223762   4.827   4.508   2.212  1.3176 -1.7887 -1.4055
  783TIP3   OH223763   4.468   5.592   0.439 -0.3353  0.2643  0.1193
  783TIP3    H123764   4.381   5.593   0.400  0.2959 -1.0055 -1.4487
  783TIP3    H223765   4.477   5.678   0.480 -2.6754  0.0676  1.2093
  784TIP3   OH223766   0.471   1.160  14.797  0.2889 -0.3259 -0.5020
  784TIP3    H123767   0.472   1.191  14.888  1.5782 -1.4846 -0.0886
  784TIP3    H223768   0.395   1.102  14.793  0.3605 -0.4526 -0.0883
  785TIP3   OH223769   0.275   0.721  13.540 -0.1269  0.1759  1.0890
  785TIP3    H123770   0.340   0.651  13.543  0.3867  0.6623  1.6098
  785TIP3    H223771   0.191   0.676  13.543  0.1658 -0.4804  0.0653
  786TIP3   OH223772   3.482   0.893  16.537  0.3843 -0.1157 -0.3021
  786TIP3    H123773   3.465   0.823  16.474 -1.6121  0.6779 -0.7103
  786TIP3    H223774   3.517   0.965  16.484 -0.7002  0.3331 -0.4206
  787TIP3   OH223775   5.370   1.267   1.728 -0.1419 -0.6015  0.0609
  787TIP3    H123776   5.366   1.284   1.822  0.5646 -2.1428  0.4081
  787TIP3    H223777   5.429   1.334   1.693 -0.2984 -0.1060  0.7416
  788TIP3   OH223778   3.766   3.165   2.430  0.0207 -0.0509 -0.3364
  788TIP3    H123779   3.806   3.196   2.511  1.7186 -1.5284 -0.5651
  788TIP3    H223780   3.683   3.126   2.458  0.5422 -0.4541  0.6810
  789TIP3   OH223781   2.566   0.233  14.036 -0.3384 -0.2775  0.2736
  789TIP3    H123782   2.521   0.219  13.953  0.7074 -0.3449 -0.2936
  789TIP3    H223783   2.649   0.187  14.027 -0.2742 -0.4182  1.4204
  790TIP3   OH223784   3.532   2.048   0.320  0.1001  0.1523 -0.4332
  790TIP3    H123785   3.534   1.953   0.331  1.7254  0.1098 -0.8515
  790TIP3    H223786   3.485   2.062   0.238 -0.4687 -0.2580 -0.1829
  791TIP3   OH223787   5.050   1.805   5.156  0.2233 -0.2615  0.3015
  791TIP3    H123788   5.032   1.883   5.208 -0.7669 -0.4082  0.2023
  791TIP3    H223789   5.144   1.790   5.167  0.4557  1.0146  0.2020
  792TIP3   OH223790   4.118   4.650   4.398 -0.5351  0.4465 -0.2732
  792TIP3    H123791   4.035   4.625   4.438  0.5065 -2.6294  0.2100
  792TIP3    H223792   4.096   4.670   4.307 -1.7845 -0.4165 -0.1763
  793TIP3   OH223793   5.651   6.492   3.420  0.7140  0.0648 -0.4419
  793TIP3    H123794   5.732   6.541   3.409  0.5391  0.6597  0.7450
  793TIP3    H223795   5.676   6.411   3.464  0.7385 -0.0190 -0.6083
  794TIP3   OH223796   6.744   5.040  12.168  0.2828  0.6263  0.3462
  794TIP3    H123797   6.665   5.007  12.211  0.5289  0.8145  0.9522
  794TIP3    H223798   6.720   5.128  12.137 -0.0712  0.2741 -0.4172
  795TIP3   OH223799   1.766   2.580  16.203 -0.3391 -0.5460  0.5081
  795TIP3    H123800   1.740   2.489  16.220 -1.9412 -0.3560 -0.6570
  795TIP3    H223801   1.790   2.581  16.110  0.6148  0.0312  0.7465
  796TIP3   OH223802   1.722   0.813   3.964 -0.7125 -0.1527 -0.0129
  796TIP3    H123803   1.716   0.906   3.987 -1.1763  0.1021 -1.0896
  796TIP3    H223804   1.736   0.769   4.047 -1.5968  0.7882  0.6615
  797TIP3   OH223805   2.991   0.014   2.627 -0.4601 -0.3361 -0.3859
  797TIP3    H123806   2.928  -0.025   2.567  0.2997 -0.9905 -0.7831
  797TIP3    H223807   2.956  -0.004   2.714 -0.6996 -0.9067 -0.5964
  798TIP3   OH223808   6.155   2.943   4.359 -0.5878  0.1271  0.2513
  798TIP3    H123809   6.096   2.908   4.293 -0.1404 -0.1805  0.0040
  798TIP3    H223810   6.139   3.037   4.358  0.3634  0.3224 -1.2901
  799TIP3   OH223811   2.494   3.357   4.175 -0.1757  0.8252 -0.7144
  799TIP3    H123812   2.499   3.409   4.094 -0.0999  1.9441 -0.0175
  799TIP3    H223813   2.436   3.408   4.232  0.1156  0.2734  0.0897
  800TIP3   OH223814   1.497   4.429  16.442 -0.1655 -0.2565 -0.0248
  800TIP3    H123815   1.410   4.437  16.402 -0.1884  3.8606  0.4336
  800TIP3    H223816   1.557   4.447  16.371  0.0532  1.3986  0.5487
  801TIP3   OH223817   4.503   0.630   0.685  0.3143  0.2810  0.0869
  801TIP3    H123818   4.462   0.653   0.602  0.5073  2.2432  0.4746
  801TIP3    H223819   4.438   0.652   0.751  0.1356 -1.3245  0.4882
  802TIP3   OH223820   1.163   6.601  13.451 -0.3652  0.4447 -0.0131
  802TIP3    H123821   1.102   6.543  13.405  0.1450 -0.6513  0.6587
  802TIP3    H223822   1.144   6.587  13.544 -0.0884  1.2114  0.1683
  803TIP3   OH223823   1.208   3.803   2.846 -0.3873 -0.2964 -0.4806
  803TIP3    H123824   1.288   3.850   2.870  0.6573 -1.4540 -1.5129
  803TIP3    H223825   1.143   3.834   2.908  0.9248  0.5081  0.5648
  804TIP3   OH223826   6.161   4.078  13.129 -0.2509 -0.3234  0.2618
  804TIP3    H123827   6.121   3.996  13.157 -0.7743 -0.5760 -1.1402
  804TIP3    H223828   6.244   4.052  13.088 -1.1907 -0.3721 -1.7222
  805TIP3   OH223829   3.676   6.696  15.148 -0.2331 -0.7192 -0.3084
  805TIP3    H123830   3.659   6.789  15.166  0.4630 -0.8522  1.1822
  805TIP3    H223831   3.594   6.663  15.112 -0.3907  0.5359 -1.1601
  806TIP3   OH223832   2.483   3.404   2.716  0.0243  0.1630 -0.2967
  806TIP3    H123833   2.465   3.462   2.642 -0.0841  0.6074  0.0713
  806TIP3    H223834   2.417   3.335   2.709 -0.0705  0.2757 -0.5395
  807TIP3   OH223835   4.707   5.529  14.893  0.1490 -0.4749 -0.3258
  807TIP3    H123836   4.642   5.467  14.860 -1.8828  1.4184 -0.1551
  807TIP3    H223837   4.662   5.574  14.965  1.5670  1.0780 -0.3626
  808TIP3   OH223838   4.468   4.343  11.296  0.0092  0.3656 -0.3207
  808TIP3    H123839   4.482   4.346  11.201  1.3632 -0.1207 -0.1554
  808TIP3    H223840   4.381   4.303  11.306  0.0616 -0.0416 -1.3387
  809TIP3   OH223841   6.244   1.064  14.483 -0.0962  0.5036  0.0796
  809TIP3    H123842   6.319   1.036  14.535 -0.5893  0.2615  0.6731
  809TIP3    H223843   6.222   0.988  14.429  0.9284  1.0211 -1.1193
  810TIP3   OH223844   4.740   5.883   0.909  0.4797  0.2526 -0.2759
  810TIP3    H123845   4.745   5.925   0.994 -0.4017  0.2557 -0.2179
  810TIP3    H223846   4.832   5.864   0.886  1.0081  2.8899 -0.6726
  811TIP3   OH223847   6.025   0.539   3.282 -0.7347  0.2752 -0.4011
  811TIP3    H123848   6.120   0.544   3.282 -0.6413 -0.9894  0.3677
  811TIP3    H223849   6.006   0.445   3.291 -2.0528  0.4497 -1.1351
  812TIP3   OH223850   0.428   2.712  16.986 -0.0522 -0.4572  0.0203
  812TIP3    H123851   0.342   2.681  16.959  0.6207  0.0477 -3.0685
  812TIP3    H223852   0.488   2.676  16.921  1.9333  0.1626  1.4090
  813TIP3   OH223853   4.405   3.790  15.444  0.2234 -0.1733  0.1195
  813TIP3    H123854   4.472   3.858  15.452  1.2485 -0.9154 -1.5207
  813TIP3    H223855   4.422   3.731  15.517  2.7849 -1.4516 -1.3541
  814TIP3   OH223856   5.166   4.968   0.727  0.2962  0.1353  0.1279
  814TIP3    H123857   5.162   4.873   0.738 -1.7247  0.1559 -0.1491
  814TIP3    H223858   5.254   4.992   0.758  1.4464 -1.9820 -1.2083
  815TIP3   OH223859   5.758   4.068   0.239  0.1095 -0.2284  0.1863
  815TIP3    H123860   5.772   4.103   0.327  1.4346 -0.1258 -0.0322
  815TIP3    H223861   5.676   4.021   0.244 -1.5896  2.5466  0.6234
  816TIP3   OH223862   6.342   2.283  10.335 -0.1415  0.4464 -0.1619
  816TIP3    H123863   6.344   2.268  10.429  0.2033  0.8371 -0.1029
  816TIP3    H223864   6.415   2.230  10.301 -1.3570 -1.1373 -0.4412
  817TIP3   OH223865   1.763   3.073  16.610  0.0719  0.3947  0.3072
  817TIP3    H123866   1.718   3.093  16.528 -0.6524 -1.2216  0.2703
  817TIP3    H223867   1.855   3.066  16.585 -0.0045  0.9421 -0.1605
  818TIP3   OH223868   0.885   4.744   5.231 -0.0578 -0.5034  0.3824
  818TIP3    H123869   0.866   4.775   5.142 -0.5572 -0.2464  0.5695
  818TIP3    H223870   0.870   4.650   5.228  0.2944 -0.5497  0.1016
  819TIP3   OH223871   2.876   0.934  13.222 -0.5640 -0.2377 -0.0964
  819TIP3    H123872   2.912   0.974  13.302  0.6672 -1.6717  0.1098
  819TIP3    H223873   2.919   0.981  13.151  1.9221 -1.9511  0.1410
  820TIP3   OH223874   5.594   5.067   4.078 -0.3360  0.0442 -0.0399
  820TIP3    H123875   5.559   4.979   4.089  0.3446 -0.1831  0.3707
  820TIP3    H223876   5.554   5.099   3.997 -1.0569 -0.4051  0.1317
  821TIP3   OH223877   0.585   4.533  13.697 -0.5193 -0.0215  0.2140
  821TIP3    H123878   0.552   4.445  13.716  0.2181 -0.0523  1.3918
  821TIP3    H223879   0.603   4.572  13.782  1.4033  0.4072 -0.3403
  822TIP3   OH223880   4.756   2.750  11.572  0.2383 -0.6196  0.2410
  822TIP3    H123881   4.722   2.826  11.525 -1.1714 -1.0298  0.5681
  822TIP3    H223882   4.851   2.761  11.570  0.0773  2.3938  2.2660
  823TIP3   OH223883   3.376   1.242  11.723  0.2555  0.2605  0.1258
  823TIP3    H123884   3.295   1.192  11.708  1.5122 -1.7061 -0.5073
  823TIP3    H223885   3.405   1.265  11.635  0.1187  1.4377  0.3799
  824TIP3   OH223886   0.330   6.112  15.775  0.4175  0.4686  0.2169
  824TIP3    H123887   0.378   6.177  15.724  2.0261 -0.5803  0.3095
  824TIP3    H223888   0.297   6.050  15.710 -0.0861  0.7242  0.2249
  825TIP3   OH223889   0.049   1.166  11.024 -0.0699  0.2785  0.5304
  825TIP3    H123890  -0.040   1.135  11.040 -0.0284 -0.8321 -1.0589
  825TIP3    H223891   0.049   1.190  10.931  1.0862  0.9860  0.7015
  826TIP3   OH223892   1.411   4.015  15.270  0.2663  0.6434 -0.5535
  826TIP3    H123893   1.332   4.063  15.246  0.8094  1.7358 -0.2122
  826TIP3    H223894   1.482   4.077  15.256  1.0781 -0.3476 -0.9262
  827TIP3   OH223895   1.620   4.216   2.798 -0.5450 -0.3688  0.2699
  827TIP3    H123896   1.527   4.227   2.812 -0.9666 -0.9941 -1.6442
  827TIP3    H223897   1.645   4.144   2.855 -0.9034  0.6543  1.7894
  828TIP3   OH223898   5.293   1.912   1.063 -0.5761  0.4948 -0.3145
  828TIP3    H123899   5.238   1.980   1.026 -1.4942 -0.6745 -1.1979
  828TIP3    H223900   5.381   1.931   1.030 -0.6415  1.7552  0.2054
  829TIP3   OH223901   1.802   5.407   3.176 -0.0377  0.2711  0.8559
  829TIP3    H123902   1.796   5.469   3.104  0.9950 -0.6491 -0.0674
  829TIP3    H223903   1.792   5.461   3.255  0.5527  1.5712  0.0844
  830TIP3   OH223904   2.949   6.054   1.516  0.3874 -0.4719 -0.3154
  830TIP3    H123905   2.909   6.122   1.571 -0.2220  0.0760 -1.4010
  830TIP3    H223906   2.898   5.976   1.533 -1.8686  0.4428 -2.4035
  831TIP3   OH223907   6.785   1.231   4.576  0.1846 -0.2188  0.1310
  831TIP3    H123908   6.821   1.205   4.660 -0.4437  1.1456  0.8611
  831TIP3    H223909   6.840   1.305   4.548 -1.8804  1.9178  1.2767
  832TIP3   OH223910   1.959   4.687   2.166 -0.2851  0.0505  0.6346
  832TIP3    H123911   1.866   4.696   2.147 -0.2854 -0.5613  0.3206
  832TIP3    H223912   1.974   4.593   2.172  0.5712  0.0579 -0.7367
  833TIP3   OH223913   6.051   5.749  11.712  0.0051  0.0240  0.3278
  833TIP3    H123914   6.001   5.830  11.703 -1.7382 -0.9970  0.4588
  833TIP3    H223915   6.112   5.766  11.784 -0.6336  1.0534  0.6472
  834TIP3   OH223916   4.377   6.278   5.055 -0.6527  0.0771 -0.2102
  834TIP3    H123917   4.345   6.199   5.011 -2.5244  0.3071  0.6386
  834TIP3    H223918   4.380   6.344   4.987 -0.1576 -0.4279 -0.6905
  835TIP3   OH223919   5.679   5.898  16.805 -0.0577  0.4470  0.1883
  835TIP3    H123920   5.698   5.804  16.817  0.5678  0.5859  0.3486
  835TIP3    H223921   5.725   5.921  16.725  2.5535  1.3240  1.7968
  836TIP3   OH223922   3.275   5.131  16.014 -0.2341  0.5035 -0.1922
  836TIP3    H123923   3.318   5.092  15.937 -0.5170  0.6072 -0.4039
  836TIP3    H223924   3.219   5.199  15.978 -0.6654  0.2913  0.0767
  837TIP3   OH223925   4.645   5.691  13.940  0.1255 -0.3059  0.7954
  837TIP3    H123926   4.708   5.763  13.931 -0.6091  0.1839 -0.7288
  837TIP3    H223927   4.697   5.612  13.926  0.6154  0.0351  0.6628
  838TIP3   OH223928   3.881   2.924  16.788 -0.2053  0.2197 -0.4940
  838TIP3    H123929   3.902   2.995  16.849  2.7784 -1.1885  0.3597
  838TIP3    H223930   3.892   2.962  16.701  1.1695  0.8846 -0.0556
  839TIP3   OH223931   1.425   1.075   5.529 -0.4318 -0.4298  0.2717
  839TIP3    H123932   1.355   1.012   5.548 -0.5082 -0.5835 -0.4804
  839TIP3    H223933   1.416   1.141   5.597  0.0631 -1.5599  1.4812
  840TIP3   OH223934   1.490   3.967  11.047  0.3323 -0.1771 -0.1595
  840TIP3    H123935   1.534   3.883  11.062  0.1367 -0.3281 -0.4303
  840TIP3    H223936   1.485   3.975  10.952  1.0786  0.5216 -0.1515
  841TIP3   OH223937   5.095   2.369   5.547  0.3107 -0.2845 -0.0536
  841TIP3    H123938   5.136   2.424   5.479  0.1476 -0.5810 -0.3983
  841TIP3    H223939   5.168   2.323   5.588  0.2650 -1.5864 -1.3536
  842TIP3   OH223940   2.923   5.688  12.079 -0.5613  0.1372 -0.4195
  842TIP3    H123941   2.933   5.681  11.984 -0.8542 -0.1967 -0.4306
  842TIP3    H223942   2.829   5.702  12.091 -0.6819 -0.8663 -0.1275
  843TIP3   OH223943   1.481   0.985  16.693  0.4707 -0.3027  0.2807
  843TIP3    H123944   1.550   1.039  16.655  1.3094 -1.5890 -0.1060
  843TIP3    H223945   1.432   1.044  16.750  1.1359  0.9214 -0.3900
  844TIP3   OH223946   3.062   3.985  11.158 -0.2693 -0.3394  0.0134
  844TIP3    H123947   3.096   3.898  11.135  1.3382  0.6611 -1.7610
  844TIP3    H223948   3.137   4.030  11.197 -0.7274  0.6292 -0.1938
  845TIP3   OH223949   3.761   4.041   3.274 -0.4216 -0.2418 -0.2617
  845TIP3    H123950   3.708   3.971   3.313 -2.0824  1.7455  1.2886
  845TIP3    H223951   3.699   4.096   3.228  0.9337 -0.0617 -1.9700
  846TIP3   OH223952   3.043   4.589   0.056 -0.2254 -0.3290  0.7148
  846TIP3    H123953   3.031   4.496   0.078 -0.0544 -0.3433  0.7473
  846TIP3    H223954   3.138   4.600   0.052 -0.2484 -0.6311 -1.3222
  847TIP3   OH223955   6.454   4.664  12.053 -0.6549  0.5305  0.6443
  847TIP3    H123956   6.549   4.651  12.045 -0.8449 -0.9499  0.5954
  847TIP3    H223957   6.446   4.751  12.092  0.7773  0.0249  2.1996
  848TIP3   OH223958   3.684   6.318   1.756 -0.5249  0.1493 -0.6527
  848TIP3    H123959   3.747   6.378   1.798 -2.6249  1.5961  0.5940
  848TIP3    H223960   3.701   6.234   1.798 -1.0686  1.0776  1.5913
  849TIP3   OH223961   5.362   2.819  14.519 -0.3582 -0.0311  0.2512
  849TIP3    H123962   5.376   2.914  14.523 -3.0025  0.4058  1.2551
  849TIP3    H223963   5.367   2.790  14.610 -1.8449 -0.4327  0.2303
  850TIP3   OH223964   2.591   0.906   0.793  0.1103  0.0384  0.4436
  850TIP3    H123965   2.563   0.989   0.755 -0.2601 -0.9945 -1.7109
  850TIP3    H223966   2.548   0.902   0.878 -0.9666  1.4310 -0.0040
  851TIP3   OH223967   6.361   2.606   2.083 -0.4087 -0.8940 -0.3395
  851TIP3    H123968   6.444   2.599   2.035 -0.9522 -3.3790 -1.0681
  851TIP3    H223969   6.344   2.700   2.088  2.8615 -0.2208  0.6228
  852TIP3   OH223970   5.507   4.444   3.361 -0.0490  0.0845 -0.2030
  852TIP3    H123971   5.546   4.509   3.303 -0.7147  0.9526  0.3137
  852TIP3    H223972   5.581   4.388   3.387  0.1545 -0.8549 -2.4992
  853TIP3   OH223973   3.985   1.671  16.713 -0.2815  0.2031  0.0141
  853TIP3    H123974   4.080   1.680  16.722 -0.5089  1.6340  1.6212
  853TIP3    H223975   3.972   1.644  16.622  1.6418  0.2868 -0.3386
  854TIP3   OH223976   5.389   0.133  16.905  0.7605  0.9108 -0.0548
  854TIP3    H123977   5.452   0.141  16.976 -0.0547 -1.0481  0.9676
  854TIP3    H223978   5.309   0.174  16.938  0.9865  1.9062 -0.7040
  855TIP3   OH223979   4.583   2.752   2.348  0.5912 -0.3108 -0.4413
  855TIP3    H123980   4.671   2.790   2.339  0.5988 -0.6036 -1.6655
  855TIP3    H223981   4.560   2.723   2.260 -1.5975  1.6093 -0.5839
  856TIP3   OH223982   6.185   6.518   1.640  0.3814 -0.0153  0.3448
  856TIP3    H123983   6.158   6.453   1.576 -0.9809 -0.2649  1.1363
  856TIP3    H223984   6.266   6.555   1.604 -0.4402  0.0034 -1.6045
  857TIP3   OH223985   6.765   6.494  11.676 -0.7749  0.3334 -0.0197
  857TIP3    H123986   6.822   6.448  11.614  0.0674  0.6837  0.4776
  857TIP3    H223987   6.727   6.425  11.730  1.5217  0.2155  1.6170
  858TIP3   OH223988   3.167   6.248  15.380  0.3188  0.3283  0.6150
  858TIP3    H123989   3.252   6.208  15.395  0.8921  1.5570  0.7653
  858TIP3    H223990   3.160   6.315  15.448 -0.6162  0.4796  0.3780
  859TIP3   OH223991   6.720   5.029   0.625  0.1380  0.6988 -0.1928
  859TIP3    H123992   6.814   5.045   0.630  0.0782  0.8575  0.4633
  859TIP3    H223993   6.687   5.096   0.564  0.6491 -0.2714 -1.5928
  860TIP3   OH223994   3.309   4.658  10.614 -0.1610  0.5386  0.4215
  860TIP3    H123995   3.382   4.669  10.552 -0.4139 -1.4592 -0.3063
  860TIP3    H223996   3.232   4.650  10.559 -0.5437 -0.1546  1.0474
  861TIP3   OH223997   1.050   1.940  14.189  0.2977  0.4434 -0.1144
  861TIP3    H123998   1.052   2.034  14.173 -0.7208  0.0603 -3.4495
  861TIP3    H223999   0.984   1.907  14.127  1.6456 -2.6052 -0.1244
  862TIP3   OH224000   5.976   4.268   1.769  0.1067  0.1339 -0.1242
  862TIP3    H124001   6.043   4.307   1.713 -0.2880  0.2253 -0.5419
  862TIP3    H224002   5.917   4.225   1.708  0.0206 -0.3130  0.2710
  863TIP3   OH224003   2.561   4.727   5.669  0.4271  0.2181  0.7255
  863TIP3    H124004   2.561   4.633   5.688 -1.2887  0.0385  0.0003
  863TIP3    H224005   2.553   4.768   5.755 -1.0885 -0.3863  0.8955
  864TIP3   OH224006   6.649   2.454   4.063 -0.1644  0.0304  0.6301
  864TIP3    H124007   6.693   2.501   3.992 -0.7761  0.5618  0.5979
  864TIP3    H224008   6.651   2.362   4.035  2.2379 -0.1788  1.3292
  865TIP3   OH224009   3.092   3.416  11.588 -0.6593 -0.4613  0.3806
  865TIP3    H124010   3.056   3.328  11.602 -0.2639 -0.9356 -1.3418
  865TIP3    H224011   3.037   3.454  11.520  0.3623 -0.1543 -0.3060
  866TIP3   OH224012   4.012   3.454  13.353 -0.0420 -0.0240 -0.3442
  866TIP3    H124013   3.942   3.500  13.399 -1.2108 -0.7301 -1.3571
  866TIP3    H224014   4.085   3.452  13.416 -0.8784  0.8182  0.6928
  867TIP3   OH224015   5.687   3.605   3.882  0.5327 -1.0096  0.2384
  867TIP3    H124016   5.712   3.652   3.802  0.4407 -1.4311 -0.0444
  867TIP3    H224017   5.769   3.567   3.914  0.4989 -1.2104  0.0936
  868TIP3   OH224018   6.802   3.344  14.105  0.1351  0.3146  0.2032
  868TIP3    H124019   6.735   3.349  14.037 -0.6768 -1.1708  0.8402
  868TIP3    H224020   6.864   3.278  14.073  0.3137  0.3778  0.4156
  869TIP3   OH224021   6.427   2.739  12.543  0.7175 -0.4854 -0.0285
  869TIP3    H124022   6.449   2.810  12.483 -0.0125 -0.4296 -0.2375
  869TIP3    H224023   6.439   2.659  12.491 -2.6539 -0.3626 -1.2394
  870TIP3   OH224024   4.995   4.341  14.445 -0.1034  0.1680 -0.2104
  870TIP3    H124025   5.052   4.409  14.481  0.5375 -0.2776 -0.3780
  870TIP3    H224026   4.916   4.346  14.499  0.7926 -0.4145  1.2180
  871TIP3   OH224027   0.441   2.696  13.435  0.4161 -0.2693 -0.4074
  871TIP3    H124028   0.457   2.776  13.485 -1.9968 -0.8035  1.4264
  871TIP3    H224029   0.412   2.727  13.349  1.6991  0.7262 -0.5145
  872TIP3   OH224030   4.169   4.446   5.322 -0.0766 -0.2452 -0.2252
  872TIP3    H124031   4.144   4.537   5.305  0.3487 -0.2933 -1.1953
  872TIP3    H224032   4.115   4.420   5.397  0.6790  1.1715  0.8641
  873TIP3   OH224033   3.122   2.335   5.966  0.2630  0.0051 -0.6475
  873TIP3    H124034   3.198   2.293   6.006 -1.3419 -1.1313  1.4342
  873TIP3    H224035   3.073   2.263   5.927 -1.1083  0.2654  0.4934
  874TIP3   OH224036   1.522   3.970  16.946 -0.0166 -0.1059 -0.0672
  874TIP3    H124037   1.497   3.936  17.032  1.5850 -1.0106  0.0956
  874TIP3    H224038   1.464   4.045  16.932  0.0004  0.3851  2.0228
  875TIP3   OH224039   6.046   2.181   4.345 -0.8126  0.3956 -0.3970
  875TIP3    H124040   5.980   2.117   4.370  0.2977 -0.4963  0.3261
  875TIP3    H224041   6.037   2.252   4.409 -0.4403 -0.1745  0.2991
  876TIP3   OH224042   5.719   4.570   5.290 -0.3441 -0.6902  0.4411
  876TIP3    H124043   5.691   4.635   5.354  0.8532 -0.2703  0.5669
  876TIP3    H224044   5.736   4.621   5.210 -0.6704 -1.0423  0.1389
  877TIP3   OH224045   1.325   5.302  15.030  0.1167  0.3922  0.2886
  877TIP3    H124046   1.316   5.322  14.937  0.0667  2.0058  0.6086
  877TIP3    H224047   1.417   5.277  15.041  0.2112  0.5444 -0.1327
  878TIP3   OH224048   3.239   4.539   3.047 -0.3071  0.4014  0.1874
  878TIP3    H124049   3.302   4.538   2.975 -1.0182  1.3965 -0.4788
  878TIP3    H224050   3.169   4.596   3.016 -1.2793 -0.2521  1.1352
  879TIP3   OH224051   6.412   0.283   4.971  0.0981  0.4992 -0.2564
  879TIP3    H124052   6.386   0.293   5.063 -4.1981 -0.5465 -1.1650
  879TIP3    H224053   6.480   0.349   4.959 -1.3448  2.8592  2.9156
  880TIP3   OH224054   4.496   6.384  16.402  0.5119  0.1658  0.0531
  880TIP3    H124055   4.540   6.308  16.363  0.3477  0.0971  0.0004
  880TIP3    H224056   4.503   6.453  16.336 -0.0676 -0.0530 -0.2398
  881TIP3   OH224057   3.497   3.237   0.631 -0.0906 -0.1787  0.0115
  881TIP3    H124058   3.411   3.271   0.656  0.2170  1.1317 -0.6682
  881TIP3    H224059   3.478   3.147   0.601 -1.5045  0.6097 -1.6680
  882TIP3   OH224060   6.493   0.251  16.311  0.3437 -0.4944 -0.1823
  882TIP3    H124061   6.454   0.222  16.393 -1.2820  0.2440 -0.6559
  882TIP3    H224062   6.424   0.300  16.267  1.6594  0.4513 -1.3053
  883TIP3   OH224063   6.110   3.488  13.315  0.4390  0.4591  0.0535
  883TIP3    H124064   6.102   3.525  13.403 -1.2388  0.7734 -0.2034
  883TIP3    H224065   6.060   3.406  13.319  1.3263 -0.1197 -0.3045
  884TIP3   OH224066   4.199   6.524  11.644 -0.1554  0.2811  0.6870
  884TIP3    H124067   4.174   6.491  11.731 -2.1798 -0.2341 -0.0494
  884TIP3    H224068   4.242   6.449  11.602  0.8799  0.5472  1.2251
  885TIP3   OH224069   4.442   0.686  12.836 -0.2418  0.3843  0.2050
  885TIP3    H124070   4.512   0.661  12.776 -0.6406 -0.1184 -0.0589
  885TIP3    H224071   4.468   0.649  12.920 -0.7380 -0.8068 -0.1418
  886TIP3   OH224072   6.653   2.187   5.100  0.2755 -0.4377  0.2263
  886TIP3    H124073   6.587   2.143   5.046 -0.9097  0.1072  1.1832
  886TIP3    H224074   6.723   2.122   5.109  0.2079 -0.7908 -1.3602
  887TIP3   OH224075   3.346   4.306   1.256 -0.1183 -0.4155 -0.2558
  887TIP3    H124076   3.397   4.383   1.228 -0.4303 -0.3117 -0.5483
  887TIP3    H224077   3.380   4.234   1.203 -0.7482 -0.2080 -0.9693
  888TIP3   OH224078   5.931   3.228  13.368 -0.0531  0.6107  0.1899
  888TIP3    H124079   5.943   3.224  13.462 -0.5069 -1.0619  0.2099
  888TIP3    H224080   5.842   3.261  13.357 -0.7619 -1.1018  0.4405
  889TIP3   OH224081   3.454   2.835  14.305 -0.2669 -0.1374 -0.4370
  889TIP3    H124082   3.529   2.816  14.360  0.7669 -0.0743 -1.7614
  889TIP3    H224083   3.468   2.926  14.276  1.0375 -1.1364 -3.4004
  890TIP3   OH224084   1.125   5.389   4.168  0.3206 -0.4059 -0.6380
  890TIP3    H124085   1.097   5.382   4.076 -1.0934  1.8061 -0.4541
  890TIP3    H224086   1.050   5.358   4.218 -0.2552  1.5296 -0.2163
  891TIP3   OH224087   1.974   0.117  14.109  0.2059  0.2172 -0.2166
  891TIP3    H124088   2.026   0.123  14.029  1.6941  1.8673  0.8009
  891TIP3    H224089   1.889   0.155  14.086  0.4686  0.2784 -1.1115
  892TIP3   OH224090   1.652   0.078   5.530  0.1631  0.4803 -0.0305
  892TIP3    H124091   1.640   0.097   5.623 -0.5503 -1.0146  0.2115
  892TIP3    H224092   1.713   0.004   5.528 -1.4626 -0.9171 -0.6102
  893TIP3   OH224093   2.576   4.293   3.447  0.2286  0.8786  0.4188
  893TIP3    H124094   2.487   4.325   3.462 -0.9420 -1.5709 -0.6852
  893TIP3    H224095   2.622   4.366   3.405 -1.5286  1.8969  0.1917
  894TIP3   OH224096   0.271   1.036   3.547  0.3216 -0.0227  0.2725
  894TIP3    H124097   0.277   1.102   3.616 -1.0460  0.1389  0.2774
  894TIP3    H224098   0.177   1.033   3.526  0.8073  0.8479 -2.4587
  895TIP3   OH224099   6.720   5.575  12.969 -0.3834 -0.3335 -0.5178
  895TIP3    H124100   6.659   5.633  12.925  0.3661  0.9063  0.0150
  895TIP3    H224101   6.806   5.601  12.937 -0.0701 -1.6356 -0.7911
  896TIP3   OH224102   4.956   0.137  13.170  0.1435  0.3000  0.2240
  896TIP3    H124103   5.017   0.155  13.099  0.2006  0.7231  0.3796
  896TIP3    H224104   4.889   0.081  13.131  0.4152  0.1597 -0.0462
  897TIP3   OH224105   5.308   5.804   5.657 -0.1749 -0.1704  0.0914
  897TIP3    H124106   5.282   5.747   5.730 -0.4625 -1.3800 -0.9096
  897TIP3    H224107   5.403   5.792   5.649 -0.5363 -2.7430 -1.8089
  898TIP3   OH224108   2.565   5.398   1.036  0.1421 -0.0355 -0.1262
  898TIP3    H124109   2.489   5.387   0.978  0.6064  1.8206 -1.1669
  898TIP3    H224110   2.611   5.314   1.029 -1.8012 -1.2549  0.6063
  899TIP3   OH224111   4.648   0.836  16.959 -0.2971  0.0951 -0.0451
  899TIP3    H124112   4.615   0.817  16.872 -0.7010  0.7133 -0.0334
  899TIP3    H224113   4.581   0.891  16.999  0.5612  1.0840  0.1024
  900TIP3   OH224114   5.961   4.490  17.063  0.7107  0.7603  0.3330
  900TIP3    H124115   5.994   4.515  17.150  1.3223 -1.8082  0.9126
  900TIP3    H224116   5.869   4.465  17.079  0.9866 -0.2679  0.3938
  901TIP3   OH224117   2.444   1.863  12.142 -0.4056 -0.1057 -0.1852
  901TIP3    H124118   2.480   1.807  12.073 -2.1657 -2.0645  0.3625
  901TIP3    H224119   2.380   1.919  12.097  0.4501  0.5901 -0.5473
  902TIP3   OH224120   2.883   0.219   0.989  0.0163  0.0515 -0.7338
  902TIP3    H124121   2.823   0.220   0.914  0.6779 -1.7183 -1.3266
  902TIP3    H224122   2.854   0.145   1.042  1.6105 -0.7646 -0.9751
  903TIP3   OH224123   4.019   1.125  16.659  0.3244 -0.2142  0.4019
  903TIP3    H124124   3.984   1.204  16.618  1.4716  1.0752  1.8218
  903TIP3    H224125   4.114   1.134  16.653  0.4891 -1.0368  1.3982
  904TIP3   OH224126   2.191   5.507   3.659  0.0210 -0.1696 -0.5963
  904TIP3    H124127   2.231   5.550   3.735  0.9523 -0.8790 -0.6707
  904TIP3    H224128   2.233   5.421   3.655 -1.2322 -0.7850 -0.9335
  905TIP3   OH224129   6.240   3.175  17.030  0.6336 -0.5691 -0.8425
  905TIP3    H124130   6.160   3.198  16.983  0.7304  0.0606 -0.7051
  905TIP3    H224131   6.215   3.177  17.122  0.7995 -0.3862 -0.7999
  906TIP3   OH224132   1.048   5.732  10.226  0.0776 -0.6681  0.0074
  906TIP3    H124133   1.005   5.662  10.275  1.7071 -1.6786  0.0774
  906TIP3    H224134   1.141   5.722  10.247  0.4707  0.8437 -0.8514
  907TIP3   OH224135   2.677   2.352  11.956  0.3074  0.1211  0.0625
  907TIP3    H124136   2.591   2.335  11.916  0.5501  0.3730 -0.5701
  907TIP3    H224137   2.672   2.443  11.986  0.2920  0.0814  0.1800
  908TIP3   OH224138   4.536   5.927   4.684  0.3876  0.0878 -0.1164
  908TIP3    H124139   4.572   5.961   4.602  0.5073  1.3060  0.4104
  908TIP3    H224140   4.575   5.982   4.751  0.4629 -1.0455  0.7845
  909TIP3   OH224141   0.282   1.462  11.459  0.0158 -0.7460  0.1335
  909TIP3    H124142   0.336   1.405  11.404 -1.3209 -2.6081  0.6579
  909TIP3    H224143   0.194   1.427  11.451 -0.8956  1.3653  0.4064
  910TIP3   OH224144   1.918   5.754  16.121 -0.2886  0.3103 -0.3278
  910TIP3    H124145   1.866   5.711  16.189 -0.4651  0.3750 -0.4233
  910TIP3    H224146   1.974   5.815  16.170  1.1628 -1.2020 -0.0130
  911TIP3   OH224147   5.654   2.448  15.531 -0.6043 -0.1765  0.1317
  911TIP3    H124148   5.723   2.476  15.591 -0.4682 -0.6478  0.1955
  911TIP3    H224149   5.663   2.507  15.456  0.6134 -0.9655 -0.3739
  912TIP3   OH224150   1.421   0.862  13.973 -0.5805 -0.3982  0.0991
  912TIP3    H124151   1.447   0.826  13.888  1.2799 -0.4721  0.6604
  912TIP3    H224152   1.457   0.801  14.037 -1.1872  0.1358  0.9668
  913TIP3   OH224153   1.771   6.517   1.071  0.3361 -0.9174 -0.3484
  913TIP3    H124154   1.848   6.563   1.105  0.3305 -1.2749  0.1530
  913TIP3    H224155   1.788   6.509   0.977  1.7009 -2.4794 -0.0165
  914TIP3   OH224156   4.899   5.862   3.277 -0.1286  0.7999 -0.4326
  914TIP3    H124157   4.924   5.824   3.193 -2.5504  2.2413 -1.9359
  914TIP3    H224158   4.837   5.800   3.315  0.3117  0.5549 -0.1068
  915TIP3   OH224159   4.776   1.833  14.091  0.2210 -0.0841 -0.1298
  915TIP3    H124160   4.752   1.826  14.184  1.1831  0.4045  0.1683
  915TIP3    H224161   4.844   1.767  14.078  0.9857  0.6866 -0.1625
  916TIP3   OH224162   3.175   0.197   2.674 -0.2130 -0.8867 -0.3676
  916TIP3    H124163   3.167   0.271   2.614  0.5863  0.1605  0.7786
  916TIP3    H224164   3.085   0.165   2.683 -0.7683  0.6762  0.0064
  917TIP3   OH224165   3.631   6.292  15.120 -0.2903  0.4818  0.0539
  917TIP3    H124166   3.617   6.208  15.076 -1.5271  1.1198 -0.8142
  917TIP3    H224167   3.561   6.297  15.186 -0.3009  0.8913  0.0122
  918TIP3   OH224168   2.128   4.159  16.312 -0.0625 -0.8707  0.5450
  918TIP3    H124169   2.094   4.246  16.333 -0.3095 -0.7099 -0.4654
  918TIP3    H224170   2.055   4.099  16.333 -0.6840 -0.6122 -0.7816
  919TIP3   OH224171   2.408   5.204   0.120  0.2995 -0.2435  0.3535
  919TIP3    H124172   2.497   5.169   0.126  0.1264 -0.9055 -0.6010
  919TIP3    H224173   2.394   5.215   0.026 -1.0443 -1.2468  0.4241
  920TIP3   OH224174   1.592   3.212   2.963 -0.0559  0.4186 -0.2983
  920TIP3    H124175   1.585   3.282   2.899  0.7577  0.6478 -0.1471
  920TIP3    H224176   1.518   3.155   2.945  0.0815  0.5591 -1.3425
  921TIP3   OH224177   6.680   3.621  13.602 -0.0535 -0.0728  0.0792
  921TIP3    H124178   6.658   3.714  13.601 -0.1920 -0.1008 -1.0298
  921TIP3    H224179   6.633   3.584  13.527 -0.2222 -1.0959  0.6639
  922TIP3   OH224180   5.546   4.244   3.967  0.0876 -0.3963  0.3625
  922TIP3    H124181   5.637   4.246   3.997  0.3202  0.3393 -0.3395
  922TIP3    H224182   5.529   4.334   3.937 -0.9233 -0.4836  0.6439
  923TIP3   OH224183   1.203   3.874  14.131 -0.5265  0.1490 -0.1614
  923TIP3    H124184   1.161   3.882  14.217 -1.1080 -3.0404 -0.0129
  923TIP3    H224185   1.275   3.813  14.145  1.5205  2.1465 -1.3361
  924TIP3   OH224186   1.814   6.557  15.527  0.0518 -0.0065  0.1985
  924TIP3    H124187   1.772   6.634  15.563  1.2540  0.4548  0.6805
  924TIP3    H224188   1.781   6.550  15.438 -0.8952  0.4225  0.5097
  925TIP3   OH224189   2.820   2.252  13.619  0.4155 -0.0271  0.3871
  925TIP3    H124190   2.845   2.165  13.585  2.6970  1.7665 -3.1945
  925TIP3    H224191   2.736   2.270  13.579 -0.2960 -0.7076  1.5245
  926TIP3   OH224192   4.837   3.906   5.185  0.1844 -0.0198  0.3554
  926TIP3    H124193   4.811   3.889   5.276  1.6031 -0.2987  0.7346
  926TIP3    H224194   4.933   3.899   5.186  0.3435  1.4888 -0.8473
  927TIP3   OH224195   1.176   5.800   3.789 -0.4372  0.4684  0.8700
  927TIP3    H124196   1.269   5.805   3.769 -0.9373 -0.2898 -2.2043
  927TIP3    H224197   1.165   5.856   3.865  2.5937  0.0855  1.7182
  928TIP3   OH224198   6.571   2.175  16.892 -0.9748 -0.3848  0.2544
  928TIP3    H124199   6.547   2.090  16.856 -1.5176 -0.1570  0.0779
  928TIP3    H224200   6.552   2.237  16.822  2.0725 -0.3729 -0.7385
  929TIP3   OH224201   3.724   6.709   4.082 -0.1904 -0.0902 -0.1928
  929TIP3    H124202   3.632   6.735   4.089 -0.3215  0.0157 -1.9134
  929TIP3    H224203   3.731   6.629   4.134 -1.4493 -0.5485 -0.6900
  930TIP3   OH224204   3.650   3.415  13.148  0.0425  0.1596 -0.0014
  930TIP3    H124205   3.739   3.383  13.136 -0.5172 -1.4315 -0.2212
  930TIP3    H224206   3.638   3.417  13.243  0.6155  1.3500  0.0653
  931TIP3   OH224207   6.583   6.143   3.482  0.1423  0.1735  0.2243
  931TIP3    H124208   6.559   6.188   3.401 -0.6193 -1.2703 -0.3835
  931TIP3    H224209   6.597   6.052   3.456 -0.2994 -0.3633  1.7551
  932TIP3   OH224210   2.317   5.234   5.162 -0.1181  0.1866  0.4182
  932TIP3    H124211   2.225   5.224   5.185 -0.3556  0.4652 -0.3851
  932TIP3    H224212   2.343   5.149   5.126 -0.6785  0.7392 -1.4057
  933TIP3   OH224213   0.734   6.585   0.734  0.9431 -0.0612 -0.3903
  933TIP3    H124214   0.768   6.501   0.703  1.6308 -0.2347  0.7592
  933TIP3    H224215   0.646   6.590   0.698  0.7366 -1.4817 -0.1301
  934TIP3   OH224216   2.892   0.843   5.119 -0.0447 -0.4089  0.0638
  934TIP3    H124217   2.962   0.858   5.183  0.3455  2.0094 -0.8517
  934TIP3    H224218   2.935   0.849   5.034 -1.0619 -0.7764 -0.4965
  935TIP3   OH224219   0.267   0.641   5.182  0.0786 -0.1596  0.2734
  935TIP3    H124220   0.198   0.574   5.179 -0.2787  0.0951  1.8721
  935TIP3    H224221   0.333   0.604   5.241 -0.3874  1.0937  1.6392
  936TIP3   OH224222   6.050   6.035  14.846 -0.0060  0.2348 -0.2998
  936TIP3    H124223   6.059   6.089  14.925 -1.0968 -1.1372  0.8292
  936TIP3    H224224   6.132   5.987  14.840 -0.8239 -1.5485  1.5525
  937TIP3   OH224225   0.743   2.886  12.070 -0.1907  0.6745  0.2107
  937TIP3    H124226   0.810   2.832  12.111 -0.4686 -0.3919 -0.7045
  937TIP3    H224227   0.729   2.847  11.984 -1.0618  1.6582 -0.1223
  938TIP3   OH224228   4.157   1.832  16.019 -0.7514  0.2049  0.5363
  938TIP3    H124229   4.154   1.927  16.014  1.4660  0.2863 -0.1199
  938TIP3    H224230   4.224   1.814  16.085 -0.5351 -0.8947  0.0326
  939TIP3   OH224231   4.919   0.418  13.747  0.0064  0.0453 -0.0785
  939TIP3    H124232   4.838   0.435  13.698 -0.7471 -0.2892  1.0011
  939TIP3    H224233   4.923   0.323  13.753  1.1667 -0.0027 -1.1864
  940TIP3   OH224234   6.499   5.248  11.687  0.3443 -0.5020  0.5148
  940TIP3    H124235   6.454   5.185  11.743  0.6454  0.4229  1.8509
  940TIP3    H224236   6.553   5.195  11.629 -2.3089 -1.6611 -1.0980
  941TIP3   OH224237   6.341   2.038  15.680  0.0774 -0.7119  0.0908
  941TIP3    H124238   6.299   1.993  15.753 -0.6605 -0.3668 -0.0999
  941TIP3    H224239   6.273   2.039  15.612  0.5413 -0.4821 -0.3695
  942TIP3   OH224240   2.599   6.109  16.281  0.4397 -0.1309 -0.0307
  942TIP3    H124241   2.640   6.092  16.196  0.4014  0.2249 -0.1208
  942TIP3    H224242   2.580   6.203  16.280 -0.3720 -0.2797  0.0043
  943TIP3   OH224243   3.861   5.419   2.098  0.7072 -0.1579 -0.3768
  943TIP3    H124244   3.841   5.415   2.004  0.6071 -0.3300 -0.3500
  943TIP3    H224245   3.838   5.508   2.123  0.1929 -0.2771 -0.4005
  944TIP3   OH224246   4.016   1.631   3.624 -0.4773  0.5754 -0.4007
  944TIP3    H124247   3.967   1.705   3.659 -0.9223  0.9499 -1.7567
  944TIP3    H224248   4.090   1.671   3.578 -0.1938  0.1252 -0.3409
  945TIP3   OH224249   3.719   3.686   1.707  0.9642  0.7133 -0.4515
  945TIP3    H124250   3.757   3.770   1.731  1.1335  0.5334 -0.0880
  945TIP3    H224251   3.757   3.623   1.769 -1.0310  0.7675  0.9337
  946TIP3   OH224252   0.570   4.343  14.883  0.2973  0.4345 -0.5774
  946TIP3    H124253   0.586   4.318  14.974 -1.1101 -1.2028 -0.7266
  946TIP3    H224254   0.654   4.326  14.839  1.0690  1.4866  0.4136
  947TIP3   OH224255   4.672   3.970   4.322 -0.2225 -0.0249  0.4212
  947TIP3    H124256   4.732   4.043   4.309  0.3356 -0.5203  0.2069
  947TIP3    H224257   4.631   3.988   4.407 -0.7385  0.9894 -0.0255
  948TIP3   OH224258   0.828   2.927  13.427 -0.2650  0.0128  0.6000
  948TIP3    H124259   0.818   2.861  13.358  1.8438  0.2137  0.0362
  948TIP3    H224260   0.871   3.001  13.384  0.0869  0.5950  1.8899
  949TIP3   OH224261   3.873   5.249  13.853  0.1165 -0.6078 -0.3992
  949TIP3    H124262   3.929   5.216  13.783 -2.0901 -2.1229 -1.5495
  949TIP3    H224263   3.915   5.218  13.934  2.0156  0.0967 -1.0624
  950TIP3   OH224264   5.007   3.793   4.922 -0.0038  0.0039 -0.4094
  950TIP3    H124265   5.009   3.750   5.007 -0.5706 -2.5340 -1.5825
  950TIP3    H224266   5.099   3.815   4.905  0.1885  0.0322  0.6134
  951TIP3   OH224267   4.335   5.701   0.061 -0.2373 -0.4935  0.2294
  951TIP3    H124268   4.425   5.699   0.094 -0.4808 -1.9815  0.8517
  951TIP3    H224269   4.310   5.793   0.068  1.3094 -0.0012 -0.2040
  952TIP3   OH224270   3.483   2.421   5.861 -0.4302 -0.7669  0.3316
  952TIP3    H124271   3.481   2.383   5.949 -1.0132 -1.3431  0.0804
  952TIP3    H224272   3.424   2.496   5.866  0.2406 -0.2561  0.6666
  953TIP3   OH224273   3.082   3.288  14.671 -0.2747  0.0083 -0.9239
  953TIP3    H124274   3.101   3.269  14.763 -2.3516 -1.0144 -0.6439
  953TIP3    H224275   3.167   3.291  14.629  0.6530 -0.8082  0.7952
  954TIP3   OH224276   0.558   0.981   3.869 -0.2257 -0.7791 -0.0394
  954TIP3    H124277   0.465   1.002   3.861  0.1086  0.8786  0.2269
  954TIP3    H224278   0.599   1.023   3.793  0.8055  1.8220  1.8095
  955TIP3   OH224279   5.575   0.513  10.937 -0.3129 -0.1181 -0.4338
  955TIP3    H124280   5.517   0.464  10.995 -0.4771 -0.8535 -1.2035
  955TIP3    H224281   5.663   0.487  10.964 -0.3778 -0.0665 -0.1741
  956TIP3   OH224282   1.722   6.704  14.038 -0.2859  0.1212 -0.1566
  956TIP3    H124283   1.650   6.648  14.068 -0.4658 -0.3703 -1.4243
  956TIP3    H224284   1.679   6.782  14.002 -0.3236 -0.7145 -2.0677
  957TIP3   OH224285   3.534   0.240   5.599  0.0947 -0.1642 -0.3933
  957TIP3    H124286   3.445   0.221   5.569 -0.2169  0.7565 -0.0721
  957TIP3    H224287   3.531   0.230   5.694  0.0945  0.7837 -0.2883
  958TIP3   OH224288   0.137   4.470   4.704  1.0530  0.1055  0.4414
  958TIP3    H124289   0.063   4.425   4.745  0.3409  0.0366 -0.8620
  958TIP3    H224290   0.097   4.524   4.636  2.2880 -1.1169 -1.3419
  959TIP3   OH224291   3.279   1.504   1.964 -0.9033 -0.0522  0.2341
  959TIP3    H124292   3.194   1.519   1.923 -0.4175  0.8441 -0.4820
  959TIP3    H224293   3.270   1.541   2.052 -1.0637  0.6238 -0.0568
  960TIP3   OH224294   3.151   6.628  11.219 -0.0076 -0.3869 -0.1494
  960TIP3    H124295   3.144   6.703  11.278 -0.0102  1.2198 -2.0846
  960TIP3    H224296   3.072   6.632  11.166  1.4951  0.2970 -2.5039
  961TIP3   OH224297   1.039   4.466   6.578 -0.3219 -0.0412  0.2249
  961TIP3    H124298   0.974   4.423   6.523  0.9503 -1.4345 -0.2454
  961TIP3    H224299   1.012   4.445   6.667 -0.6564 -0.4145  0.0413
  962TIP3   OH224300   3.101   4.602  11.682  0.6117  0.1451  0.2088
  962TIP3    H124301   3.011   4.630  11.697  0.6152  0.7758 -0.8448
  962TIP3    H224302   3.121   4.632  11.593  1.2335 -1.6336 -0.2838
  963TIP3   OH224303   5.985   2.156   0.506  0.4492  0.4622  0.0364
  963TIP3    H124304   5.935   2.080   0.475  0.4867  1.3271 -2.3402
  963TIP3    H224305   6.044   2.120   0.572 -0.3497 -1.3510 -0.1652
  964TIP3   OH224306   1.902   5.721   2.643 -0.7468  0.0204  0.0296
  964TIP3    H124307   1.993   5.708   2.616 -1.0410 -0.5231 -0.7236
  964TIP3    H224308   1.908   5.779   2.720  0.3075 -1.0075  0.7602
  965TIP3   OH224309   1.284   3.144  11.139  0.1432 -0.3732  0.1257
  965TIP3    H124310   1.361   3.182  11.180  0.3259 -1.1106  0.4811
  965TIP3    H224311   1.299   3.155  11.045  0.0738  0.6378  0.2258
  966TIP3   OH224312   2.915   6.510   5.350  0.0397 -0.1210 -0.0824
  966TIP3    H124313   2.953   6.593   5.379  3.2015 -0.6214 -2.2167
  966TIP3    H224314   2.940   6.447   5.418  1.8276 -0.1276 -0.6908
  967TIP3   OH224315   2.514   3.668  16.841  0.0571  0.0251  0.0101
  967TIP3    H124316   2.464   3.750  16.843  1.1642  0.7039  0.9978
  967TIP3    H224317   2.509   3.639  16.750  0.2268  1.5642 -0.5232
  968TIP3   OH224318   3.957   6.000   1.456  0.2624 -0.0625 -0.4148
  968TIP3    H124319   3.925   5.969   1.541  0.7777  1.6511  0.4411
  968TIP3    H224320   4.049   6.021   1.471  0.2493  0.6844 -1.2803
  969TIP3   OH224321   1.654   4.137   3.647  0.3062 -0.4112 -0.1779
  969TIP3    H124322   1.573   4.183   3.670  0.7861  0.2317  0.2790
  969TIP3    H224323   1.625   4.051   3.616 -0.4459 -1.3560  2.7925
  970TIP3   OH224324   3.217   1.788   3.949  0.2874 -0.1895 -0.3324
  970TIP3    H124325   3.195   1.752   3.863 -0.8157  2.2119 -1.1174
  970TIP3    H224326   3.135   1.784   3.998  0.0921  1.3889 -0.5052
  971TIP3   OH224327   5.681   5.057  11.797 -0.6895 -0.1541  0.1135
  971TIP3    H124328   5.760   5.005  11.780 -0.0759  1.2599 -1.7120
  971TIP3    H224329   5.610   4.992  11.800  0.3712 -1.3333  0.5354
  972TIP3   OH224330   1.180   0.237   1.819 -0.3209  0.0198 -0.0010
  972TIP3    H124331   1.130   0.165   1.781 -1.8132  1.2285 -0.4060
  972TIP3    H224332   1.229   0.274   1.745 -0.1885 -0.0632  0.0442
  973TIP3   OH224333   3.366   1.667   2.628 -0.5109 -0.0165 -0.1156
  973TIP3    H124334   3.275   1.639   2.617 -0.2322 -0.1928 -2.4289
  973TIP3    H224335   3.408   1.595   2.676 -1.1449 -0.8307 -0.7635
  974TIP3   OH224336   1.703   5.168  11.469 -0.4914 -0.1190 -0.2344
  974TIP3    H124337   1.693   5.187  11.376  3.1979 -1.1271 -1.0123
  974TIP3    H224338   1.748   5.083  11.472  0.4267  0.3339  2.4020
  975TIP3   OH224339   1.688   3.693   4.685  0.0691  0.1920  0.5883
  975TIP3    H124340   1.751   3.628   4.655  0.5968  0.4306  1.1427
  975TIP3    H224341   1.610   3.642   4.709  0.8705 -0.4036  2.1037
  976TIP3   OH224342   3.662   0.100  13.807 -0.0220 -0.1203 -0.1326
  976TIP3    H124343   3.738   0.157  13.820  0.0637 -0.0653 -0.8524
  976TIP3    H224344   3.683   0.020  13.856  0.9992 -0.5471 -1.2281
  977TIP3   OH224345   6.509   4.599  13.781  0.1529  0.0238 -0.0680
  977TIP3    H124346   6.446   4.665  13.753  1.3052  0.9941 -0.4343
  977TIP3    H224347   6.501   4.598  13.877 -0.4491  0.0948 -0.1132
  978TIP3   OH224348   4.692   2.502  15.993 -0.0801 -0.0950  1.0359
  978TIP3    H124349   4.675   2.508  15.899  1.2174 -0.0075  0.7817
  978TIP3    H224350   4.685   2.593  16.024 -2.6659 -0.3739  1.4758
  979TIP3   OH224351   0.690   0.094  10.546  0.3719  0.1680  0.1587
  979TIP3    H124352   0.733   0.056  10.469 -1.3816  0.9589 -1.2884
  979TIP3    H224353   0.680   0.186  10.525 -0.1565  0.3954  1.3424
  980TIP3   OH224354   2.304   4.893  11.553  0.1988  0.9697 -0.6640
  980TIP3    H124355   2.242   4.867  11.486  0.0224  0.1566 -0.1990
  980TIP3    H224356   2.372   4.940  11.506  0.2320  0.1474 -1.4626
  981TIP3   OH224357   3.229   6.078   1.587 -0.3264  0.6930  0.2298
  981TIP3    H124358   3.162   6.026   1.543  0.3518  0.6546 -0.7890
  981TIP3    H224359   3.254   6.025   1.662 -2.0662  1.1191  1.1665
  982TIP3   OH224360   0.619   6.234  11.040 -0.1116 -0.1715 -0.2835
  982TIP3    H124361   0.544   6.217  10.982  0.1177 -0.4942 -0.4890
  982TIP3    H224362   0.608   6.173  11.112 -0.2416  0.0341 -0.1274
  983TIP3   OH224363   3.166   1.054   0.255  0.0957  0.6526  0.1093
  983TIP3    H124364   3.087   1.089   0.214 -0.2376  1.5850  1.4650
  983TIP3    H224365   3.230   1.049   0.185 -0.2838  2.6825 -0.4401
  984TIP3   OH224366   4.967   5.447   2.544 -0.1697 -0.0512 -0.0257
  984TIP3    H124367   5.004   5.447   2.455 -1.2727 -2.9756 -0.5726
  984TIP3    H224368   5.041   5.426   2.601  0.2048  0.2005 -0.4073
  985TIP3   OH224369   1.514   6.557   2.635  0.3110 -0.0131 -0.0595
  985TIP3    H124370   1.597   6.521   2.666  0.4418  2.2668  2.7777
  985TIP3    H224371   1.537   6.612   2.561  0.6776 -2.3138 -1.7521
  986TIP3   OH224372   1.801   0.827   1.007  0.1516  0.6156 -0.0125
  986TIP3    H124373   1.749   0.750   1.033 -1.1388  1.5837  0.3487
  986TIP3    H224374   1.848   0.852   1.086  0.3358  0.3888 -0.0487
  987TIP3   OH224375   4.126   6.278  13.354 -0.1122 -0.3375  0.3632
  987TIP3    H124376   4.149   6.229  13.433 -0.0676 -1.3786 -0.2758
  987TIP3    H224377   4.044   6.323  13.376 -0.4994 -1.2155  0.7674
  988TIP3   OH224378   1.809   3.666   3.690 -0.1938 -0.6254 -0.5192
  988TIP3    H124379   1.761   3.694   3.768  0.7403 -0.6939  0.0881
  988TIP3    H224380   1.832   3.747   3.645  1.2744 -0.4363  0.5000
  989TIP3   OH224381   3.339   3.821   5.969 -0.0872 -0.2809  0.6975
  989TIP3    H124382   3.329   3.860   6.056  1.6355 -1.9031  1.6881
  989TIP3    H224383   3.302   3.887   5.909  0.8485  1.9571  2.4287
  990TIP3   OH224384   5.572   5.117   4.681 -0.4303  0.2797  0.5242
  990TIP3    H124385   5.538   5.043   4.630 -0.5621  1.1981 -0.7803
  990TIP3    H224386   5.559   5.193   4.623  1.6810  1.0047  0.9417
  991TIP3   OH224387   0.699   3.475  16.350  0.1905  0.1937  0.3832
  991TIP3    H124388   0.654   3.536  16.408 -1.6008  0.4156 -1.1473
  991TIP3    H224389   0.697   3.391  16.397 -0.4804  0.5439  0.9945
  992TIP3   OH224390   3.299   2.242  12.174 -0.0227  1.1807 -0.6110
  992TIP3    H124391   3.361   2.309  12.146 -0.7745  2.0034 -0.3892
  992TIP3    H224392   3.332   2.212  12.259 -0.1453  1.9290 -0.2882
  993TIP3   OH224393   4.875   6.255  13.508  0.2669  0.3970  0.3645
  993TIP3    H124394   4.838   6.343  13.503 -1.6044 -0.3390  0.5480
  993TIP3    H224395   4.864   6.220  13.419 -1.1688 -0.4541  0.8501
  994TIP3   OH224396   4.783   2.792   0.068  0.5339  0.2936  0.2690
  994TIP3    H124397   4.843   2.718   0.073 -0.5199 -0.7540 -1.5428
  994TIP3    H224398   4.696   2.753   0.082  0.0708  1.4489  0.7732
  995TIP3   OH224399   2.228   0.098  15.455 -0.2280 -0.0904 -0.4744
  995TIP3    H124400   2.249   0.024  15.398  0.1538 -0.3231 -0.0333
  995TIP3    H224401   2.136   0.086  15.477 -0.3268 -0.1031 -0.8851
  996TIP3   OH224402   6.806   4.540  14.475  0.1702 -0.0726 -0.3928
  996TIP3    H124403   6.730   4.515  14.528 -0.4643  0.5820 -0.9685
  996TIP3    H224404   6.875   4.557  14.539 -0.0912 -0.8815  0.1299
  997TIP3   OH224405   0.846   5.408  16.105 -0.2486 -0.3232  0.1954
  997TIP3    H124406   0.898   5.442  16.032  1.2680 -1.6798  0.5785
  997TIP3    H224407   0.861   5.470  16.176 -1.4068  0.7821 -0.4843
  998TIP3   OH224408   4.983   2.775   3.033  0.4117 -0.5478  0.4024
  998TIP3    H124409   5.071   2.810   3.023 -0.2163  0.9177 -0.2679
  998TIP3    H224410   4.979   2.702   2.972  0.3061  1.1238 -1.7247
  999TIP3   OH224411   3.152   3.187   5.707 -0.0579 -0.1774 -0.0247
  999TIP3    H124412   3.172   3.279   5.690  1.1753 -0.4755 -0.3001
  999TIP3    H224413   3.219   3.139   5.659  0.1874 -1.1823  1.2656
 1000TIP3   OH224414   5.334   6.627   4.567 -0.5269  0.3096  0.1002
 1000TIP3    H124415   5.394   6.641   4.494 -1.1715 -0.6250 -0.6313
 1000TIP3    H224416   5.364   6.545   4.608  0.3447  1.2508  1.4280
 1001TIP3   OH224417   2.875   3.443   4.634 -0.1871 -0.7976 -0.1788
 1001TIP3    H124418   2.892   3.418   4.543 -1.1066 -0.5837 -0.4257
 1001TIP3    H224419   2.797   3.393   4.658  1.0307 -2.1786  1.0827
 1002TIP3   OH224420   3.684   1.855   1.726  0.0427 -0.1745  0.1105
 1002TIP3    H124421   3.595   1.826   1.747 -0.5410  0.7634 -0.9406
 1002TIP3    H224422   3.703   1.815   1.642  1.3827 -1.8818  1.1628
 1003TIP3   OH224423   6.162   2.468   3.564  0.4911 -0.2436 -0.4109
 1003TIP3    H124424   6.089   2.406   3.554 -0.4954  0.9397 -0.7913
 1003TIP3    H224425   6.201   2.473   3.477 -0.0496  0.3982 -0.6226
 1004TIP3   OH224426   4.375   1.956  13.053  0.3087  0.0658 -0.1033
 1004TIP3    H124427   4.370   2.026  13.117 -0.2840  1.6328 -1.7708
 1004TIP3    H224428   4.334   1.881  13.096  0.4080  0.9020  1.5182
 1005TIP3   OH224429   2.547   0.584  16.377 -0.4481  0.2786  0.3406
 1005TIP3    H124430   2.609   0.616  16.311  0.8133 -1.3467  0.6687
 1005TIP3    H224431   2.478   0.541  16.326  0.3640 -0.7089  0.0456
 1006TIP3   OH224432   0.445   1.881   3.360 -0.0104  0.2296 -0.5424
 1006TIP3    H124433   0.449   1.896   3.454  0.6603 -0.9387 -0.3548
 1006TIP3    H224434   0.491   1.955   3.321  1.3530 -0.1968  0.1822
 1007TIP3   OH224435   0.728   3.792  16.319 -0.1500 -0.2225 -0.3921
 1007TIP3    H124436   0.771   3.793  16.234  1.1482 -0.3975  0.2390
 1007TIP3    H224437   0.692   3.704  16.327  0.2923 -0.4160 -0.4984
 1008TIP3   OH224438   6.452   3.680  11.580  0.5776  0.0273 -0.4136
 1008TIP3    H124439   6.394   3.629  11.637  1.7889 -0.2796  0.5894
 1008TIP3    H224440   6.415   3.768  11.580 -0.1921 -0.2890 -0.2300
 1009TIP3   OH224441   0.910   6.030   2.671 -0.5607  0.4567  0.2780
 1009TIP3    H124442   0.822   6.003   2.698 -0.5797  0.7451  0.5186
 1009TIP3    H224443   0.929   6.106   2.726 -0.2013  0.4582  0.1547
 1010TIP3   OH224444   2.503   6.301   4.537 -0.0005  0.3203  0.2223
 1010TIP3    H124445   2.439   6.302   4.608 -1.2734  0.3177 -0.8784
 1010TIP3    H224446   2.574   6.358   4.568  0.1527 -0.7913  2.0530
 1011TIP3   OH224447   2.809   6.619   1.646 -0.0161  0.4810 -0.3921
 1011TIP3    H124448   2.744   6.669   1.596 -0.1529 -0.0000 -0.6963
 1011TIP3    H224449   2.863   6.576   1.579 -1.0562 -1.2934 -0.1464
 1012TIP3   OH224450   2.550   4.816  13.892  0.2805 -0.0909 -0.5080
 1012TIP3    H124451   2.592   4.881  13.949 -2.5510  2.9265 -1.5478
 1012TIP3    H224452   2.486   4.772  13.947  0.7392 -0.5002 -0.2980
 1013TIP3   OH224453   1.432   5.568   5.372  0.7320 -0.3028 -0.1492
 1013TIP3    H124454   1.477   5.521   5.442  0.4295 -0.4732 -0.0662
 1013TIP3    H224455   1.449   5.660   5.391  0.5502 -0.3426  0.2220
 1014TIP3   OH224456   6.467   4.266  16.841 -0.2061 -0.0682  0.1072
 1014TIP3    H124457   6.520   4.343  16.820  0.6048 -0.8954 -1.0212
 1014TIP3    H224458   6.493   4.241  16.929  0.8314 -0.0787 -0.1932
 1015TIP3   OH224459   2.890   6.156   0.039  0.4030  0.6081 -0.6894
 1015TIP3    H124460   2.807   6.161   0.088  1.1335 -0.8169  0.8156
 1015TIP3    H224461   2.878   6.215  -0.035 -2.0134  0.3379 -0.5977
 1016TIP3   OH224462   4.685   4.671  13.156  0.4897 -0.5807  0.2968
 1016TIP3    H124463   4.730   4.591  13.184 -0.7435 -0.6729  2.2546
 1016TIP3    H224464   4.747   4.741  13.173  0.5531 -0.8669  1.3464
 1017TIP3   OH224465   6.288   3.502  12.524 -0.2669  0.2450 -0.0631
 1017TIP3    H124466   6.230   3.428  12.537 -0.7644  0.8863  1.6251
 1017TIP3    H224467   6.369   3.477  12.568 -0.4469  0.7132  0.5398
 1018TIP3   OH224468   1.921   6.245   3.699 -0.6001 -0.1233  0.8001
 1018TIP3    H124469   1.928   6.154   3.672 -0.9532 -0.9966  3.3389
 1018TIP3    H224470   1.865   6.243   3.777  0.7013  2.0301  1.9139
 1019TIP3   OH224471   5.827   0.939  16.419 -0.0743 -0.3797 -0.3429
 1019TIP3    H124472   5.761   0.887  16.373 -1.6857  0.8579  0.4572
 1019TIP3    H224473   5.868   0.877  16.480 -1.1780 -0.9673 -0.1719
 1020TIP3   OH224474   4.541   5.345  10.832  0.2826  0.4361 -0.2820
 1020TIP3    H124475   4.551   5.272  10.771  1.9195  0.1511  0.2954
 1020TIP3    H224476   4.457   5.327  10.876 -0.7935  0.5020 -2.1888
 1021TIP3   OH224477   5.720   0.458   2.932 -0.4445  0.2411 -0.6698
 1021TIP3    H124478   5.811   0.463   2.961 -0.6964 -0.7122  0.3683
 1021TIP3    H224479   5.698   0.546   2.904 -0.4645  1.5562  2.9932
 1022TIP3   OH224480   5.359   2.970   0.059  0.2418  0.2483  0.6794
 1022TIP3    H124481   5.397   2.901   0.113  2.0548  0.0745 -0.7045
 1022TIP3    H224482   5.310   2.924  -0.008  2.8682  0.0632 -1.3003
 1023TIP3   OH224483   0.637   1.692  14.779 -0.0928 -0.6271  0.2802
 1023TIP3    H124484   0.599   1.775  14.752  0.9306 -0.2201  0.0646
 1023TIP3    H224485   0.638   1.696  14.874  0.3131 -0.2256  0.2609
 1024TIP3   OH224486   0.713   5.864   0.773  0.6876  0.0471  0.4548
 1024TIP3    H124487   0.637   5.914   0.802  0.6877  2.3082 -2.8732
 1024TIP3    H224488   0.677   5.792   0.722  0.7788 -1.3256  2.2467
 1025TIP3   OH224489   6.069   4.590   2.985  0.1390  0.3208 -0.0295
 1025TIP3    H124490   6.054   4.518   3.046  1.0221  2.7762  3.4623
 1025TIP3    H224491   5.989   4.643   2.990  0.1921  0.5257 -1.1198
 1026TIP3   OH224492   1.538   1.054  12.284 -0.1666  0.0027  0.2905
 1026TIP3    H124493   1.622   1.071  12.328  0.6884 -0.8992 -0.9177
 1026TIP3    H224494   1.499   0.983  12.335 -0.2086  0.4264  0.8609
 1027TIP3   OH224495   2.027   2.962   5.085  0.0339  0.0586 -0.1440
 1027TIP3    H124496   2.105   2.910   5.102  0.9837  1.3263 -0.4042
 1027TIP3    H224497   1.960   2.926   5.142  0.2119 -2.3384 -1.3184
 1028TIP3   OH224498   5.352   0.585  15.765 -0.3318  0.3799  0.4356
 1028TIP3    H124499   5.410   0.593  15.689  0.4794 -1.9420  0.7384
 1028TIP3    H224500   5.265   0.570  15.727 -0.0655  0.0279 -0.0494
 1029TIP3   OH224501   3.970   0.553  15.987 -0.3556  0.1278 -0.0898
 1029TIP3    H124502   3.993   0.578  15.897 -0.2747 -1.2001 -0.4670
 1029TIP3    H224503   3.939   0.634  16.027 -0.6306  0.7070 -1.3926
 1030TIP3   OH224504   6.016   0.923  16.784 -0.2875  0.8702 -0.7786
 1030TIP3    H124505   6.000   0.868  16.707 -0.1242  0.1318 -0.3033
 1030TIP3    H224506   5.952   0.893  16.848  0.3814  0.6153 -0.2078
 1031TIP3   OH224507   3.489   2.389  14.348 -0.1777  0.4004  0.0954
 1031TIP3    H124508   3.403   2.407  14.309  0.2963  1.0335 -0.6966
 1031TIP3    H224509   3.470   2.335  14.424 -1.1795 -0.5637 -0.7932
 1032TIP3   OH224510   5.249   1.715  13.373 -0.8367 -0.4735  0.2190
 1032TIP3    H124511   5.253   1.621  13.361 -2.3961 -0.2600 -3.1974
 1032TIP3    H224512   5.157   1.733  13.393 -1.1900  0.4383 -1.9405
 1033TIP3   OH224513   0.960   0.647   0.556 -0.4925 -0.0512 -0.0279
 1033TIP3    H124514   0.891   0.600   0.601  1.1431 -1.4565  1.1315
 1033TIP3    H224515   1.015   0.579   0.518  2.9035  0.6143  3.0840
 1034TIP3   OH224516   2.902   4.477  13.558  0.3204 -0.6363  0.1329
 1034TIP3    H124517   2.987   4.517  13.578  1.1550 -2.1187 -0.3008
 1034TIP3    H224518   2.843   4.551  13.544  1.4199  0.4189  0.9197
 1035TIP3   OH224519   5.359   5.363   0.444  0.5817 -0.4547  0.3131
 1035TIP3    H124520   5.391   5.281   0.483 -0.4694 -0.4571  1.2165
 1035TIP3    H224521   5.268   5.368   0.472 -0.3722 -0.6504 -2.4674
 1036TIP3   OH224522   0.237   3.232   3.749  0.8806 -0.2418 -0.8164
 1036TIP3    H124523   0.183   3.204   3.822  2.4500  0.6603  0.7754
 1036TIP3    H224524   0.229   3.163   3.684 -0.4356 -1.1510  0.2757
 1037TIP3   OH224525   3.947   3.333   0.067 -0.0579 -0.6676  0.4950
 1037TIP3    H124526   4.024   3.373   0.107  1.2617 -1.2423 -1.3605
 1037TIP3    H224527   3.931   3.254   0.120 -1.1005  0.8481  2.5646
 1038TIP3   OH224528   0.016   4.643  15.437 -0.0313 -0.2104 -0.3101
 1038TIP3    H124529   0.045   4.611  15.523 -2.0846  0.0368  0.5263
 1038TIP3    H224530   0.091   4.692  15.404  1.5419 -2.0222  0.3936
 1039TIP3   OH224531   6.143   5.001   1.937  0.4254 -0.0023  0.0078
 1039TIP3    H124532   6.175   5.074   1.885 -2.1234  0.8723 -0.4502
 1039TIP3    H224533   6.160   4.924   1.883  0.8627  0.5258 -0.6204
 1040TIP3   OH224534   3.740   6.012  16.275 -0.7082  0.0625 -0.6985
 1040TIP3    H124535   3.786   5.986  16.354  0.1898 -0.2005 -1.2958
 1040TIP3    H224536   3.655   5.968  16.281 -0.5770 -0.0992  0.0253
 1041TIP3   OH224537   5.937   3.205   5.392 -0.0074 -0.8671 -0.0233
 1041TIP3    H124538   5.897   3.286   5.422  0.5718 -0.9690  1.0874
 1041TIP3    H224539   5.979   3.228   5.309 -0.5795 -0.2610 -0.1549
 1042TIP3   OH224540   4.439   3.472  12.607  0.4906 -0.5640 -0.4543
 1042TIP3    H124541   4.459   3.528  12.681  0.6927 -0.9515 -0.2137
 1042TIP3    H224542   4.513   3.412  12.601  0.0260 -1.1585 -0.3690
 1043TIP3   OH224543   3.598   0.276   5.092  0.5960  0.1734  0.7526
 1043TIP3    H124544   3.626   0.246   5.006  0.0478  0.6386  0.3993
 1043TIP3    H224545   3.641   0.217   5.154 -0.7400 -1.5979  0.0783
 1044TIP3   OH224546   1.304   4.627   0.562 -0.2383  0.5987  0.4562
 1044TIP3    H124547   1.309   4.721   0.545  0.1458  0.4752 -0.1411
 1044TIP3    H224548   1.344   4.586   0.485  0.5429 -0.0242  1.1710
 1045TIP3   OH224549   6.553   3.149   0.121 -0.2421  0.3793 -0.6718
 1045TIP3    H124550   6.527   3.241   0.117  2.2263  1.3540  2.0091
 1045TIP3    H224551   6.648   3.152   0.133 -0.2627 -2.4359  1.1183
 1046TIP3   OH224552   2.457   3.434  16.401 -0.0977  0.2369 -0.1160
 1046TIP3    H124553   2.521   3.368  16.372  0.7076  0.9037  0.1091
 1046TIP3    H224554   2.412   3.393  16.475  2.2481  0.8929  1.8020
 1047TIP3   OH224555   2.527   1.037   4.823  0.4926  0.7424  0.6027
 1047TIP3    H124556   2.546   1.128   4.800 -1.1136  0.4459 -2.4498
 1047TIP3    H224557   2.613   0.994   4.824  1.0362  1.6347 -1.5200
 1048TIP3   OH224558   3.756   1.211  14.036 -0.4513  0.0517  0.2823
 1048TIP3    H124559   3.714   1.287  13.997  0.4946  0.4567  0.0421
 1048TIP3    H224560   3.848   1.235  14.044  0.2142 -1.7020 -1.4345
 1049TIP3   OH224561   2.031   3.317  15.276  0.2315  0.4042 -0.3773
 1049TIP3    H124562   2.031   3.221  15.267 -0.4899  0.3813 -0.1931
 1049TIP3    H224563   1.972   3.334  15.349 -0.0255  1.0132 -0.7215
 1050TIP3   OH224564   3.359   6.565  13.860 -0.8859 -0.1026 -0.7290
 1050TIP3    H124565   3.374   6.652  13.896  0.4807  0.1698 -1.8245
 1050TIP3    H224566   3.447   6.528  13.850 -1.4318 -1.5233 -0.4945
 1051TIP3   OH224567   6.508   5.696   4.740  0.1197  0.2879 -0.0318
 1051TIP3    H124568   6.491   5.634   4.669 -0.9124 -0.2200  0.6298
 1051TIP3    H224569   6.600   5.720   4.730  0.5995 -1.4791 -0.2287
 1052TIP3   OH224570   1.048   1.791   1.003  0.6575 -0.3995  0.2483
 1052TIP3    H124571   1.090   1.816   1.085  0.2933 -0.5553  0.4838
 1052TIP3    H224572   0.980   1.857   0.989 -0.0983 -1.0524  0.7092
 1053TIP3   OH224573   5.127   5.631  13.285  0.1379  0.4728  0.0481
 1053TIP3    H124574   5.185   5.556  13.275  1.1645  1.3418 -0.7543
 1053TIP3    H224575   5.039   5.594  13.279  0.5789 -0.8544  1.1785
 1054TIP3   OH224576   1.425   0.143  15.315 -0.7190  0.0368 -0.8834
 1054TIP3    H124577   1.376   0.061  15.320 -0.6837  0.0704  0.4272
 1054TIP3    H224578   1.378   0.202  15.373  0.4244  0.2937 -0.1808
 1055TIP3   OH224579   5.701   2.666   4.579  0.1215  0.6345 -0.3903
 1055TIP3    H124580   5.789   2.665   4.543  0.8660  0.6725  1.3299
 1055TIP3    H224581   5.712   2.640   4.670 -1.3705  2.5280  0.4048
 1056TIP3   OH224582   4.412   1.092   4.760  0.2709  0.6176  0.2183
 1056TIP3    H124583   4.438   1.024   4.697  1.3581 -0.1830  1.4619
 1056TIP3    H224584   4.415   1.047   4.845 -0.9236  1.7265  0.8716
 1057TIP3   OH224585   2.108   1.988   1.125  0.7785 -0.1507 -0.9202
 1057TIP3    H124586   2.182   2.004   1.183  1.0464 -0.8122 -1.0686
 1057TIP3    H224587   2.142   2.003   1.037  0.1627  1.6452 -0.8973
 1058TIP3   OH224588   1.610   0.298  10.590 -0.7393 -0.5728 -0.1982
 1058TIP3    H124589   1.552   0.227  10.564 -1.4989  0.0329 -0.1813
 1058TIP3    H224590   1.558   0.378  10.578  0.2607  0.0274 -0.6778
 1059TIP3   OH224591   5.717   3.423  16.955  0.0988 -0.0847 -0.2000
 1059TIP3    H124592   5.746   3.415  16.864  0.8128  0.7910 -0.0723
 1059TIP3    H224593   5.625   3.449  16.949 -0.4713 -2.0257 -0.6274
 1060TIP3   OH224594   0.824   6.500   2.891  0.6500 -0.7425 -0.9616
 1060TIP3    H124595   0.781   6.586   2.899 -0.1849 -1.1626 -0.8397
 1060TIP3    H224596   0.884   6.510   2.817  0.0165 -0.2695 -1.4208
 1061TIP3   OH224597   1.153   4.678  15.156  0.0929  0.2045  0.4385
 1061TIP3    H124598   1.207   4.647  15.084  0.6780 -1.7513  1.6171
 1061TIP3    H224599   1.166   4.772  15.158  1.8096  0.0277 -0.6176
 1062TIP3   OH224600   6.050   2.950  14.722 -0.5600 -0.3670  0.5078
 1062TIP3    H124601   6.076   3.034  14.683 -2.0767  0.0603  0.3701
 1062TIP3    H224602   6.073   2.885  14.654 -0.5940  0.0709  0.0694
 1063TIP3   OH224603   5.480   6.666  16.935  1.3273  0.3185 -0.2658
 1063TIP3    H124604   5.461   6.757  16.912  0.6506  0.1933 -0.2371
 1063TIP3    H224605   5.571   6.666  16.964  0.8393  1.3032  1.3664
 1064TIP3   OH224606   6.801   0.597   2.455 -0.2314 -0.2613 -0.1715
 1064TIP3    H124607   6.816   0.691   2.444  0.8669 -0.1905  1.6126
 1064TIP3    H224608   6.886   0.557   2.436  0.1192 -0.6068  1.9552
 1065TIP3   OH224609   3.969   4.362   5.479  0.5480 -0.3849  0.1371
 1065TIP3    H124610   3.895   4.371   5.540  0.4033  0.0628 -0.0957
 1065TIP3    H224611   3.973   4.269   5.460 -1.9375 -0.1388 -2.2408
 1066TIP3   OH224612   2.189   5.829  11.403  0.1716  0.2993 -0.5926
 1066TIP3    H124613   2.193   5.818  11.308 -0.6100  1.5882 -0.7983
 1066TIP3    H224614   2.096   5.833  11.423  0.2836  3.4088 -0.2461
 1067TIP3   OH224615   2.718   3.640  17.059 -0.4299 -0.3059  0.1691
 1067TIP3    H124616   2.650   3.672  17.000 -0.3397 -0.1487  0.1504
 1067TIP3    H224617   2.751   3.718  17.104 -0.3178 -0.3903  0.2369
 1068TIP3   OH224618   1.641   4.666  16.360 -0.1420 -0.3909  0.0416
 1068TIP3    H124619   1.636   4.654  16.454 -1.9380  0.3611  0.1017
 1068TIP3    H224620   1.549   4.677  16.333  0.4802  2.5977 -1.3129
 1069TIP3   OH224621   4.010   1.812   2.404  0.3228 -0.1814  0.2780
 1069TIP3    H124622   3.979   1.863   2.479 -0.2453  0.1872 -0.1921
 1069TIP3    H224623   3.961   1.847   2.330 -0.0222 -1.3794 -0.0765
 1070TIP3   OH224624   2.533   2.378   4.875 -0.5090 -0.0387  0.0182
 1070TIP3    H124625   2.483   2.357   4.953 -1.4602  0.1507 -0.5259
 1070TIP3    H224626   2.563   2.293   4.841 -0.4829 -0.1522  0.3245
 1071TIP3   OH224627   3.340   4.072  11.167  0.3915  0.3239  0.4802
 1071TIP3    H124628   3.435   4.084  11.158  0.3261  0.8892  0.4838
 1071TIP3    H224629   3.310   4.056  11.078 -0.0640  4.4894 -0.3267
 1072TIP3   OH224630   4.608   1.007  13.485  0.0920  0.4756 -0.2421
 1072TIP3    H124631   4.643   1.061  13.555 -0.6645 -1.6899  1.9613
 1072TIP3    H224632   4.593   1.068  13.413  3.2427  2.3835  0.5377
 1073TIP3   OH224633   6.075   0.167   3.649 -0.7796 -0.6147 -0.4732
 1073TIP3    H124634   6.017   0.190   3.721 -1.2906 -0.4836 -0.9118
 1073TIP3    H224635   6.016   0.139   3.579 -0.4821  1.3848 -1.6154
 1074TIP3   OH224636   5.594   1.339  16.008  0.2675  0.0025  0.0414
 1074TIP3    H124637   5.600   1.341  15.912  2.5358 -2.1486  0.0519
 1074TIP3    H224638   5.662   1.278  16.035  0.7487  1.7656  3.1694
 1075TIP3   OH224639   2.477   6.161  15.062  0.1638 -0.6400  0.2287
 1075TIP3    H124640   2.525   6.153  15.145  0.5635  0.1111  0.0746
 1075TIP3    H224641   2.523   6.229  15.014 -0.6980 -0.3310 -0.1833
 1076TIP3   OH224642   3.410   3.779  13.934 -0.2097 -0.0372 -0.5739
 1076TIP3    H124643   3.388   3.800  14.025 -0.3193 -2.2075 -0.0372
 1076TIP3    H224644   3.498   3.813  13.922 -0.4042  0.7627  0.1575
 1077TIP3   OH224645   4.943   5.577  11.050 -0.3386 -0.3918 -0.2077
 1077TIP3    H124646   4.860   5.531  11.035 -0.3974 -0.0875 -0.8730
 1077TIP3    H224647   4.981   5.587  10.963  0.4457 -0.6014  0.1027
 1078TIP3   OH224648   6.254   4.772  12.310  0.1222  0.0367  0.2222
 1078TIP3    H124649   6.287   4.687  12.338  0.3056 -0.3983 -1.2731
 1078TIP3    H224650   6.321   4.835  12.337  0.6075 -0.4499  0.1451
 1079TIP3   OH224651   0.429   1.618  16.075  0.2094  0.3031 -0.2640
 1079TIP3    H124652   0.450   1.576  15.992 -3.4524 -0.6023 -0.8936
 1079TIP3    H224653   0.460   1.556  16.142  1.0145 -0.1031 -0.9932
 1080TIP3   OH224654   1.513   4.549  14.707 -0.5233  0.0262 -0.4080
 1080TIP3    H124655   1.571   4.496  14.760 -1.3199 -1.0396 -0.5531
 1080TIP3    H224656   1.489   4.492  14.633  0.1588  1.2859 -1.6515
 1081TIP3   OH224657   6.535   4.030   4.823 -0.4298  0.4121 -0.1738
 1081TIP3    H124658   6.528   4.092   4.751 -0.0199  2.1977  1.2379
 1081TIP3    H224659   6.528   3.944   4.782 -2.6284  1.3819 -2.0483
 1082TIP3   OH224660   3.098   6.696  13.883 -0.0931 -0.5343  0.4932
 1082TIP3    H124661   3.110   6.743  13.966  1.4082  1.0450 -0.5367
 1082TIP3    H224662   3.162   6.625  13.887 -0.2865 -0.6955  0.8242
 1083TIP3   OH224663   4.340   6.760   0.118 -0.3747 -0.2488  0.3199
 1083TIP3    H124664   4.383   6.675   0.132  0.5310  0.2602  0.7079
 1083TIP3    H224665   4.282   6.745   0.044 -1.0058 -1.4830  1.0307
 1084TIP3   OH224666   6.679   3.306  11.983  0.4621 -0.1140  0.2303
 1084TIP3    H124667   6.664   3.396  11.953 -0.4312  0.0522  1.1319
 1084TIP3    H224668   6.611   3.255  11.938 -0.7521  0.1037  1.7374
 1085TIP3   OH224669   2.141   1.949   6.438 -0.3106 -0.3846  0.0485
 1085TIP3    H124670   2.182   1.885   6.496  1.0041 -1.0012 -1.4863
 1085TIP3    H224671   2.164   2.034   6.476 -0.3955 -0.7817  1.0102
 1086TIP3   OH224672   1.372   5.468  13.673 -0.2477 -0.1061  0.1161
 1086TIP3    H124673   1.313   5.513  13.733  0.4558  1.3196 -0.2133
 1086TIP3    H224674   1.387   5.383  13.713 -1.2574  0.1104  0.9980
 1087TIP3   OH224675   2.332   6.447  16.068  0.2864  0.0696 -0.6674
 1087TIP3    H124676   2.256   6.505  16.061 -0.3699 -0.8904 -1.9701
 1087TIP3    H224677   2.336   6.402  15.983  2.0077 -0.2830 -0.4461
 1088TIP3   OH224678   1.071   5.422  15.075  0.0916 -0.3961 -0.3043
 1088TIP3    H124679   1.016   5.361  15.027  0.9306 -1.3172 -0.1388
 1088TIP3    H224680   1.160   5.390  15.060  0.6049  1.1039 -0.6473
 1089TIP3   OH224681   3.920   3.089   0.193  0.2220 -0.0558 -0.2988
 1089TIP3    H124682   3.889   3.091   0.284  2.1440  2.0990  0.3864
 1089TIP3    H224683   3.990   3.024   0.193  0.6620  0.4132 -0.0659
 1090TIP3   OH224684   2.945   3.651  16.074 -0.2826  0.3777  0.2304
 1090TIP3    H124685   2.883   3.595  16.027 -0.0801  2.4878 -2.8230
 1090TIP3    H224686   3.026   3.644  16.025 -0.2918  3.3644 -0.4156
 1091TIP3   OH224687   1.095   1.045  10.756  0.0240 -0.0616  0.5091
 1091TIP3    H124688   1.160   0.988  10.717 -0.1901 -0.8795  1.3099
 1091TIP3    H224689   1.014   0.994  10.754 -0.5252  0.8176 -0.1841
 1092TIP3   OH224690   5.851   2.652   5.224 -0.0448 -0.4973  0.1549
 1092TIP3    H124691   5.845   2.683   5.134  0.5560 -1.0810 -0.0918
 1092TIP3    H224692   5.938   2.678   5.253 -0.0819 -0.6709  0.4305
 1093TIP3   OH224693   5.188   2.208  11.013  0.4960 -0.9050  0.0362
 1093TIP3    H124694   5.185   2.272  11.084  2.2682 -1.1323  0.3747
 1093TIP3    H224695   5.152   2.253  10.937  0.1371 -0.0898  0.6842
 1094TIP3   OH224696   6.657   2.906   0.806  0.3788 -0.4316 -0.6529
 1094TIP3    H124697   6.581   2.958   0.781  0.5837  0.4248  0.4193
 1094TIP3    H224698   6.731   2.966   0.800  0.7346 -0.8100 -0.1588
 1095TIP3   OH224699   1.163   4.963   4.660 -0.3745 -0.3116 -0.0935
 1095TIP3    H124700   1.080   4.916   4.651 -1.3313  1.1006  1.0196
 1095TIP3    H224701   1.219   4.924   4.592 -2.0378 -1.0601 -1.1159
 1096TIP3   OH224702   6.430   4.856   1.053 -0.2262  0.3001 -0.2334
 1096TIP3    H124703   6.423   4.766   1.087 -1.7451  0.4019 -0.2219
 1096TIP3    H224704   6.471   4.845   0.967 -2.3542 -0.7054 -1.2201
 1097TIP3   OH224705   3.711   1.496   1.168  0.3843  0.4897  0.0954
 1097TIP3    H124706   3.779   1.562   1.160  0.5383  0.5464  1.6789
 1097TIP3    H224707   3.666   1.518   1.250 -1.3149  0.2444 -0.7274
 1098TIP3   OH224708   5.902   0.702  11.314  0.5346 -0.6806  0.0424
 1098TIP3    H124709   5.808   0.690  11.304 -0.2439  3.7866 -0.0032
 1098TIP3    H224710   5.919   0.687  11.407 -0.1372 -1.7254  0.0138
 1099TIP3   OH224711   1.051   6.302   3.508 -0.4067 -0.1445  0.1556
 1099TIP3    H124712   0.996   6.269   3.578  1.4007  0.2798  1.8638
 1099TIP3    H224713   1.131   6.249   3.514  0.3484  0.8653 -0.6449
 1100TIP3   OH224714   0.037   5.755   5.082  0.1933  0.1840 -0.1379
 1100TIP3    H124715  -0.000   5.803   5.156  1.3086 -0.4941  0.9127
 1100TIP3    H224716   0.115   5.713   5.118  0.8365 -0.0747 -1.7443
 1101TIP3   OH224717   1.400   1.076  15.520  0.2408  0.1026 -0.1437
 1101TIP3    H124718   1.449   1.158  15.519 -0.3485  0.5235  1.6168
 1101TIP3    H224719   1.435   1.026  15.446  0.9127  1.7483 -0.9951
 1102TIP3   OH224720   6.435   3.667   1.604 -0.1017  0.2207  0.1777
 1102TIP3    H124721   6.423   3.580   1.642  0.9372  1.2258  3.0738
 1102TIP3    H224722   6.360   3.718   1.636 -0.0863  0.7066 -0.5322
 1103TIP3   OH224723   0.864   6.046   5.442  0.1571 -0.0988 -0.0510
 1103TIP3    H124724   0.875   6.048   5.537 -2.2403 -0.8163  0.3171
 1103TIP3    H224725   0.814   5.966   5.425  1.1722 -0.3979 -2.0381
 1104TIP3   OH224726   5.735   6.223   6.530  0.7219  0.0472  0.1790
 1104TIP3    H124727   5.773   6.258   6.610  0.2345 -0.9495  0.8713
 1104TIP3    H224728   5.752   6.128   6.536  3.3970  0.2101 -2.3388
 1105TIP3   OH224729   3.821   5.640   0.996 -0.6140  0.7391  0.2008
 1105TIP3    H124730   3.879   5.708   0.960  0.4842 -0.2162  0.0977
 1105TIP3    H224731   3.866   5.609   1.074 -1.6853  0.9304  0.9084
 1106TIP3   OH224732   0.436   6.508   4.702  0.3798 -0.0948 -0.1195
 1106TIP3    H124733   0.401   6.423   4.729  0.8971  0.0211  0.9695
 1106TIP3    H224734   0.358   6.563   4.690  0.1105 -0.2875  0.6970
 1107TIP3   OH224735   1.455   2.151   0.995 -0.2317  0.6117 -1.0602
 1107TIP3    H124736   1.519   2.083   1.016 -1.5680 -0.8121 -1.3703
 1107TIP3    H224737   1.378   2.102   0.964 -1.7396  2.1854  0.0006
 1108TIP3   OH224738   3.953   2.511   0.975  0.0922 -0.2022  0.2096
 1108TIP3    H124739   3.994   2.444   1.029  0.4501 -0.0729  0.1062
 1108TIP3    H224740   3.870   2.473   0.948 -0.1509 -0.2146  0.9565
 1109TIP3   OH224741   6.482   0.117  14.128 -0.4732 -0.1394  0.0616
 1109TIP3    H124742   6.440   0.180  14.070  2.7766  0.7979 -1.4704
 1109TIP3    H224743   6.480   0.159  14.215  0.8807  1.7914 -0.7664
 1110TIP3   OH224744   3.400   1.382  15.463 -0.3272  0.1835 -0.3803
 1110TIP3    H124745   3.318   1.403  15.418 -0.2702 -1.2650 -1.2061
 1110TIP3    H224746   3.373   1.342  15.545 -0.4251  0.9237 -0.0376
 1111TIP3   OH224747   4.666   2.440  14.437  0.4808 -0.3754  0.3764
 1111TIP3    H124748   4.702   2.528  14.444 -2.1229  0.9140 -0.9705
 1111TIP3    H224749   4.597   2.436  14.504 -1.3248 -0.2784 -1.3656
 1112TIP3   OH224750   0.213   4.704  14.552  0.3833 -0.2633 -0.3715
 1112TIP3    H124751   0.177   4.707  14.641  1.5889 -1.2409  0.1829
 1112TIP3    H224752   0.192   4.789  14.515 -0.5851 -0.0190  0.6713
 1113TIP3   OH224753   0.564   3.156  16.247 -0.6228 -0.2295 -0.1321
 1113TIP3    H124754   0.527   3.187  16.330  0.9485 -1.4545  1.0895
 1113TIP3    H224755   0.517   3.075  16.228  0.0334 -0.7370  0.3700
 1114TIP3   OH224756   0.464   0.358  16.857 -0.2800 -0.2412 -0.0601
 1114TIP3    H124757   0.527   0.291  16.832 -1.4593 -0.9864 -1.1604
 1114TIP3    H224758   0.420   0.321  16.934  0.0979 -0.0487  0.2531
 1115TIP3   OH224759   1.315   2.252  11.996  0.2207  0.6753 -0.3221
 1115TIP3    H124760   1.410   2.262  11.982  0.6843 -1.0266  1.2229
 1115TIP3    H224761   1.297   2.161  11.972 -0.3479 -0.0197  2.4014
 1116TIP3   OH224762   4.498   3.369   3.873 -0.7033  0.1403  0.0135
 1116TIP3    H124763   4.423   3.429   3.866 -1.2002 -0.6542 -2.9371
 1116TIP3    H224764   4.573   3.422   3.847 -0.5934  0.3181  0.6712
 1117TIP3   OH224765   5.159   3.897   4.507 -0.4154 -0.7982  0.7348
 1117TIP3    H124766   5.198   3.810   4.518  1.4848 -0.0951 -0.0684
 1117TIP3    H224767   5.066   3.884   4.527 -0.4709 -3.3294 -0.7940
 1118TIP3   OH224768   5.009   5.288   3.590  0.1694 -0.0691  0.1422
 1118TIP3    H124769   4.961   5.370   3.599  1.0534  0.7038 -1.6767
 1118TIP3    H224770   5.002   5.265   3.497  2.2211 -0.5691  0.0414
 1119TIP3   OH224771   4.480   5.980  12.788  0.2513  0.1834  0.5756
 1119TIP3    H124772   4.514   6.038  12.856 -0.0876 -0.6849  1.5232
 1119TIP3    H224773   4.542   5.988  12.716  2.0151 -0.6940  1.9170
 1120TIP3   OH224774   6.515   1.327   3.776 -0.1424 -0.1246  0.3952
 1120TIP3    H124775   6.431   1.359   3.743  0.1335  0.7337  0.5153
 1120TIP3    H224776   6.545   1.395   3.835 -0.1956 -1.2264  1.7578
 1121TIP3   OH224777   1.696   4.126   5.107  0.2963  0.1382  0.5729
 1121TIP3    H124778   1.714   4.045   5.153  1.7071  1.6502  2.8998
 1121TIP3    H224779   1.777   4.146   5.061  0.5097  0.9921  1.2989
 1122TIP3   OH224780   0.982   0.723  16.815 -0.6474  0.1265  0.2893
 1122TIP3    H124781   0.979   0.643  16.868 -0.4871  0.8345  1.3899
 1122TIP3    H224782   1.021   0.695  16.732 -0.7658 -0.9746  0.5865
 1123TIP3   OH224783   3.989   0.370   4.257 -0.1463  0.0972 -0.1606
 1123TIP3    H124784   3.917   0.361   4.194  0.5422  0.3880 -1.0238
 1123TIP3    H224785   4.036   0.449   4.228 -1.0730  1.5612  2.0403
 1124TIP3   OH224786   2.284   2.515   1.428 -0.1673  0.0752  0.0292
 1124TIP3    H124787   2.294   2.498   1.521  1.4392 -1.0709 -0.3209
 1124TIP3    H224788   2.192   2.497   1.410 -1.3774  3.4357  1.9418
 1125TIP3   OH224789   4.419   0.771   1.729  0.0160  0.0635 -0.8155
 1125TIP3    H124790   4.475   0.847   1.744 -1.4698  0.9427  0.6027
 1125TIP3    H224791   4.373   0.791   1.648  1.6390 -0.6432 -1.9640
 1126TIP3   OH224792   6.801   0.732  11.738 -0.2074 -0.6541 -0.2295
 1126TIP3    H124793   6.832   0.774  11.818 -0.3210  2.8454 -1.8432
 1126TIP3    H224794   6.740   0.665  11.768 -0.4815  0.7130  2.5926
 1127TIP3   OH224795   0.994   2.750   2.742  0.3608 -0.1537  0.0569
 1127TIP3    H124796   0.989   2.755   2.646 -0.0248  1.8518  0.1275
 1127TIP3    H224797   0.966   2.837   2.771  0.3242 -0.7837  2.0060
 1128TIP3   OH224798   0.088   4.927  14.416 -0.2843  0.0000 -0.3191
 1128TIP3    H124799   0.094   4.941  14.321  1.6415  1.1647 -0.0971
 1128TIP3    H224800   0.086   5.015  14.453 -0.0618 -0.4315  0.7664
 1129TIP3   OH224801   4.294   1.127  15.505  0.3307  0.9556 -0.2966
 1129TIP3    H124802   4.244   1.186  15.562  0.9621  1.0881  0.1253
 1129TIP3    H224803   4.381   1.122  15.545 -0.0243 -1.1972  0.3515
 1130TIP3   OH224804   4.530   0.166   6.048 -0.7079  0.3954  0.5707
 1130TIP3    H124805   4.465   0.235   6.039 -0.9216  0.1832  0.4985
 1130TIP3    H224806   4.480   0.085   6.052 -0.3791  0.0834 -1.0504
 1131TIP3   OH224807   3.524   4.793   2.974  0.1357  0.6176 -0.3341
 1131TIP3    H124808   3.454   4.858   2.983 -0.8561 -0.4756  0.0820
 1131TIP3    H224809   3.486   4.724   2.919  0.9020  0.0366 -0.1522
 1132TIP3   OH224810   1.068   6.391  14.143 -0.2260  0.2247 -0.5199
 1132TIP3    H124811   1.050   6.297  14.135  0.0387  0.1545 -0.3033
 1132TIP3    H224812   0.986   6.429  14.174  0.4172 -0.3137  2.1096
 1133TIP3   OH224813   4.257   5.366  14.887 -0.3850 -0.5137  0.3252
 1133TIP3    H124814   4.169   5.403  14.896 -0.2950 -0.6565  2.2330
 1133TIP3    H224815   4.245   5.290  14.830 -1.4458 -0.3570  0.3141
 1134TIP3   OH224816   3.321   4.792   5.236  0.4364  0.0851  0.1786
 1134TIP3    H124817   3.276   4.840   5.167  0.6020 -0.8756 -0.6079
 1134TIP3    H224818   3.280   4.823   5.317 -0.1906  0.7571 -0.3824
 1135TIP3   OH224819   5.926   6.405   6.655 -0.1360 -0.5883  0.0610
 1135TIP3    H124820   5.968   6.412   6.569  1.5825  0.1114  0.8980
 1135TIP3    H224821   5.848   6.459   6.648 -1.7235 -2.9199 -1.9530
 1136TIP3   OH224822   5.132   2.679   3.900  0.5291  0.4697 -0.1350
 1136TIP3    H124823   5.200   2.696   3.964  0.1451  1.9098 -0.0695
 1136TIP3    H224824   5.150   2.740   3.829 -1.9868  2.6648  0.9255
 1137TIP3   OH224825   4.764   4.961  11.922 -0.2929  0.1073 -0.2453
 1137TIP3    H124826   4.836   5.003  11.969 -0.4893 -0.9136  1.0286
 1137TIP3    H224827   4.807   4.913  11.850  0.0255  1.5407 -1.0499
 1138TIP3   OH224828   6.476   1.605   5.209  0.6649 -0.2837 -0.1743
 1138TIP3    H124829   6.466   1.690   5.251  0.3294 -0.0856 -0.6505
 1138TIP3    H224830   6.564   1.607   5.172  1.5472 -1.0178  1.7423
 1139TIP3   OH224831   4.511   2.810   5.654 -0.2335 -0.1672  0.0648
 1139TIP3    H124832   4.597   2.829   5.619 -0.2209 -1.1046 -0.4355
 1139TIP3    H224833   4.493   2.882   5.715  0.6857  0.2859 -0.1922
 1140TIP3   OH224834   3.840   3.797   4.999  0.0871 -0.0852 -0.0059
 1140TIP3    H124835   3.818   3.875   4.948  0.2764 -0.5592 -0.8312
 1140TIP3    H224836   3.773   3.733   4.974  0.0744 -0.2699  0.4876
 1141TIP3   OH224837   2.011   0.126   0.444 -0.5098  0.2294  0.4403
 1141TIP3    H124838   1.921   0.142   0.417 -0.7167  0.3878  1.1826
 1141TIP3    H224839   2.056   0.208   0.428  0.4068 -0.8426 -3.2612
 1142TIP3   OH224840   3.009   5.926  14.386  0.4111 -0.5740 -0.4550
 1142TIP3    H124841   3.099   5.893  14.380 -0.1759 -2.0681 -2.0809
 1142TIP3    H224842   3.009   5.984  14.461  2.9904  0.2872 -1.0365
 1143TIP3   OH224843   0.043   5.443   1.915  0.0431 -0.4751 -0.3842
 1143TIP3    H124844   0.022   5.385   1.988 -2.1622  0.5633 -0.1285
 1143TIP3    H224845   0.076   5.523   1.956 -3.0676  0.8924 -0.2751
 1144TIP3   OH224846   6.253   5.208   4.481 -0.1274  0.1751  0.6375
 1144TIP3    H124847   6.205   5.133   4.517 -1.9732  0.8192 -0.3044
 1144TIP3    H224848   6.296   5.173   4.403 -0.4129 -0.0700  0.5856
 1145TIP3   OH224849   6.516   4.730   1.724  0.3234  0.1673  0.7182
 1145TIP3    H124850   6.592   4.674   1.744 -0.2066 -0.8377 -0.0051
 1145TIP3    H224851   6.502   4.719   1.630 -0.4764  0.6628  0.7689
 1146TIP3   OH224852   4.829   5.957   2.322 -0.2076  0.0414 -0.0502
 1146TIP3    H124853   4.758   5.997   2.272  0.8029  0.1669 -1.4543
 1146TIP3    H224854   4.876   6.030   2.362 -0.2385  0.0372 -0.0063
 1147TIP3   OH224855   2.577   4.565   2.176  0.1582 -0.0749 -0.1198
 1147TIP3    H124856   2.655   4.518   2.148  0.8613  1.5614 -1.0944
 1147TIP3    H224857   2.541   4.513   2.249  2.1308 -0.8715  0.3339
 1148TIP3   OH224858   1.166   3.434   5.389 -0.4791  0.9460  0.2823
 1148TIP3    H124859   1.234   3.382   5.433  1.1290  2.1898 -0.5926
 1148TIP3    H224860   1.084   3.394   5.416  0.5747 -0.4002  1.7132
 1149TIP3   OH224861   5.155   4.337   5.541 -0.1656  0.7979  0.0643
 1149TIP3    H124862   5.248   4.353   5.522 -0.2820  0.8695 -0.4499
 1149TIP3    H224863   5.156   4.295   5.627  0.2474  2.2054  0.7856
 1150TIP3   OH224864   5.989   4.282  14.902 -0.0379 -0.0247 -0.0184
 1150TIP3    H124865   6.031   4.320  14.980  0.6601 -0.9514  0.0827
 1150TIP3    H224866   5.971   4.191  14.927 -1.9344  0.2839 -0.1457
 1151TIP3   OH224867   6.391   3.605  12.152  0.1102  0.2170  0.4137
 1151TIP3    H124868   6.336   3.682  12.140  1.2822  0.7524 -1.9623
 1151TIP3    H224869   6.480   3.637  12.141  0.6930 -1.2590  0.6417
 1152TIP3   OH224870   4.112   4.814  15.881  0.4391  0.6912  0.0083
 1152TIP3    H124871   4.042   4.864  15.924  0.4515 -1.0047  2.2021
 1152TIP3    H224872   4.123   4.737  15.936  2.0952 -0.5193 -1.8852
 1153TIP3   OH224873   3.024   5.002  15.835 -0.2236  0.4449  0.1432
 1153TIP3    H124874   3.057   4.928  15.887 -1.0522  0.9250  1.4013
 1153TIP3    H224875   2.928   4.992  15.838 -0.3043 -0.0785 -2.1646
 1154TIP3   OH224876   6.143   5.877   3.798 -0.4783 -0.3565  0.5510
 1154TIP3    H124877   6.169   5.960   3.838  0.5012 -1.3305  2.0649
 1154TIP3    H224878   6.090   5.834   3.864  0.6213 -1.7348  0.5875
 1155TIP3   OH224879   6.374   3.769   6.213  0.1507  0.9688  0.0173
 1155TIP3    H124880   6.309   3.717   6.164 -0.9470  1.0886  1.3027
 1155TIP3    H224881   6.458   3.730   6.188 -0.5747 -0.9603  0.3516
 1156TIP3   OH224882   4.731   3.053   0.094  0.2860  0.0170  0.2382
 1156TIP3    H124883   4.660   3.052   0.158  2.5127 -0.2115  2.8599
 1156TIP3    H224884   4.761   2.962   0.090  0.9073  0.2391 -0.3090
 1157TIP3   OH224885   3.560   5.180   5.806 -0.3086 -0.5275  0.2836
 1157TIP3    H124886   3.556   5.271   5.836  0.3507 -0.1383 -0.7265
 1157TIP3    H224887   3.472   5.162   5.772  0.0345  0.3734 -1.1873
 1158TIP3   OH224888   6.588   3.538  11.836 -0.0302 -0.6613  0.0705
 1158TIP3    H124889   6.504   3.581  11.820 -0.0766  0.0331  1.9406
 1158TIP3    H224890   6.600   3.479  11.761 -0.4468  1.8394 -2.1282
 1159TIP3   OH224891   1.645   2.959   3.798 -0.0058 -0.1886 -0.3767
 1159TIP3    H124892   1.648   3.053   3.782 -1.7454  0.2564  1.5279
 1159TIP3    H224893   1.650   2.950   3.893  0.2374 -2.0421 -0.5220
 1160TIP3   OH224894   6.579   1.697   4.431 -0.2126  0.0536  0.2423
 1160TIP3    H124895   6.508   1.634   4.442  0.2249 -0.4890 -0.0460
 1160TIP3    H224896   6.647   1.650   4.383  0.2476  0.6439  0.2998
 1161TIP3   OH224897   1.235   2.733  14.434 -0.3638 -0.4739  0.1407
 1161TIP3    H124898   1.219   2.712  14.526 -1.5743 -0.9041 -0.1491
 1161TIP3    H224899   1.161   2.788  14.409  0.7332  0.8997 -0.1866
 1162TIP3   OH224900   0.930   1.829   6.575  0.0743 -0.0264  0.4965
 1162TIP3    H124901   1.011   1.786   6.603 -0.3758 -0.1718  1.6096
 1162TIP3    H224902   0.922   1.905   6.632 -0.0102  0.6283 -0.3605
 1163TIP3   OH224903   0.712   5.600   2.506  0.1412 -0.0549 -0.2535
 1163TIP3    H124904   0.761   5.606   2.424  1.5974  0.9191  0.6327
 1163TIP3    H224905   0.762   5.654   2.568 -0.5260 -1.2838  1.4547
 1164TIP3   OH224906   1.745   5.182  11.787 -0.8328  0.0377  0.2942
 1164TIP3    H124907   1.790   5.100  11.807  0.4314  1.0188  1.5993
 1164TIP3    H224908   1.713   5.170  11.697  1.3211 -1.0239 -0.3974
 1165TIP3   OH224909   4.177   3.953   2.467  0.3332 -0.1385 -0.0678
 1165TIP3    H124910   4.166   3.861   2.443 -1.1357 -0.1750  0.6019
 1165TIP3    H224911   4.131   4.001   2.398  0.8778  0.0784 -0.2811
 1166TIP3   OH224912   0.416   5.354   5.738  0.7316 -0.3828  1.1603
 1166TIP3    H124913   0.470   5.275   5.742  0.3178 -0.7192  0.2830
 1166TIP3    H224914   0.340   5.328   5.685 -0.9890 -0.3334  3.4485
 1167TIP3   OH224915   0.308   2.192   4.312  0.2345 -0.5729  0.1512
 1167TIP3    H124916   0.213   2.207   4.306  0.1202 -0.8895  1.0239
 1167TIP3    H224917   0.339   2.202   4.222 -0.7595 -1.3202 -0.2962
 1168TIP3   OH224918   6.634   0.491   2.890 -0.1112  0.4577  0.4086
 1168TIP3    H124919   6.656   0.441   2.812  0.3058  1.1204  0.0876
 1168TIP3    H224920   6.561   0.444   2.930  0.5345 -0.6355  0.3486
 1169TIP3   OH224921   6.658   1.883   5.633  0.6820 -0.3392  0.2503
 1169TIP3    H124922   6.635   1.950   5.568  0.0728  0.2706  1.0608
 1169TIP3    H224923   6.710   1.931   5.698 -1.7861  0.0024  2.1275
 1170TIP3   OH224924   6.067   6.404  14.005  0.0443  0.4303 -0.1965
 1170TIP3    H124925   5.989   6.365  14.044 -0.2384  0.5641 -0.6154
 1170TIP3    H224926   6.085   6.482  14.059 -0.4126  0.6794 -0.3982
 1171TIP3   OH224927   1.460   0.898   2.343 -0.6108 -0.0376 -0.4850
 1171TIP3    H124928   1.523   0.829   2.365 -1.6049 -0.5478  0.9753
 1171TIP3    H224929   1.447   0.889   2.249  1.1278 -0.2179 -0.7360
 1172TIP3   OH224930   5.100   5.245  15.747 -0.4261 -0.2126  0.6413
 1172TIP3    H124931   5.037   5.260  15.676 -0.5759 -2.7154  0.1618
 1172TIP3    H224932   5.115   5.151  15.746  2.1738  0.1130  1.7703
 1173TIP3   OH224933   3.929   5.989  14.277 -0.5065 -0.5428 -0.3033
 1173TIP3    H124934   3.870   5.944  14.216  0.2484 -0.6557 -0.9653
 1173TIP3    H224935   3.984   5.919  14.313  0.4744 -0.2066 -1.1119
 1174TIP3   OH224936   1.006   4.320  14.977  0.5338 -0.0648 -0.4611
 1174TIP3    H124937   0.929   4.327  14.920 -0.4272 -3.6656  0.1134
 1174TIP3    H224938   0.981   4.367  15.056  0.4352  1.8748 -1.5892
 1175TIP3   OH224939   5.944   5.550  10.896  0.3947 -0.3493  0.6780
 1175TIP3    H124940   6.001   5.560  10.973  1.3237  0.2296 -0.0612
 1175TIP3    H224941   5.956   5.632  10.847 -2.0389  0.3292  1.1121
 1176TIP3   OH224942   4.271   4.653  12.884 -0.2200 -0.2766 -0.7597
 1176TIP3    H124943   4.237   4.741  12.866  0.5830  0.2251  0.0959
 1176TIP3    H224944   4.256   4.640  12.978  1.4554 -0.2268 -0.4436
 1177TIP3   OH224945   4.562   5.123  11.015 -0.1850 -0.6617  0.4642
 1177TIP3    H124946   4.555   5.174  10.934 -0.6640 -1.8243 -0.2602
 1177TIP3    H224947   4.563   5.188  11.085  1.0647  0.4235 -0.5057
 1178TIP3   OH224948   4.329   0.500   4.153  0.2208 -0.0816  0.0455
 1178TIP3    H124949   4.264   0.493   4.084 -2.5778 -2.8061  2.6839
 1178TIP3    H224950   4.387   0.425   4.139  1.6855  1.1734 -1.0657
 1179TIP3   OH224951   4.225   1.428  11.355  0.4317 -0.5002 -0.2548
 1179TIP3    H124952   4.204   1.371  11.282  0.5122 -0.2215 -0.4964
 1179TIP3    H224953   4.177   1.390  11.429 -2.2914  0.9900 -1.0940
 1180TIP3   OH224954   2.428   6.558  12.722  0.1837 -0.1876 -0.8313
 1180TIP3    H124955   2.364   6.509  12.670  0.0610 -0.4534 -0.4362
 1180TIP3    H224956   2.494   6.586  12.659  1.4340 -2.7095 -0.7919
 1181TIP3   OH224957   2.208   2.300  15.262 -0.1727  0.3088  0.0102
 1181TIP3    H124958   2.278   2.242  15.232  0.2484  0.4287  0.7443
 1181TIP3    H224959   2.250   2.356  15.327 -0.4229  1.8581 -1.1160
 1182TIP3   OH224960   5.896   4.750  14.888 -0.2217 -0.8593  0.0334
 1182TIP3    H124961   5.954   4.826  14.880 -2.4904  1.3671  2.5771
 1182TIP3    H224962   5.945   4.689  14.942  1.2916 -0.8801 -1.2824
 1183TIP3   OH224963   3.958   4.684  14.944 -0.3283 -0.4885  0.0409
 1183TIP3    H124964   3.865   4.689  14.921 -0.1888 -0.5832 -0.5630
 1183TIP3    H224965   4.000   4.750  14.889 -0.2088  0.4832  1.2692
 1184TIP3   OH224966   2.894   1.278  13.590  0.1015  0.1131 -0.4335
 1184TIP3    H124967   2.951   1.238  13.655  0.6729  2.2584  0.4590
 1184TIP3    H224968   2.815   1.301  13.639 -0.2226  0.0804 -0.9317
 1185TIP3   OH224969   4.610   4.286   1.077 -0.1339  0.0641  0.6595
 1185TIP3    H124970   4.516   4.293   1.090 -0.3711 -0.0468 -0.7834
 1185TIP3    H224971   4.636   4.211   1.130 -0.7409  0.4822  1.5709
 1186TIP3   OH224972   6.707   1.818   1.141 -0.4320 -0.4110 -0.2329
 1186TIP3    H124973   6.679   1.751   1.079 -0.7489  0.6399 -1.2583
 1186TIP3    H224974   6.706   1.775   1.226  1.5633 -2.3856 -1.1149
 1187TIP3   OH224975   2.274   2.593  16.079  0.2242  0.1420 -0.7049
 1187TIP3    H124976   2.305   2.521  16.133  0.1492  0.2083 -0.5746
 1187TIP3    H224977   2.192   2.619  16.118  0.7537  0.9860 -0.1348
 1188TIP3   OH224978   1.102   0.614  14.707 -0.0049  0.1866  0.4048
 1188TIP3    H124979   1.117   0.530  14.663  0.9148 -0.4472  1.8521
 1188TIP3    H224980   1.052   0.591  14.785  1.7884  0.6992  1.7653
 1189TIP3   OH224981   2.882   2.306  11.185  0.7072 -0.2810 -0.1974
 1189TIP3    H124982   2.965   2.272  11.153  0.4608 -0.2921 -0.8474
 1189TIP3    H224983   2.897   2.324  11.277  2.0566  1.6330 -0.7314
 1190TIP3   OH224984   0.967   4.236   5.029 -0.0644 -0.2228 -0.3295
 1190TIP3    H124985   0.959   4.142   5.044  0.7560 -0.7093 -2.5845
 1190TIP3    H224986   0.879   4.264   5.004  0.1043 -0.8280 -1.6774
 1191TIP3   OH224987   1.221   6.671  12.713  0.0239  0.2036  0.1557
 1191TIP3    H124988   1.307   6.711  12.700 -0.0828  0.4412  0.1630
 1191TIP3    H224989   1.167   6.743  12.745 -0.8826  0.8009 -2.4429
 1192TIP3   OH224990   0.021   1.470   2.904  0.5460 -0.0128 -0.0170
 1192TIP3    H124991  -0.046   1.532   2.874  0.5662 -0.2423 -0.5545
 1192TIP3    H224992   0.006   1.462   2.998 -0.5094 -0.4341 -0.2067
 1193TIP3   OH224993   0.226   1.626  10.573  0.1990  0.7410  0.9391
 1193TIP3    H124994   0.195   1.688  10.506 -0.2192  2.1047  2.3317
 1193TIP3    H224995   0.316   1.652  10.589  0.2305  0.5532  1.0554
 1194TIP3   OH224996   2.629   3.347   1.500 -0.0010  0.0367 -0.4207
 1194TIP3    H124997   2.681   3.324   1.423 -0.7365  0.9486 -1.2050
 1194TIP3    H224998   2.552   3.392   1.465 -0.8178 -0.3666  0.7840
 1195TIP3   OH224999   1.953   3.697   3.265  0.2226  0.5921 -0.2581
 1195TIP3    H125000   1.933   3.767   3.328 -0.1943 -0.3605  0.7052
 1195TIP3    H225001   1.875   3.641   3.267  1.8665 -1.8805  1.7373
 1196TIP3   OH225002   0.156   2.400   2.833  0.2305 -0.0779  0.7108
 1196TIP3    H125003   0.114   2.424   2.915 -0.7142 -0.0245  0.2170
 1196TIP3    H225004   0.202   2.479   2.806  0.2941 -0.0016  1.0289
 1197TIP3   OH225005   1.035   1.802   4.777  0.2713 -0.1172  0.0472
 1197TIP3    H125006   1.060   1.710   4.773  1.9818  0.3601 -1.5761
 1197TIP3    H225007   1.066   1.832   4.863  2.1231 -0.4470 -0.4611
 1198TIP3   OH225008   5.554   0.748  12.141 -0.7350 -0.1418  0.3358
 1198TIP3    H125009   5.552   0.698  12.060 -2.8843  1.5375 -0.7423
 1198TIP3    H225010   5.570   0.839  12.113 -1.7871  0.5096  1.7365
 1199TIP3   OH225011   6.545   2.046  13.768 -0.1292 -0.4470  0.2243
 1199TIP3    H125012   6.610   1.975  13.768  1.4510  0.9025  1.2802
 1199TIP3    H225013   6.494   2.031  13.848  0.2790 -0.3565  0.5081
 1200TIP3   OH225014   4.468   4.020   2.384 -0.2929  0.0020 -0.0889
 1200TIP3    H125015   4.421   3.994   2.304 -0.1301  0.1949 -0.2483
 1200TIP3    H225016   4.426   4.102   2.410 -0.0694  0.1589 -0.2139
 1201TIP3   OH225017   1.357   3.495  17.125 -0.0777 -0.3286 -0.5089
 1201TIP3    H125018   1.321   3.488  17.214 -0.3524 -1.0006 -0.6668
 1201TIP3    H225019   1.285   3.469  17.068  0.4273 -0.9677 -0.8697
 1202TIP3   OH225020   4.759   0.758   1.725 -0.0698  0.6734  0.1215
 1202TIP3    H125021   4.678   0.786   1.767  0.1818  2.8948 -0.7553
 1202TIP3    H225022   4.744   0.771   1.631  1.0218  0.4045 -0.1078
 1203TIP3   OH225023   3.022   1.194   1.771 -0.2582  0.2864  0.2015
 1203TIP3    H125024   3.020   1.101   1.794 -1.0803  0.1045 -0.5611
 1203TIP3    H225025   3.019   1.239   1.855 -1.3181 -0.3712  0.5340
 1204TIP3   OH225026   0.741   1.979  17.134 -0.1901 -0.3473  0.7276
 1204TIP3    H125027   0.718   1.966  17.226 -0.0284 -0.2842  0.7779
 1204TIP3    H225028   0.657   1.980  17.088 -0.3234  0.3484  0.9682
 1205TIP3   OH225029   5.140   0.040  17.085  0.2748  0.2345  0.0702
 1205TIP3    H125030   5.100  -0.008  17.013 -0.3252  2.2775 -1.0362
 1205TIP3    H225031   5.093   0.010  17.163 -0.3909 -0.6159 -0.6421
 1206TIP3   OH225032   4.797   5.920  13.890 -0.1862  0.0993 -0.4104
 1206TIP3    H125033   4.733   5.990  13.877  0.1515  0.5267  0.1522
 1206TIP3    H225034   4.882   5.963  13.882  0.0441 -0.4931 -1.2953
 1207TIP3   OH225035   4.043   2.278   1.880  0.0810 -0.2202 -0.1451
 1207TIP3    H125036   4.035   2.216   1.808 -0.8115 -0.4541  0.1524
 1207TIP3    H225037   3.961   2.271   1.928  0.4504  0.3215  0.5903
 1208TIP3   OH225038   5.937   4.854  15.875  0.0847 -0.0699 -0.5005
 1208TIP3    H125039   5.858   4.907  15.863 -0.4092 -0.9382 -1.1749
 1208TIP3    H225040   5.937   4.793  15.802 -0.2519 -2.1182  1.1246
 1209TIP3   OH225041   4.476   1.397  11.247 -0.5371 -0.0819 -0.3805
 1209TIP3    H125042   4.394   1.411  11.294 -0.1780  1.7730 -0.2248
 1209TIP3    H225043   4.506   1.485  11.225  0.9417 -0.7686 -1.2644
 1210TIP3   OH225044   5.280   0.938  13.882  0.3219 -0.1042  0.3022
 1210TIP3    H125045   5.228   1.014  13.854  1.8693  1.4945  1.5122
 1210TIP3    H225046   5.298   0.890  13.801 -2.3948 -0.3509 -0.2285
 1211TIP3   OH225047   3.885   6.027   5.138 -0.0359  0.5035  0.3189
 1211TIP3    H125048   3.852   6.007   5.050  0.4856 -1.9989  0.6202
 1211TIP3    H225049   3.806   6.040   5.191 -0.4567 -1.0434  0.1031
 1212TIP3   OH225050   1.306   0.342  14.882  0.0761 -0.0281 -0.2918
 1212TIP3    H125051   1.321   0.248  14.871 -0.1448  0.1574 -2.7299
 1212TIP3    H225052   1.244   0.364  14.812  1.1160  2.1667 -0.5895
 1213TIP3   OH225053   6.667   1.651  11.022 -0.1607 -0.2780 -0.4622
 1213TIP3    H125054   6.693   1.730  10.976 -1.7579 -0.3921 -1.6787
 1213TIP3    H225055   6.632   1.682  11.106  4.0498 -0.1678  1.4921
 1214TIP3   OH225056   4.666   1.226  14.377  0.4443 -0.1189 -0.2931
 1214TIP3    H125057   4.611   1.238  14.455 -0.1306  1.8297 -0.9510
 1214TIP3    H225058   4.615   1.262  14.305  2.6525  2.1121 -0.8956
 1215TIP3   OH225059   2.952   5.063   1.125 -0.2094 -0.0153  0.5717
 1215TIP3    H125060   2.980   5.124   1.193  3.4995 -0.2966 -0.4863
 1215TIP3    H225061   3.011   4.988   1.133 -1.4156 -1.2575 -1.2690
 1216TIP3   OH225062   5.524   0.938   2.051 -0.0232 -0.0674 -0.0717
 1216TIP3    H125063   5.589   0.978   1.992  0.1756  0.8161  0.7132
 1216TIP3    H225064   5.566   0.941   2.137 -0.5938 -0.6884  0.2325
 1217TIP3   OH225065   4.643   5.691  12.597  0.4391 -0.3019 -0.1424
 1217TIP3    H125066   4.724   5.740  12.610  0.3686 -0.2568  0.1368
 1217TIP3    H225067   4.610   5.721  12.513  0.0763  0.6053  0.3068
 1218TIP3   OH225068   3.550   4.316  10.730 -0.4074 -0.0343  0.5730
 1218TIP3    H125069   3.530   4.409  10.718  0.7249  0.0981 -0.4022
 1218TIP3    H225070   3.634   4.314  10.774  0.0991 -0.5818 -0.3681
 1219TIP3   OH225071   3.422   2.348   2.196 -0.2417 -0.1275 -0.3418
 1219TIP3    H125072   3.504   2.329   2.240 -0.4388  1.9824  1.1041
 1219TIP3    H225073   3.359   2.362   2.267 -0.9058  1.9587 -1.2424
 1220TIP3   OH225074   6.034   3.181  13.682  0.0938 -0.5797  0.3137
 1220TIP3    H125075   6.119   3.226  13.686 -0.2705  0.5489 -2.2810
 1220TIP3    H225076   5.994   3.198  13.767  1.4196  1.0847  0.6765
 1221TIP3   OH225077   2.605   2.220  16.386 -0.4452 -0.0121 -0.7643
 1221TIP3    H125078   2.520   2.256  16.359  0.5215  1.4226 -2.0774
 1221TIP3    H225079   2.636   2.173  16.309  0.4708  0.4932 -0.7152
 1222TIP3   OH225080   4.383   3.119  16.243  0.4117 -0.0597  0.3912
 1222TIP3    H125081   4.294   3.120  16.279  1.4697  0.1645  3.2479
 1222TIP3    H225082   4.404   3.026  16.234  0.3828 -0.1429  1.1181
 1223TIP3   OH225083   0.442   5.779   2.392  0.5861  0.4720  0.2141
 1223TIP3    H125084   0.451   5.859   2.443 -0.9825 -0.0201  1.3436
 1223TIP3    H225085   0.522   5.730   2.410  1.4003  1.6103 -0.2060
 1224TIP3   OH225086   3.075   6.212  12.904  0.2776  0.7258 -0.4124
 1224TIP3    H125087   3.103   6.296  12.941 -1.8249  0.9798  0.7533
 1224TIP3    H225088   3.155   6.159  12.903  1.5897  2.6019 -0.8741
 1225TIP3   OH225089   5.796   4.210  15.247  0.4032 -0.1573  0.9293
 1225TIP3    H125090   5.720   4.222  15.304  0.7039 -0.1020  1.3122
 1225TIP3    H225091   5.776   4.264  15.170  0.4482  0.5374  1.4019
 1226TIP3   OH225092   1.927   2.847   0.679 -0.1613  0.1837  0.0216
 1226TIP3    H125093   1.968   2.901   0.747  1.6477 -0.3429 -0.6009
 1226TIP3    H225094   1.954   2.888   0.597  1.7663 -1.9381 -0.4963
 1227TIP3   OH225095   5.750   4.267  13.792 -0.1877  0.2285  0.1488
 1227TIP3    H125096   5.833   4.221  13.785 -0.7050 -0.6437 -0.6286
 1227TIP3    H225097   5.753   4.310  13.877  1.8021  1.7657 -0.6171
 1228TIP3   OH225098   2.665   0.889  16.674  0.3450 -0.0725 -0.1629
 1228TIP3    H125099   2.678   0.936  16.756 -0.5771  0.1991 -0.1617
 1228TIP3    H225100   2.628   0.805  16.700  0.4105 -0.1389 -0.2816
 1229TIP3   OH225101   0.873   4.794  11.288  0.4860  0.3203  0.0377
 1229TIP3    H125102   0.904   4.881  11.313  2.4946  0.4221 -2.3844
 1229TIP3    H225103   0.853   4.802  11.195  1.9544 -2.0720 -0.5809
 1230TIP3   OH225104   2.677   1.358   2.790 -0.2018 -0.2146 -0.5505
 1230TIP3    H125105   2.725   1.290   2.742 -0.8932 -0.8890 -0.2978
 1230TIP3    H225106   2.724   1.439   2.769  1.0265 -0.8491 -0.3480
 1231TIP3   OH225107   3.949   5.567  15.822 -0.0218  0.3188 -0.3460
 1231TIP3    H125108   4.020   5.540  15.881 -1.1935 -1.3364  0.3735
 1231TIP3    H225109   3.876   5.588  15.881 -0.6588  0.3960 -1.1415
 1232TIP3   OH225110   4.631   5.116   5.689 -0.0845  0.2187 -0.4746
 1232TIP3    H125111   4.614   5.081   5.601 -0.1523 -0.1722 -0.3081
 1232TIP3    H225112   4.705   5.065   5.722 -0.1060  0.3140 -0.2753
 1233TIP3   OH225113   6.690   0.106  15.373 -0.0168  0.2904  0.1948
 1233TIP3    H125114   6.692   0.075  15.464  1.9861  0.8067  0.3840
 1233TIP3    H225115   6.710   0.029  15.320 -0.6871  0.0948  0.2195
 1234TIP3   OH225116   2.866   6.468  15.611 -0.0259  0.2274 -0.2680
 1234TIP3    H125117   2.786   6.416  15.601  1.0295 -1.4112 -0.7156
 1234TIP3    H225118   2.901   6.441  15.696  0.8738 -0.3030 -0.7958
 1235TIP3   OH225119   4.636   5.448  13.746  0.1027 -0.0815 -0.4784
 1235TIP3    H125120   4.620   5.370  13.799 -1.4744  0.7517  0.3451
 1235TIP3    H225121   4.731   5.451  13.735  0.2662 -1.5569  0.3067
 1236TIP3   OH225122   2.042   6.090   2.229  0.2140 -0.2728  0.4184
 1236TIP3    H125123   1.984   6.084   2.305 -0.2484  0.3237  0.1205
 1236TIP3    H225124   2.073   6.180   2.228 -0.3466 -0.0769 -0.4970
 1237TIP3   OH225125   1.474   3.887  12.955 -0.2104  0.4693  0.0416
 1237TIP3    H125126   1.490   3.871  12.862 -0.7162 -0.9707  0.1721
 1237TIP3    H225127   1.465   3.799  12.993 -1.3141  1.0577  1.2097
 1238TIP3   OH225128   1.725   1.735  15.626 -0.2806 -0.6325  0.3876
 1238TIP3    H125129   1.815   1.750  15.655 -0.7258  1.2386  1.0011
 1238TIP3    H225130   1.725   1.647  15.590  1.3193 -1.4613  2.2477
 1239TIP3   OH225131   0.182   3.078  14.387  0.3551 -0.4384 -0.1739
 1239TIP3    H125132   0.272   3.046  14.378  0.7352  0.6719 -0.4257
 1239TIP3    H225133   0.186   3.141  14.459 -0.3608 -0.8657  0.2501
 1240TIP3   OH225134   6.502   1.978  16.486 -0.1834 -0.0446  0.4406
 1240TIP3    H125135   6.490   1.982  16.581 -0.4024  0.6935  0.3828
 1240TIP3    H225136   6.593   2.004  16.473 -1.1208  3.6981  0.1996
 1241TIP3   OH225137   6.755   5.172  12.774 -0.1714 -0.0224 -1.1091
 1241TIP3    H125138   6.744   5.209  12.861 -0.9448 -1.7775 -0.4174
 1241TIP3    H225139   6.850   5.166  12.763 -0.0656  0.2835 -0.4313
 1242TIP3   OH225140   1.645   4.149   3.249  0.1028 -0.1877 -0.9072
 1242TIP3    H125141   1.695   4.155   3.330  0.2843 -1.1808 -0.9293
 1242TIP3    H225142   1.618   4.239   3.230 -0.8428 -0.0728  0.8068
 1243TIP3   OH225143   2.894   4.090   1.988  0.5612  0.0804  0.6895
 1243TIP3    H125144   2.915   4.004   1.950  0.4795  0.1459  0.4970
 1243TIP3    H225145   2.941   4.153   1.933  3.3414 -0.0182  2.7238
 1244TIP3   OH225146   1.823   1.796   0.581 -0.5766  0.0703  0.2559
 1244TIP3    H125147   1.729   1.809   0.588 -0.6637  0.0660 -0.8004
 1244TIP3    H225148   1.834   1.701   0.579 -0.6170  0.0802 -0.4520
 1245TIP3   OH225149   2.382   5.757  16.964 -0.3518  0.2031 -0.3426
 1245TIP3    H125150   2.394   5.823  16.896 -0.3799  0.5766  0.0141
 1245TIP3    H225151   2.471   5.735  16.992 -0.2773 -0.7747 -1.2730
 1246TIP3   OH225152   1.615   3.150  16.847 -0.7908 -0.2904 -0.0801
 1246TIP3    H125153   1.676   3.127  16.777  0.5186  1.2854  0.4715
 1246TIP3    H225154   1.570   3.228  16.814 -1.4252 -0.5526  0.1517
 1247TIP3   OH225155   1.070   3.189   0.086 -0.1498 -0.0142  0.5628
 1247TIP3    H125156   1.055   3.144   0.169 -1.2392  0.4227  0.6235
 1247TIP3    H225157   1.162   3.214   0.088 -0.1175 -0.1971  1.5443
 1248TIP3   OH225158   2.435   5.386   6.137  0.5134 -0.6766  0.1473
 1248TIP3    H125159   2.388   5.347   6.062  1.5245 -1.6172 -0.0267
 1248TIP3    H225160   2.470   5.311   6.185  0.5756 -0.0484  1.1161
 1249TIP3   OH225161   2.651   2.833   3.780 -0.0065  0.3295  0.2270
 1249TIP3    H125162   2.653   2.858   3.873  0.2177 -1.0886  0.6226
 1249TIP3    H225163   2.725   2.774   3.769 -2.6132 -3.2852  0.3171
 1250TIP3   OH225164   6.528   2.873  16.396  0.5580 -0.4259  0.1571
 1250TIP3    H125165   6.531   2.969  16.390 -0.0200 -0.3991  0.2616
 1250TIP3    H225166   6.451   2.854  16.450  0.7347 -0.9479  0.2337
 1251TIP3   OH225167   5.146   6.555  11.603 -0.0475 -0.4143 -0.1020
 1251TIP3    H125168   5.051   6.555  11.595 -0.2557 -1.1988  1.7854
 1251TIP3    H225169   5.166   6.474  11.649  1.6612 -0.8270 -1.4537
 1252TIP3   OH225170   5.979   1.444  11.397  0.3046 -0.5456 -0.4050
 1252TIP3    H125171   6.072   1.445  11.419  0.1648 -0.0073  0.1911
 1252TIP3    H225172   5.944   1.371  11.449  0.5379 -1.2856 -1.2715
 1253TIP3   OH225173   0.196   5.869   3.111  0.2656 -0.0921  0.2305
 1253TIP3    H125174   0.272   5.819   3.140 -1.5374 -2.8136  0.5795
 1253TIP3    H225175   0.157   5.901   3.193  1.4027  2.0442  0.0131
 1254TIP3   OH225176   5.242   4.198  14.631 -0.6201 -0.4146  0.3808
 1254TIP3    H125177   5.302   4.271  14.619  2.3771 -2.8345 -0.8363
 1254TIP3    H225178   5.208   4.180  14.544 -3.3554  0.9375  1.0563
 1255TIP3   OH225179   2.476   4.170   5.344 -0.0171 -0.2455  0.2321
 1255TIP3    H125180   2.524   4.214   5.274 -2.6465  0.1767 -1.4541
 1255TIP3    H225181   2.509   4.209   5.425  0.9781  1.4922 -0.9566
 1256TIP3   OH225182   4.444   2.317   4.109 -0.8639 -0.1087  0.0288
 1256TIP3    H125183   4.473   2.226   4.111 -0.3355  0.0591  1.5344
 1256TIP3    H225184   4.523   2.367   4.089 -1.0333  0.0649 -0.2169
 1257TIP3   OH225185   5.045   3.093  16.266  0.2137 -0.4877  0.2114
 1257TIP3    H125186   4.997   3.172  16.243  2.0949  0.4391 -0.7413
 1257TIP3    H225187   5.040   3.089  16.362  1.7796  1.9644  0.4679
 1258TIP3   OH225188   0.076   2.722  16.516  0.4980 -0.3842  0.1062
 1258TIP3    H125189   0.157   2.772  16.512 -0.3334  0.9275 -1.3869
 1258TIP3    H225190   0.036   2.734  16.430 -1.3333 -0.9138  0.8339
 1259TIP3   OH225191   5.898   5.017  12.055  0.5804  0.1811  0.5821
 1259TIP3    H125192   5.932   5.105  12.037 -0.5934  0.6816  0.6860
 1259TIP3    H225193   5.924   4.965  11.980 -0.8580  1.2541 -0.7203
 1260TIP3   OH225194   4.463   2.171  11.677 -0.3355 -0.0430  0.7721
 1260TIP3    H125195   4.370   2.154  11.697 -0.3958 -2.4338 -0.9926
 1260TIP3    H225196   4.467   2.169  11.581  1.4244  0.9550  0.7898
 1261TIP3   OH225197   5.750   0.216   4.957  0.3057 -0.0589 -0.3666
 1261TIP3    H125198   5.838   0.211   4.919 -0.1650 -1.5134 -1.3453
 1261TIP3    H225199   5.757   0.170   5.040  0.4765 -0.1430 -0.4266
 1262TIP3   OH225200   3.406   3.697   3.385  0.2317  0.6557 -0.2699
 1262TIP3    H125201   3.336   3.733   3.440  0.9038 -2.4886  2.9952
 1262TIP3    H225202   3.487   3.727   3.427  0.8146  0.4026 -1.1904
 1263TIP3   OH225203   2.978   2.421   3.616  0.9310 -0.2040 -0.5831
 1263TIP3    H125204   3.058   2.473   3.625  1.2875  0.0582 -3.9917
 1263TIP3    H225205   3.009   2.330   3.612  0.4834 -0.6985  3.1234
 1264TIP3   OH225206   4.841   1.043   4.199  0.2302  0.0510  0.1467
 1264TIP3    H125207   4.919   0.994   4.175 -0.5303 -1.3150  0.3450
 1264TIP3    H225208   4.871   1.134   4.208  1.4553 -0.1436 -1.4123
 1265TIP3   OH225209   5.664   0.753   2.398 -0.5578 -0.3205  0.4264
 1265TIP3    H125210   5.646   0.804   2.320  1.1986 -1.5634 -0.8739
 1265TIP3    H225211   5.676   0.818   2.467  1.5183  1.0866 -1.1355
 1266TIP3   OH225212   5.074   0.568   6.242 -0.1895  0.0013  0.1030
 1266TIP3    H125213   5.142   0.594   6.180  1.9929 -2.4107  1.3036
 1266TIP3    H225214   5.072   0.638   6.307  1.0556  0.2148 -0.0663
 1267TIP3   OH225215   0.942   2.600  14.409  0.2168 -0.5325 -0.0960
 1267TIP3    H125216   0.925   2.597  14.315  1.0526  0.2668 -0.2801
 1267TIP3    H225217   0.945   2.508  14.435  0.8103 -0.7858 -1.0114
 1268TIP3   OH225218   4.340   4.947  15.534 -0.3415 -0.2467 -0.0493
 1268TIP3    H125219   4.297   4.869  15.501  0.9079 -0.5814 -0.9307
 1268TIP3    H225220   4.268   5.008  15.551 -1.1323 -0.4936 -2.2184
 1269TIP3   OH225221   1.652   4.712  14.930 -0.3743 -0.3022 -0.4070
 1269TIP3    H125222   1.719   4.644  14.923  1.3403  1.4912 -4.0029
 1269TIP3    H225223   1.606   4.709  14.847 -0.9767  2.1542 -0.2345
 1270TIP3   OH225224   5.581   2.326   0.157  0.6902 -0.2131 -0.0137
 1270TIP3    H125225   5.516   2.310   0.225  0.2253  1.4940 -0.0044
 1270TIP3    H225226   5.659   2.280   0.187 -0.5754 -2.6040 -0.1949
 1271TIP3   OH225227   0.764   4.927  11.942 -0.0431 -1.0232 -0.0393
 1271TIP3    H125228   0.747   4.851  11.997  0.7238 -2.5929 -1.8488
 1271TIP3    H225229   0.859   4.937  11.942 -0.1562  0.3030  0.5836
 1272TIP3   OH225230   3.721   0.163  12.693  0.0537  0.0032  0.1279
 1272TIP3    H125231   3.766   0.205  12.766 -2.1760  0.3075  1.4194
 1272TIP3    H225232   3.791   0.125  12.640  1.8600  1.5521  1.2959
 1273TIP3   OH225233   1.603   1.094   5.331  0.2995 -0.2403  0.4435
 1273TIP3    H125234   1.520   1.077   5.376  0.5651  0.4555  1.2236
 1273TIP3    H225235   1.668   1.047   5.383  0.6632  0.8783  1.0351
 1274TIP3   OH225236   4.996   6.709   4.816 -0.6043 -0.6662  0.3099
 1274TIP3    H125237   5.053   6.646   4.773 -0.1153 -0.3157  0.4388
 1274TIP3    H225238   4.929   6.729   4.751 -0.4725 -0.9400  0.0906
 1275TIP3   OH225239   1.814   5.538  15.702  0.2497  0.3608 -0.0623
 1275TIP3    H125240   1.812   5.453  15.745 -0.8327  0.1336 -0.5141
 1275TIP3    H225241   1.722   5.566  15.700  0.3706  0.7582 -1.4363
 1276TIP3   OH225242   5.252   4.176  14.071 -0.0936 -0.3424  0.1878
 1276TIP3    H125243   5.200   4.238  14.122  0.8123  0.3074  0.3519
 1276TIP3    H225244   5.303   4.232  14.011  1.4866 -0.8372  1.0203
 1277TIP3   OH225245   3.110   3.006  12.688  0.0736 -0.3902  0.2343
 1277TIP3    H125246   3.200   2.977  12.706 -0.2478 -1.3606  0.3090
 1277TIP3    H225247   3.106   3.014  12.593  0.3233 -0.0469  0.2496
 1278TIP3   OH225248   4.858   4.622  14.387  0.1410  0.0557  0.9203
 1278TIP3    H125249   4.851   4.694  14.449 -0.3212 -0.8820  1.9912
 1278TIP3    H225250   4.827   4.545  14.435 -1.4933 -0.4910 -0.8540
 1279TIP3   OH225251   3.437   2.707   2.263 -0.5772 -0.5544  0.5380
 1279TIP3    H125252   3.422   2.630   2.318  1.5670 -1.9452 -0.6899
 1279TIP3    H225253   3.400   2.683   2.178  1.5581 -0.9763 -0.3277
 1280TIP3   OH225254   2.067   1.514   1.067 -0.1628 -0.9619  0.1192
 1280TIP3    H125255   2.027   1.469   1.141 -0.9705 -0.3038  0.0922
 1280TIP3    H225256   2.161   1.496   1.076  0.0263  0.7579  2.4465
 1281TIP3   OH225257   6.092   0.153  16.133 -0.4653 -0.2100  0.7988
 1281TIP3    H125258   6.176   0.198  16.140  0.7387 -1.7895 -1.7537
 1281TIP3    H225259   6.085   0.103  16.213  0.7316  0.4179  1.3346
 1282TIP3   OH225260   3.632   2.447   5.039  0.5365  0.2029  0.0971
 1282TIP3    H125261   3.602   2.368   5.083  0.6005 -0.3031 -0.7541
 1282TIP3    H225262   3.643   2.422   4.948 -0.8598  1.5664 -0.5043
 1283TIP3   OH225263   2.786   0.381   0.090 -0.0986  0.7518  0.1457
 1283TIP3    H125264   2.779   0.439   0.166 -0.7019 -1.9636  2.3081
 1283TIP3    H225265   2.696   0.350   0.075  0.1165  0.7457 -1.3405
 1284TIP3   OH225266   1.039   3.288  14.108  1.2361 -0.5935 -0.2035
 1284TIP3    H125267   1.129   3.316  14.126  0.7952  1.8797 -1.4251
 1284TIP3    H225268   0.995   3.367  14.076 -0.9651 -2.0944 -1.1422
 1285TIP3   OH225269   6.724   4.700  11.327  0.1819  0.4726  0.0321
 1285TIP3    H125270   6.662   4.652  11.271  0.5519 -0.9674  0.7954
 1285TIP3    H225271   6.669   4.749  11.387 -0.3141 -1.6454  1.4329
 1286TIP3   OH225272   1.607   2.773  11.289 -0.3207 -0.2955  0.2761
 1286TIP3    H125273   1.660   2.825  11.230 -1.4125  0.8309  0.2408
 1286TIP3    H225274   1.578   2.835  11.356 -0.9096 -1.0620  0.7533
 1287TIP3   OH225275   1.299   3.727  16.173 -0.4689  0.3875 -0.7142
 1287TIP3    H125276   1.212   3.710  16.138 -0.4689 -0.6946 -0.2349
 1287TIP3    H225277   1.355   3.739  16.096 -0.7275 -0.6097 -1.0710
 1288TIP3   OH225278   6.233   2.192   3.956 -0.7518  0.1890 -0.5032
 1288TIP3    H125279   6.219   2.252   4.029 -1.3826  0.2710 -0.6837
 1288TIP3    H225280   6.285   2.242   3.893 -0.9141  0.4016 -0.4684
 1289TIP3   OH225281   0.090   3.054  15.377  0.1020  0.2770  0.0405
 1289TIP3    H125282   0.133   3.090  15.299 -0.4673  0.8288 -0.0316
 1289TIP3    H225283   0.161   3.035  15.438  0.5111  0.3567 -0.4060
 1290TIP3   OH225284   2.129   1.213  11.954  0.8179  0.3245 -0.2745
 1290TIP3    H125285   2.035   1.225  11.937  0.9700  1.0455 -0.6609
 1290TIP3    H225286   2.133   1.182  12.044 -0.0954 -4.4193 -1.5785
 1291TIP3   OH225287   3.249   2.254   0.417 -0.2653 -0.4190  0.1166
 1291TIP3    H125288   3.295   2.193   0.475 -1.8734 -1.0084  0.8489
 1291TIP3    H225289   3.314   2.320   0.395  0.8043 -0.9838  1.4354
 1292TIP3   OH225290   6.411   5.111   2.728  0.2991  0.1524  0.0801
 1292TIP3    H125291   6.391   5.058   2.805  0.6021 -2.1366 -1.3336
 1292TIP3    H225292   6.343   5.179   2.727 -1.4954 -1.5372  0.7846
 1293TIP3   OH225293   4.807   2.170  11.516  0.3739 -0.2405 -0.4709
 1293TIP3    H125294   4.783   2.262  11.515 -0.3984 -0.4024  0.9719
 1293TIP3    H225295   4.900   2.169  11.496  0.2943  0.8078 -0.9495
 1294TIP3   OH225296   5.635   6.555   2.231 -0.2571  0.0345  0.4032
 1294TIP3    H125297   5.681   6.598   2.160 -1.0848 -3.3222 -2.4201
 1294TIP3    H225298   5.566   6.505   2.188 -1.2446 -1.6754  3.6642
 1295TIP3   OH225299   0.112   1.398   1.214  0.0539 -1.0100 -0.1779
 1295TIP3    H125300   0.043   1.434   1.158 -0.5845 -1.8967  0.0174
 1295TIP3    H225301   0.068   1.332   1.267  0.5547  0.0481  1.6393
 1296TIP3   OH225302   3.243   6.400   1.034  0.6091  0.2965 -0.3204
 1296TIP3    H125303   3.159   6.360   1.056  1.5393 -1.6027 -0.0802
 1296TIP3    H225304   3.272   6.442   1.115  1.2250 -1.5562  0.4599
 1297TIP3   OH225305   1.959   5.267  14.697  0.2527  0.0874  0.2655
 1297TIP3    H125306   1.991   5.283  14.608  0.0046 -1.0760 -0.0614
 1297TIP3    H225307   2.007   5.189  14.726 -0.3806 -0.1225  0.7692
 1298TIP3   OH225308   3.795   2.801  11.636 -0.8551  0.0867 -0.4083
 1298TIP3    H125309   3.859   2.870  11.621  0.0100  0.1009  2.5929
 1298TIP3    H225310   3.712   2.847  11.645 -1.0171  0.2629 -2.4130
 1299TIP3   OH225311   2.204   2.995  14.705  0.2596 -0.1995  0.2670
 1299TIP3    H125312   2.135   2.944  14.663 -0.0228 -0.1111  0.6203
 1299TIP3    H225313   2.279   2.936  14.708 -0.3297 -0.9424  1.4953
 1300TIP3   OH225314   2.161   1.637   2.558  0.1148 -0.4960  0.6192
 1300TIP3    H125315   2.141   1.580   2.632 -1.8780 -0.6617  0.0040
 1300TIP3    H225316   2.077   1.672   2.531  0.7603 -0.5176 -1.6392
 1301TIP3   OH225317   2.555   0.439  11.114 -0.7238  0.5736 -0.7227
 1301TIP3    H125318   2.533   0.375  11.182  0.6116  0.9490  0.1125
 1301TIP3    H225319   2.491   0.509  11.126 -1.6773 -0.2061 -1.0994
 1302TIP3   OH225320   0.670   5.783   3.898  0.1463  0.0590 -0.4160
 1302TIP3    H125321   0.588   5.800   3.943 -0.5835  0.8123 -1.9332
 1302TIP3    H225322   0.728   5.745   3.965 -1.1749  0.2208  0.8587
 1303TIP3   OH225323   0.759   0.484  12.953  0.4189 -0.2657 -0.2364
 1303TIP3    H125324   0.849   0.455  12.941  0.2831 -0.9080  0.2151
 1303TIP3    H225325   0.765   0.578  12.970  1.0448 -0.4026  0.3109
 1304TIP3   OH225326   0.266   0.999   5.794 -0.6577 -0.0059 -0.0748
 1304TIP3    H125327   0.329   1.069   5.809  0.1326 -0.8093  0.4382
 1304TIP3    H225328   0.303   0.923   5.838 -0.2538 -1.4396 -2.6432
 1305TIP3   OH225329   0.543   6.432  14.223  0.1275  0.5909 -0.1380
 1305TIP3    H125330   0.616   6.467  14.171 -0.7656 -0.1095 -1.9397
 1305TIP3    H225331   0.517   6.352  14.178 -0.9380  0.1242  1.2240
 1306TIP3   OH225332   4.508   2.719   2.061 -0.0730  0.1765  0.0314
 1306TIP3    H125333   4.586   2.670   2.032 -0.0359  1.3506 -2.0179
 1306TIP3    H225334   4.435   2.675   2.017  0.0877  2.6505 -3.0817
 1307TIP3   OH225335   1.424   4.473  17.122  0.1222  0.0650  0.4086
 1307TIP3    H125336   1.460   4.420  17.052  0.2691  0.8555 -0.1207
 1307TIP3    H225337   1.436   4.420  17.201 -1.1667 -1.3702 -0.3144
 1308TIP3   OH225338   4.313   3.707   4.583  0.7164 -0.5568 -0.2768
 1308TIP3    H125339   4.292   3.635   4.523  0.0520 -0.8819  0.3382
 1308TIP3    H225340   4.292   3.786   4.533 -1.6043 -0.8480  0.1215
 1309TIP3   OH225341   2.972   3.497  12.485  0.0855  0.1964  0.0564
 1309TIP3    H125342   2.984   3.502  12.390 -0.0767 -0.9448 -0.0321
 1309TIP3    H225343   2.924   3.416  12.499 -0.6173  0.7693  1.0578
 1310TIP3   OH225344   2.031   1.835  13.121 -0.6920 -0.0656 -0.1316
 1310TIP3    H125345   2.091   1.762  13.138 -0.3901  0.1984 -0.0611
 1310TIP3    H225346   2.036   1.890  13.199 -1.8409 -0.5857  0.3458
 1311TIP3   OH225347   0.669   5.926  15.115  0.4094 -0.4879  0.1989
 1311TIP3    H125348   0.646   6.018  15.114 -0.8300 -0.7447  1.2599
 1311TIP3    H225349   0.684   5.903  15.023 -0.6109  0.4575 -0.2257
 1312TIP3   OH225350   2.255   4.010  11.507 -0.1782  0.1113 -0.8476
 1312TIP3    H125351   2.185   3.948  11.527  0.0977  0.3943  1.2440
 1312TIP3    H225352   2.327   3.956  11.475 -0.1409 -0.6158  0.4098
 1313TIP3   OH225353   3.545   4.984   1.311 -0.8295 -0.1194 -0.1642
 1313TIP3    H125354   3.452   5.003   1.328 -0.8846  2.3424 -2.4873
 1313TIP3    H225355   3.551   4.981   1.215  1.3239 -1.4333 -0.0497
 1314TIP3   OH225356   2.568   4.993   0.440  0.1465  0.3603 -0.7670
 1314TIP3    H125357   2.649   5.006   0.490 -0.4947 -0.6131  0.5636
 1314TIP3    H225358   2.498   5.017   0.501 -0.7251 -2.1315 -0.7081
 1315TIP3   OH225359   5.638   4.972  14.151  0.4857 -0.1943  0.1079
 1315TIP3    H125360   5.553   4.942  14.118  0.6667 -0.6494  0.0539
 1315TIP3    H225361   5.702   4.923  14.100  0.8511  1.7963 -1.4885
 1316TIP3   OH225362   0.004   0.815   2.166  1.0401 -0.0907 -0.3409
 1316TIP3    H125363  -0.044   0.869   2.103  0.3444 -0.2765  0.0187
 1316TIP3    H225364  -0.019   0.852   2.252  2.0579  0.2268 -0.1916
 1317TIP3   OH225365   6.167   2.855  12.509 -0.1051 -0.0439  0.4594
 1317TIP3    H125366   6.190   2.926  12.449 -1.9394  0.3966  0.1982
 1317TIP3    H225367   6.249   2.808  12.524  0.6366  0.5619 -1.4354
 1318TIP3   OH225368   2.567   3.988   1.737  0.3045 -0.3046 -0.2594
 1318TIP3    H125369   2.549   4.082   1.729  0.2420  0.2471  4.0591
 1318TIP3    H225370   2.482   3.949   1.755  0.3751 -1.2453 -1.7804
 1319TIP3   OH225371   2.863   1.375   0.280 -0.0068 -0.2337  0.4969
 1319TIP3    H125372   2.887   1.439   0.213  1.1313 -0.4518  0.6732
 1319TIP3    H225373   2.860   1.426   0.362 -0.0781 -0.2201  0.4860
 1320TIP3   OH225374   6.699   2.308  12.163 -0.2914 -0.0801  0.0150
 1320TIP3    H125375   6.619   2.345  12.125  0.2001 -1.7506 -2.9327
 1320TIP3    H225376   6.690   2.213  12.151  1.3098 -0.4650  1.4031
 1321TIP3   OH225377   2.207   0.877  11.950 -0.5488  0.0091 -0.1035
 1321TIP3    H125378   2.195   0.782  11.943  0.9109 -0.1318 -1.3100
 1321TIP3    H225379   2.139   0.914  11.894 -2.3751 -0.1891  1.8731
 1322TIP3   OH225380   4.420   6.598  17.004  0.0293 -0.1227 -0.0293
 1322TIP3    H125381   4.363   6.673  16.987  1.8963  1.5757  0.8596
 1322TIP3    H225382   4.471   6.588  16.923 -0.0106 -0.2616 -0.0387
 1323TIP3   OH225383   5.030   4.041  14.965  0.4210  0.0495  0.0644
 1323TIP3    H125384   5.102   4.009  14.910 -0.0563 -0.7234 -0.1323
 1323TIP3    H225385   4.951   4.026  14.913  0.0759  0.4918  0.4473
 1324TIP3   OH225386   4.205   3.638   5.768 -0.0723 -0.3515  0.0396
 1324TIP3    H125387   4.264   3.640   5.843  1.5286 -0.5390 -1.1499
 1324TIP3    H225388   4.182   3.730   5.752 -1.5954 -0.4136  1.5774
 1325TIP3   OH225389   0.242   0.750  16.957  0.2066 -0.4157  0.2029
 1325TIP3    H125390   0.294   0.679  16.994 -0.1510 -0.2046  1.1464
 1325TIP3    H225391   0.302   0.794  16.896  0.8069 -0.7822  0.5136
 1326TIP3   OH225392   4.235   2.807   3.028  0.1881  0.2042 -0.1281
 1326TIP3    H125393   4.309   2.753   2.998  1.1935  0.6259  1.4153
 1326TIP3    H225394   4.265   2.897   3.014 -0.3487  0.3743 -0.1736
 1327TIP3   OH225395   2.278   2.866  13.858  0.7551  0.3151  0.1663
 1327TIP3    H125396   2.237   2.897  13.777  1.4892  1.6876  0.2905
 1327TIP3    H225397   2.345   2.932  13.878  2.3498 -1.3198  0.5125
 1328TIP3   OH225398   4.315   3.918   3.574 -0.1038  0.2143 -0.0700
 1328TIP3    H125399   4.240   3.967   3.541 -0.2548 -0.3988 -0.6531
 1328TIP3    H225400   4.373   3.985   3.611 -0.1911  0.8717 -1.0822
 1329TIP3   OH225401   2.117   3.472   3.224 -0.0207  0.1676  0.2388
 1329TIP3    H125402   2.068   3.552   3.247  0.4743  0.1114  1.5698
 1329TIP3    H225403   2.172   3.455   3.300  0.8438 -0.7239 -0.5609
 1330TIP3   OH225404   6.271   3.610   3.871 -0.2313  0.1379 -0.0855
 1330TIP3    H125405   6.205   3.542   3.886  0.0663 -0.3552 -0.8968
 1330TIP3    H225406   6.262   3.632   3.778  1.9147 -1.2575 -0.7114
 1331TIP3   OH225407   6.448   2.587  13.681  0.3736  0.5142 -0.3323
 1331TIP3    H125408   6.403   2.519  13.632  0.4138  0.5706 -0.4482
 1331TIP3    H225409   6.462   2.657  13.617  0.1261  0.7261 -0.1543
 1332TIP3   OH225410   5.706   6.241   0.298 -0.2532 -0.2819 -0.2169
 1332TIP3    H125411   5.772   6.172   0.293  1.4504  1.0670  1.7486
 1332TIP3    H225412   5.706   6.280   0.210  1.6035 -0.3598 -0.3051
 1333TIP3   OH225413   4.814   4.551   4.800 -0.1836 -0.0183  0.8010
 1333TIP3    H125414   4.750   4.587   4.862 -0.6096  1.1929 -0.2879
 1333TIP3    H225415   4.895   4.545   4.851 -0.9128 -0.6237  1.9219
 1334TIP3   OH225416   5.303   4.101   3.297 -0.1350 -0.0174  0.1568
 1334TIP3    H125417   5.356   4.140   3.227  1.0327 -1.0411  0.4357
 1334TIP3    H225418   5.279   4.174   3.353 -0.6584  0.7496 -1.0297
 1335TIP3   OH225419   4.375   5.229  11.242  0.7006  0.5510 -0.5066
 1335TIP3    H125420   4.392   5.201  11.332 -0.7228  1.8799  0.2273
 1335TIP3    H225421   4.391   5.151  11.189  2.2706 -0.0766  0.7877
 1336TIP3   OH225422   1.065   2.871   5.531  0.0288 -0.1332 -0.2862
 1336TIP3    H125423   1.001   2.800   5.517  0.2072  0.0287 -2.2107
 1336TIP3    H225424   1.105   2.850   5.615 -0.2455 -2.0907 -0.5786
 1337TIP3   OH225425   4.697   6.170  16.017  0.2537  0.3666  0.5610
 1337TIP3    H125426   4.785   6.132  16.018  1.2813  2.4984 -0.8008
 1337TIP3    H225427   4.644   6.107  15.969  1.2974 -0.4733  0.4750
 1338TIP3   OH225428   2.692   3.170  14.223  0.0008  0.2895  0.2469
 1338TIP3    H125429   2.773   3.119  14.224  0.4560  0.9036 -1.3864
 1338TIP3    H225430   2.623   3.105  14.211  0.4815 -0.0635 -0.7705
 1339TIP3   OH225431   0.582   3.952   4.016 -0.3577 -0.4065  0.4493
 1339TIP3    H125432   0.522   3.976   3.945 -0.3214 -0.6887  0.3228
 1339TIP3    H225433   0.552   3.866   4.046  0.6221 -1.0457 -0.3293
 1340TIP3   OH225434   3.452   3.674   5.708  0.4663  0.2723  0.1145
 1340TIP3    H125435   3.458   3.662   5.613  0.7994 -0.2376  0.1978
 1340TIP3    H225436   3.420   3.763   5.718 -0.4470  0.0369 -0.4974
 1341TIP3   OH225437   4.346   0.751  16.071 -0.0405 -0.0120  0.7744
 1341TIP3    H125438   4.280   0.820  16.082  0.5813  0.5166  1.3782
 1341TIP3    H225439   4.391   0.748  16.156  1.2684  0.2519  0.1239
 1342TIP3   OH225440   5.115   3.126   2.843 -0.1241  0.4732  0.1379
 1342TIP3    H125441   5.167   3.046   2.842 -2.3180 -1.0703  0.9948
 1342TIP3    H225442   5.114   3.153   2.935 -1.8383 -0.2907  0.3845
 1343TIP3   OH225443   6.780   1.526   3.157 -0.2619 -0.1077 -0.0557
 1343TIP3    H125444   6.719   1.501   3.226  0.7138  0.3939  1.0069
 1343TIP3    H225445   6.842   1.586   3.199  0.8892 -0.4950 -1.1264
 1344TIP3   OH225446   6.366   0.443   6.569  0.7357  0.0245 -0.4847
 1344TIP3    H125447   6.452   0.408   6.594 -0.5173 -2.1292  1.1850
 1344TIP3    H225448   6.353   0.411   6.480  1.0813 -0.9354 -0.2115
 1345TIP3   OH225449   2.334   4.125  12.603 -0.2292 -0.5693 -0.0316
 1345TIP3    H125450   2.346   4.036  12.634  1.7443  0.2975  1.9238
 1345TIP3    H225451   2.420   4.153  12.573  0.1250  1.8143  2.7910
 1346TIP3   OH225452   1.851   2.296  14.836 -0.3186  0.4872 -0.4030
 1346TIP3    H125453   1.939   2.295  14.798 -0.6911 -1.5626 -1.3128
 1346TIP3    H225454   1.857   2.237  14.911 -0.9921  0.1197 -0.6380
 1347TIP3   OH225455   4.854   0.392  11.652  0.0313  0.6671  0.6565
 1347TIP3    H125456   4.804   0.471  11.634 -1.1572  0.2640  2.0153
 1347TIP3    H225457   4.788   0.324  11.663  1.0437 -0.6458 -0.9103
 1348TIP3   OH225458   4.699   6.705   1.177 -0.8637 -0.0216  0.2038
 1348TIP3    H125459   4.659   6.622   1.204  1.8179 -1.0356  1.4162
 1348TIP3    H225460   4.713   6.753   1.259  2.5734 -0.8539  0.2847
 1349TIP3   OH225461   1.138   6.791  14.856  0.0678  0.3945  0.0359
 1349TIP3    H125462   1.190   6.815  14.932 -0.1044  0.0435  0.2673
 1349TIP3    H225463   1.051   6.826  14.874 -0.3845 -0.9952  0.7133
 1350TIP3   OH225464   5.081   4.768   1.831  0.1381 -0.1900 -0.1646
 1350TIP3    H125465   5.090   4.757   1.736  0.4417 -1.4001 -0.0071
 1350TIP3    H225466   5.067   4.680   1.865  1.0755  0.0892  1.0245
 1351TIP3   OH225467   1.651   5.835   2.767  0.7030  0.3785  0.3177
 1351TIP3    H125468   1.590   5.826   2.839 -0.0371  1.6982 -0.1066
 1351TIP3    H225469   1.696   5.918   2.784  1.1224  0.2837 -0.2960
 1352TIP3   OH225470   0.696   4.253  12.237  0.0680  0.5363 -1.0270
 1352TIP3    H125471   0.764   4.188  12.221 -0.9549 -0.4974 -1.2790
 1352TIP3    H225472   0.614   4.204  12.232 -0.6379  1.4115  0.9939
 1353TIP3   OH225473   5.358   4.814  14.705  0.2639  0.2119 -0.4861
 1353TIP3    H125474   5.422   4.744  14.704  1.2592  1.0727  0.2766
 1353TIP3    H225475   5.288   4.784  14.647  0.7862 -1.2715 -0.3835
 1354TIP3   OH225476   4.021   4.371  13.121  0.1683  0.4242 -0.0391
 1354TIP3    H125477   3.972   4.427  13.181  2.0029  1.3529  0.6417
 1354TIP3    H225478   4.112   4.377  13.150  0.6077 -1.9544 -0.7088
 1355TIP3   OH225479   5.791   6.032   5.756  1.1510  0.5005  0.4589
 1355TIP3    H125480   5.814   5.982   5.678  1.3767  0.6347  0.4406
 1355TIP3    H225481   5.875   6.056   5.796  1.0859  1.9171 -0.1939
 1356TIP3   OH225482   2.908   0.490   5.051 -0.1274  0.0580  0.1509
 1356TIP3    H125483   3.002   0.487   5.072  0.1938  1.8087 -0.8161
 1356TIP3    H225484   2.904   0.543   4.972 -1.9332 -0.2148  0.0356
 1357TIP3   OH225485   5.432   4.243   0.303 -0.2870 -0.1274 -0.0573
 1357TIP3    H125486   5.508   4.300   0.308  0.2561 -0.5032 -2.7645
 1357TIP3    H225487   5.357   4.302   0.318  0.3783  0.8039 -0.3140
 1358TIP3   OH225488   0.104   4.674   4.516  0.1355  0.8947 -0.2717
 1358TIP3    H125489   0.052   4.627   4.451 -0.1595  0.0891  0.5239
 1358TIP3    H225490   0.187   4.692   4.471  1.3828 -2.8486  0.1387
 1359TIP3   OH225491   0.692   4.322   3.182 -0.0044 -0.0313 -0.0320
 1359TIP3    H125492   0.627   4.328   3.112  0.0514  0.2054 -0.0640
 1359TIP3    H225493   0.727   4.233   3.174  0.7673  0.3402 -0.9956
 1360TIP3   OH225494   5.102   1.958   3.912 -0.4188 -0.1209  0.0107
 1360TIP3    H125495   5.171   1.894   3.898  0.6538  0.8116  0.7855
 1360TIP3    H225496   5.022   1.907   3.919  0.2475 -1.2639 -0.5313
 1361TIP3   OH225497   5.888   6.689   3.373 -0.2482 -0.1638 -0.2480
 1361TIP3    H125498   5.913   6.755   3.308 -0.2667  0.9557  0.8450
 1361TIP3    H225499   5.878   6.738   3.454 -1.6923 -1.2934  0.2955
 1362TIP3   OH225500   4.035   4.440   6.194  0.3449  0.1801  0.0782
 1362TIP3    H125501   3.959   4.429   6.136 -0.6551  2.6598  0.8094
 1362TIP3    H225502   4.108   4.404   6.144 -1.4144 -3.8318 -0.0311
 1363TIP3   OH225503   2.339   5.138   2.693  0.3008  0.3536 -0.0845
 1363TIP3    H125504   2.265   5.135   2.633  1.6275  4.1837 -2.2142
 1363TIP3    H225505   2.317   5.207   2.755  1.0504 -0.2383  0.8789
 1364TIP3   OH225506   2.512   0.818   4.478  0.0753 -0.6281  0.7500
 1364TIP3    H125507   2.500   0.729   4.510  1.1313 -1.0329  0.0727
 1364TIP3    H225508   2.423   0.854   4.473 -0.3996 -1.7653  0.6671
 1365TIP3   OH225509   5.118   5.467   2.327 -0.3559  0.0290  0.0322
 1365TIP3    H125510   5.214   5.462   2.326 -0.3689 -0.7379  1.0953
 1365TIP3    H225511   5.093   5.448   2.237  0.4992  0.6482 -0.3592
 1366TIP3   OH225512   0.727   6.614   1.764  0.2344  0.3382 -0.3106
 1366TIP3    H125513   0.706   6.696   1.719  1.1208  1.1576  0.7178
 1366TIP3    H225514   0.654   6.556   1.743 -1.7550  2.2048  0.9793
 1367TIP3   OH225515   2.467   6.290  13.987 -0.0975  0.6260 -0.2740
 1367TIP3    H125516   2.509   6.207  14.008  0.8371  0.8657 -1.1098
 1367TIP3    H225517   2.378   6.266  13.960  0.2360 -0.1358 -0.7329
 1368TIP3   OH225518   4.528   3.629   5.787  0.4927  0.4419 -0.3629
 1368TIP3    H125519   4.620   3.656   5.789  0.5654  0.1713  0.0994
 1368TIP3    H225520   4.482   3.697   5.835  0.4477  0.5739 -0.5886
 1369TIP3   OH225521   2.223   1.662   1.412 -0.1106 -0.1492  0.2235
 1369TIP3    H125522   2.158   1.659   1.342 -0.5117 -0.3818  0.6008
 1369TIP3    H225523   2.223   1.573   1.448  0.5322 -0.1980  0.1268
 1370TIP3   OH225524   6.589   0.158  12.153  0.3201 -0.7988 -0.7323
 1370TIP3    H125525   6.541   0.129  12.231  1.0907 -0.1981 -0.0072
 1370TIP3    H225526   6.558   0.247  12.137 -0.1879 -1.0897 -1.4199
 1371TIP3   OH225527   5.676   6.194  12.278  0.0392 -0.2766 -0.7577
 1371TIP3    H125528   5.588   6.232  12.271 -1.2592 -2.2604  2.5753
 1371TIP3    H225529   5.687   6.143  12.198 -1.5271  0.5924 -1.5769
 1372TIP3   OH225530   4.829   2.355   0.981 -0.1439 -0.7945  0.6241
 1372TIP3    H125531   4.843   2.424   1.045  0.0133 -0.7625  0.5539
 1372TIP3    H225532   4.819   2.400   0.898 -1.8543 -0.7157  0.8327
 1373TIP3   OH225533   1.908   2.013  13.629  0.5393  0.3897  0.0741
 1373TIP3    H125534   1.845   1.942  13.639  1.0209 -0.2611 -1.2804
 1373TIP3    H225535   1.854   2.091  13.614  0.0432 -0.1562 -1.0667
 1374TIP3   OH225536   5.404   2.785   6.455 -0.2789 -0.3337 -0.0441
 1374TIP3    H125537   5.334   2.721   6.444  0.1065 -0.6932 -0.4553
 1374TIP3    H225538   5.470   2.759   6.391  0.0811  0.2038  0.1049
 1375TIP3   OH225539   6.642   3.558   1.929 -0.3898 -0.3219  0.0553
 1375TIP3    H125540   6.614   3.483   1.876 -0.5308  0.0515 -0.4116
 1375TIP3    H225541   6.735   3.543   1.944 -0.9399 -2.0142  2.3254
 1376TIP3   OH225542   6.704   0.697  14.446 -0.2061  0.2508  0.1154
 1376TIP3    H125543   6.760   0.695  14.369 -0.3022  0.8988  0.0265
 1376TIP3    H225544   6.740   0.629  14.503 -0.1561 -0.2583 -0.5074
 1377TIP3   OH225545   6.661   0.757   3.371  0.1675  0.4365  0.6133
 1377TIP3    H125546   6.605   0.763   3.294  0.2027  1.8071  0.6812
 1377TIP3    H225547   6.748   0.738   3.335  0.4229  2.2380  0.1923
 1378TIP3   OH225548   6.646   4.792   3.768 -0.0097 -0.0519 -0.2610
 1378TIP3    H125549   6.714   4.760   3.828  0.1693 -0.9988 -0.9363
 1378TIP3    H225550   6.569   4.740   3.790  0.1657 -0.7031 -1.0863
 1379TIP3   OH225551   3.909   1.868  14.897  0.4220  0.7255 -0.5223
 1379TIP3    H125552   3.864   1.788  14.870 -0.6071  1.1738 -0.1766
 1379TIP3    H225553   3.967   1.890  14.824  0.8518 -0.4298 -0.5399
 1380TIP3   OH225554   0.996   5.426   1.401 -0.1345 -0.6061  0.5211
 1380TIP3    H125555   1.029   5.383   1.479  0.5564  0.7142  0.9934
 1380TIP3    H225556   0.905   5.448   1.423  0.1579  0.0688  1.1108
 1381TIP3   OH225557   2.476   3.777  15.851  0.0538  0.6117  0.2173
 1381TIP3    H125558   2.413   3.778  15.779  1.6750 -0.6592 -1.3129
 1381TIP3    H225559   2.473   3.688  15.885  2.3901 -0.1352 -1.2632
 1382TIP3   OH225560   4.755   2.449   0.131  0.1386 -0.0783 -0.1367
 1382TIP3    H125561   4.699   2.435   0.054  0.0332  2.3993 -0.6069
 1382TIP3    H225562   4.818   2.377   0.129 -0.5974 -0.7298 -1.8592
 1383TIP3   OH225563   5.141   2.016   3.615 -0.3737 -0.7627  0.3315
 1383TIP3    H125564   5.053   2.047   3.593 -0.3603 -0.2240  1.0098
 1383TIP3    H225565   5.149   2.030   3.709  1.1433  1.0099 -0.0071
 1384TIP3   OH225566   5.330   6.348  13.754  0.1415 -0.2321 -0.0470
 1384TIP3    H125567   5.268   6.409  13.794  0.5711 -1.3823  2.6442
 1384TIP3    H225568   5.280   6.266  13.747  0.6684 -0.5586 -0.0100
 1385TIP3   OH225569   0.029   6.605  13.922  0.0095 -0.1129 -0.4946
 1385TIP3    H125570  -0.020   6.686  13.909 -0.1117 -0.1669 -0.3795
 1385TIP3    H225571   0.035   6.595  14.017 -1.6379 -1.2317 -0.4707
 1386TIP3   OH225572   0.266   0.366   2.950  0.0449  0.3956 -0.3586
 1386TIP3    H125573   0.299   0.455   2.968 -1.6041  1.2365 -1.2263
 1386TIP3    H225574   0.244   0.367   2.857 -0.7492 -0.6666 -0.1957
 1387TIP3   OH225575   1.642   2.329  14.664 -0.2100 -0.3427  0.5388
 1387TIP3    H125576   1.636   2.257  14.601 -0.9210 -1.1128  1.4710
 1387TIP3    H225577   1.701   2.297  14.732  1.8819  1.0985 -0.4885
 1388TIP3   OH225578   0.585   1.882  10.955 -0.0468 -0.3378 -0.3811
 1388TIP3    H125579   0.630   1.835  10.885  0.4778 -0.1775 -0.1575
 1388TIP3    H225580   0.602   1.975  10.937 -1.2253 -0.2146 -0.9191
 1389TIP3   OH225581   2.100   4.979  14.234 -0.7054  0.4518 -0.4571
 1389TIP3    H125582   2.103   5.004  14.326 -0.0881 -1.6728  0.1753
 1389TIP3    H225583   2.189   4.994  14.202 -0.6059  0.0992 -0.3578
 1390TIP3   OH225584   4.354   6.460   4.487 -0.0706 -1.1672  0.1484
 1390TIP3    H125585   4.272   6.451   4.438 -0.1938 -2.1692  0.5118
 1390TIP3    H225586   4.353   6.550   4.519  0.2149 -0.3305 -2.0030
 1391TIP3   OH225587   1.360   3.605  14.850  0.2205 -1.1202 -0.3176
 1391TIP3    H125588   1.339   3.612  14.944  1.3842  3.2511 -0.1669
 1391TIP3    H225589   1.274   3.605  14.807 -0.3342  0.3832  0.6971
 1392TIP3   OH225590   4.171   1.359   4.111 -0.2888 -0.1172 -0.4176
 1392TIP3    H125591   4.221   1.432   4.075 -0.9608  0.1392 -0.8536
 1392TIP3    H225592   4.082   1.393   4.119  0.1469  0.5264  3.4117
 1393TIP3   OH225593   4.146   2.707  14.028  0.3056 -0.5720 -0.1680
 1393TIP3    H125594   4.236   2.719  13.997  0.5051 -0.1925  0.5150
 1393TIP3    H225595   4.155   2.658  14.109  0.4488  3.6691  2.7430
 1394TIP3   OH225596   4.730   3.657   3.961 -0.4525 -0.0630  0.1328
 1394TIP3    H125597   4.773   3.703   4.033 -0.5443  0.2308  0.0035
 1394TIP3    H225598   4.724   3.723   3.892  0.1291 -0.4980 -0.3431
 1395TIP3   OH225599   1.087   6.058  11.273  0.2467 -0.3850  0.3685
 1395TIP3    H125600   1.059   6.149  11.280  0.9991 -0.1024 -0.0935
 1395TIP3    H225601   1.010   6.007  11.296 -0.2348  0.3685  0.4643
 1396TIP3   OH225602   0.622   2.744  13.861  0.2351  0.1487 -0.2922
 1396TIP3    H125603   0.604   2.706  13.775  0.3408  0.5894 -0.5137
 1396TIP3    H225604   0.536   2.765  13.897 -0.0377 -2.7786  1.0137
 1397TIP3   OH225605   1.794   0.939  12.030  0.3001 -0.3341 -0.5661
 1397TIP3    H125606   1.733   0.890  12.086 -1.1264  0.2037 -1.6009
 1397TIP3    H225607   1.777   1.031  12.053  1.6542 -0.2173  0.0452
 1398TIP3   OH225608   5.197   0.169  15.905  0.1053 -0.2147  0.3409
 1398TIP3    H125609   5.126   0.189  15.845  0.0813  0.8935  0.7155
 1398TIP3    H225610   5.251   0.105  15.858  0.0792  0.6065 -0.8483
 1399TIP3   OH225611   1.486   2.394   3.870 -0.0140 -0.4437 -0.1863
 1399TIP3    H125612   1.563   2.413   3.818 -1.2569  0.8252 -1.6590
 1399TIP3    H225613   1.516   2.402   3.961  1.3734  0.9657 -0.7173
 1400TIP3   OH225614   1.010   1.365   0.831 -0.2134 -0.0623  0.1802
 1400TIP3    H125615   1.035   1.430   0.896 -0.2996  1.2455 -1.0304
 1400TIP3    H225616   1.092   1.341   0.788 -0.2431 -0.4201  0.3208
 1401TIP3   OH225617   2.023   5.999   3.799 -0.1542  0.0400  0.0548
 1401TIP3    H125618   1.957   5.937   3.830 -0.4797  0.4298  0.1442
 1401TIP3    H225619   2.075   6.019   3.876 -1.5806  1.7870  0.6380
 1402TIP3   OH225620   4.173   1.572  12.596  0.1669  0.0361 -0.4127
 1402TIP3    H125621   4.137   1.621  12.522 -1.2747  1.4329  1.0960
 1402TIP3    H225622   4.237   1.631  12.635 -0.5432  0.1648  0.5958
 1403TIP3   OH225623   0.053   2.299   3.877 -0.5754  0.3541  0.1086
 1403TIP3    H125624   0.096   2.223   3.915 -0.9740  1.1828  2.3838
 1403TIP3    H225625  -0.036   2.270   3.859  0.0623 -0.5281 -1.8857
 1404TIP3   OH225626   4.587   5.380  16.345  0.2229 -0.0734 -0.3502
 1404TIP3    H125627   4.511   5.427  16.379  0.7299  3.1375 -3.1349
 1404TIP3    H225628   4.619   5.329  16.419 -2.5998  1.1622  1.8917
 1405TIP3   OH225629   4.156   3.577   2.929  0.6445 -0.2972  0.1247
 1405TIP3    H125630   4.222   3.588   2.997  0.0541 -0.9087  0.8142
 1405TIP3    H225631   4.089   3.642   2.950 -0.1559 -1.3399  0.9088
 1406TIP3   OH225632   1.180   5.643   2.772  0.5484  0.2411 -0.7257
 1406TIP3    H125633   1.233   5.575   2.812  0.4909 -0.9497 -2.5819
 1406TIP3    H225634   1.140   5.689   2.846 -0.5983 -2.6651  0.5770
 1407TIP3   OH225635   3.964   5.460   5.592  0.0619 -0.3620  0.1199
 1407TIP3    H125636   3.931   5.474   5.503  2.0993  0.7087 -0.5314
 1407TIP3    H225637   3.890   5.423   5.639 -1.6280  0.6551 -1.5702
 1408TIP3   OH225638   0.765   5.457  11.625  0.0257  0.6030  0.0974
 1408TIP3    H125639   0.681   5.443  11.669  0.3807 -2.4514  0.0175
 1408TIP3    H225640   0.829   5.459  11.696  0.0742  1.0571  0.0414
 1409TIP3   OH225641   4.950   4.999   1.938  0.0545  0.1873 -0.1218
 1409TIP3    H125642   4.986   4.920   1.898  1.3046  1.5885 -1.9898
 1409TIP3    H225643   4.874   5.021   1.883  1.2677  1.6584 -1.2931
 1410TIP3   OH225644   0.503   3.679  16.495  0.2536  0.5296 -0.1803
 1410TIP3    H125645   0.474   3.733  16.421  0.9789  1.2846  0.0787
 1410TIP3    H225646   0.431   3.616  16.507  0.8120 -0.6865 -2.5495
 1411TIP3   OH225647   1.508   2.909   5.424  0.5470 -0.1306 -0.0884
 1411TIP3    H125648   1.504   2.937   5.515  0.8066  0.6229 -0.3029
 1411TIP3    H225649   1.481   2.817   5.426 -0.2169  0.0916  0.6438
 1412TIP3   OH225650   1.149   3.935   0.446 -0.4129  0.1486  0.5658
 1412TIP3    H125651   1.119   3.903   0.361 -1.0976  0.1966  0.7803
 1412TIP3    H225652   1.232   3.979   0.427  0.5413 -1.6965  0.2568
 1413TIP3   OH225653   2.208   0.244  14.365  0.1409 -0.2530  0.1908
 1413TIP3    H125654   2.293   0.279  14.340  0.0147 -1.1910 -1.7182
 1413TIP3    H225655   2.196   0.272  14.455  0.9745  2.7571 -0.5415
 1414TIP3   OH225656   4.507   6.441   1.044 -0.4658 -0.1563 -0.1394
 1414TIP3    H125657   4.475   6.351   1.031  1.3664 -0.7512 -0.9079
 1414TIP3    H225658   4.546   6.439   1.131  1.0250 -0.6160 -0.7825
 1415TIP3   OH225659   1.029   3.860   5.246 -0.2551  0.2981  0.5701
 1415TIP3    H125660   1.081   3.939   5.256 -0.2117  0.6238 -1.6999
 1415TIP3    H225661   0.954   3.887   5.193 -1.0676 -0.8634  1.0715
 1416TIP3   OH225662   6.647   2.694  12.246  0.0508  0.2278  0.3872
 1416TIP3    H125663   6.599   2.764  12.290 -0.5408 -0.4793  0.8973
 1416TIP3    H225664   6.736   2.729  12.236  0.0312  0.6815  1.5472
 1417TIP3   OH225665   2.672   2.908  11.184 -0.5243  0.0987 -0.3253
 1417TIP3    H125666   2.638   2.821  11.163  0.3550 -0.4309  0.3900
 1417TIP3    H225667   2.599   2.967  11.163 -0.5770 -0.6196 -2.3519
 1418TIP3   OH225668   6.734   1.419   2.342 -0.1335  0.1641  0.2245
 1418TIP3    H125669   6.768   1.424   2.431 -0.4665 -0.9074  0.4261
 1418TIP3    H225670   6.672   1.347   2.344 -0.4219  0.3672 -0.7918
 1419TIP3   OH225671   3.700   3.880  16.470  0.3063  0.2153  0.6686
 1419TIP3    H125672   3.647   3.841  16.539  0.3255  0.7797  1.0068
 1419TIP3    H225673   3.711   3.971  16.497 -0.2353  0.6121 -0.3941
 1420TIP3   OH225674   1.340   2.759  12.576 -0.5316 -0.0001 -0.3781
 1420TIP3    H125675   1.384   2.683  12.538  1.1727 -0.0670  1.5598
 1420TIP3    H225676   1.265   2.774  12.519  0.9500 -1.0561 -2.7561
 1421TIP3   OH225677   0.444   6.419   1.163 -0.2386  0.0843 -0.1274
 1421TIP3    H125678   0.414   6.329   1.151 -0.3753  0.1817 -0.5213
 1421TIP3    H225679   0.364   6.469   1.181 -0.6008  0.6673 -2.9946
 1422TIP3   OH225680   4.045   4.469   4.703  0.2959  0.0884 -0.1453
 1422TIP3    H125681   4.119   4.470   4.641  1.2744 -1.2366  0.9412
 1422TIP3    H225682   4.027   4.376   4.716 -0.0317  0.3497  1.3904
 1423TIP3   OH225683   6.691   5.282  12.035  0.2514 -0.2412  0.0050
 1423TIP3    H125684   6.731   5.349  12.089 -0.1239 -0.4364  0.5383
 1423TIP3    H225685   6.729   5.294  11.948  0.2477  0.6010  0.1185
 1424TIP3   OH225686   2.059   5.394   3.074  0.6164  0.5296  0.4842
 1424TIP3    H125687   2.009   5.427   3.149 -0.6700  3.2039 -1.4305
 1424TIP3    H225688   1.993   5.362   3.013  1.3773  1.5613 -0.9270
 1425TIP3   OH225689   0.595   3.965  16.483 -0.5583  0.1302 -0.8986
 1425TIP3    H125690   0.653   4.039  16.500 -1.5203  0.5310  0.9436
 1425TIP3    H225691   0.654   3.891  16.467  0.4905  0.5719  0.6824
 1426TIP3   OH225692   4.565   3.072   3.047 -0.4391  0.2087  0.1067
 1426TIP3    H125693   4.589   3.140   2.985 -0.0806  0.9371  1.0161
 1426TIP3    H225694   4.577   2.990   2.999 -0.5887  0.7710 -0.9048
 1427TIP3   OH225695   0.170   3.666   5.234  0.4066  0.7456 -0.5996
 1427TIP3    H125696   0.125   3.639   5.154  0.5537  1.2158 -0.8465
 1427TIP3    H225697   0.105   3.719   5.281  0.3286  0.4905 -0.4202
 1428TIP3   OH225698   6.791   3.732   4.831 -0.2284  0.3157  0.1248
 1428TIP3    H125699   6.844   3.807   4.804  0.2459  0.6449  1.8615
 1428TIP3    H225700   6.769   3.688   4.749  0.0967  1.9272 -0.8742
 1429TIP3   OH225701   0.531   3.117  16.859 -0.3180 -0.3358 -0.0464
 1429TIP3    H125702   0.551   3.210  16.849  1.1493 -0.4820  1.2041
 1429TIP3    H225703   0.461   3.114  16.924 -0.8552 -0.0956 -0.5974
 1430TIP3   OH225704   3.877   5.374  14.996 -0.2750 -0.6123  0.0473
 1430TIP3    H125705   3.826   5.333  15.066 -1.1270 -1.5441 -1.1066
 1430TIP3    H225706   3.933   5.304  14.963 -0.6768 -0.4678 -0.9460
 1431TIP3   OH225707   1.977   3.054  11.701 -0.0295  0.2085 -0.3729
 1431TIP3    H125708   1.976   3.091  11.789 -1.0966  1.3269 -0.8219
 1431TIP3    H225709   2.049   2.991  11.702  0.1114  0.3555  1.2269
 1432TIP3   OH225710   6.711   5.144  14.824 -0.7828 -0.3798 -0.3444
 1432TIP3    H125711   6.621   5.111  14.820 -1.1686  0.5749  0.1653
 1432TIP3    H225712   6.744   5.115  14.909 -0.7352 -0.4003 -0.3692
 1433TIP3   OH225713   3.961   1.846   5.422 -0.5987 -0.1952 -0.4497
 1433TIP3    H125714   4.023   1.809   5.485 -2.0569 -0.9839  0.5990
 1433TIP3    H225715   3.968   1.940   5.434 -0.3881 -0.3179  0.4559
 1434TIP3   OH225716   0.299   2.902   2.299  0.1369 -0.1146 -0.2340
 1434TIP3    H125717   0.389   2.889   2.269  0.0759  0.3686 -0.6400
 1434TIP3    H225718   0.273   2.985   2.260  0.7798  1.7198  2.8647
 1435TIP3   OH225719   2.306   5.615   3.043  0.5826  0.3065  0.3984
 1435TIP3    H125720   2.391   5.583   3.073  0.6686 -2.3930 -2.2448
 1435TIP3    H225721   2.242   5.567   3.096  0.7329 -0.7595 -0.3678
 1436TIP3   OH225722   5.071   0.764   3.770  0.2057 -0.0695  0.3933
 1436TIP3    H125723   5.007   0.835   3.757 -1.2454 -1.2789  0.5998
 1436TIP3    H225724   5.129   0.770   3.694  0.5371  1.7401  0.7446
 1437TIP3   OH225725   1.253   2.266   3.135  0.0110 -0.0789  0.4850
 1437TIP3    H125726   1.231   2.232   3.049  0.1516 -0.0352  0.4317
 1437TIP3    H225727   1.313   2.202   3.173  1.8902  1.0633 -0.4144
 1438TIP3   OH225728   5.822   3.845  14.087  0.0877 -0.0708  0.2126
 1438TIP3    H125729   5.900   3.792  14.070  0.4049  0.5855 -0.4087
 1438TIP3    H225730   5.778   3.800  14.159  0.2065 -1.3301 -0.4789
 1439TIP3   OH225731   0.840   4.583  11.457 -0.0191  0.4441  0.0656
 1439TIP3    H125732   0.877   4.656  11.407 -1.5703  1.1524 -0.1055
 1439TIP3    H225733   0.748   4.579  11.429  0.0808 -1.7328 -0.1063
 1440TIP3   OH225734   1.868   1.435   4.537 -0.0195  0.0666  0.1087
 1440TIP3    H125735   1.906   1.353   4.505 -0.3301  0.2664 -0.8050
 1440TIP3    H225736   1.785   1.443   4.490  1.0742  2.0639 -1.6687
 1441TIP3   OH225737   1.605   4.232   5.924 -0.5668  0.7673  0.7858
 1441TIP3    H125738   1.565   4.315   5.949 -1.3704  0.3728  0.8363
 1441TIP3    H225739   1.549   4.197   5.855  0.0163  0.4725  0.4493
 1442TIP3   OH225740   0.533   5.675  15.297  0.3030 -0.6451 -0.4385
 1442TIP3    H125741   0.521   5.581  15.283 -1.2948 -0.4988 -0.2119
 1442TIP3    H225742   0.447   5.706  15.326  0.7481  0.9339 -0.7384
 1443TIP3   OH225743   4.418   2.511  11.508 -0.9846 -0.1179 -0.3285
 1443TIP3    H125744   4.446   2.430  11.466 -1.0872  0.8600 -2.3847
 1443TIP3    H225745   4.414   2.575  11.437  0.9983  2.2504  1.5185
 1444TIP3   OH225746   2.932   3.179   0.952 -0.4616  0.1505  0.7745
 1444TIP3    H125747   2.849   3.188   0.905  0.4820  1.6155 -0.6857
 1444TIP3    H225748   2.910   3.200   1.043 -1.6202  0.9026  0.3401
 1445TIP3   OH225749   6.094   6.207  12.406  0.7650  0.5567  0.5767
 1445TIP3    H125750   6.044   6.196  12.487 -0.9909  0.7373 -0.4303
 1445TIP3    H225751   6.040   6.264  12.352  1.1102 -0.8394 -1.3417
 1446TIP3   OH225752   0.530   2.782  11.262 -0.1912  0.2982  0.3287
 1446TIP3    H125753   0.522   2.877  11.253  0.4934  0.2023 -2.0248
 1446TIP3    H225754   0.453   2.756  11.313 -1.1271  1.9743 -0.1454
 1447TIP3   OH225755   5.259   0.382   3.915  0.1364 -0.3258  0.1045
 1447TIP3    H125756   5.257   0.457   3.856 -1.0393 -1.1441 -0.9461
 1447TIP3    H225757   5.193   0.401   3.981  2.4217  1.2571  2.1207
 1448TIP3   OH225758   6.253   5.169  11.844  0.0075 -0.6614 -0.3875
 1448TIP3    H125759   6.220   5.111  11.775  0.3036 -0.7169 -0.4856
 1448TIP3    H225760   6.215   5.254  11.824  0.4970 -0.5634 -0.9138
 1449TIP3   OH225761   0.108   0.405  11.797  0.1874 -0.1647  0.3740
 1449TIP3    H125762   0.039   0.351  11.836  1.5366 -0.8645  1.9258
 1449TIP3    H225763   0.119   0.371  11.709  0.7810 -2.2671  1.2141
 1450TIP3   OH225764   4.736   1.665  13.374  0.1802 -0.5839 -0.2535
 1450TIP3    H125765   4.674   1.618  13.430 -0.8648  1.6999  0.6155
 1450TIP3    H225766   4.701   1.654  13.285 -0.2230 -1.1412 -0.0347
 1451TIP3   OH225767   2.620   6.127   0.149  0.3065 -0.0927  0.5719
 1451TIP3    H125768   2.539   6.157   0.191  1.0860  1.1859  1.2494
 1451TIP3    H225769   2.643   6.047   0.196 -0.8224 -0.7843  0.0070
 1452TIP3   OH225770   0.937   1.072  16.384  0.5665 -0.2321 -0.5746
 1452TIP3    H125771   0.869   1.047  16.321 -0.1004  0.6216 -0.2123
 1452TIP3    H225772   0.987   1.140  16.339 -1.4540  2.2359  0.6411
 1453TIP3   OH225773   3.076   3.332   1.784  0.1440  0.4701 -0.2194
 1453TIP3    H125774   3.134   3.344   1.860 -0.6386  2.6326  0.1194
 1453TIP3    H225775   3.125   3.276   1.724  1.5681  0.2786  1.0670
 1454TIP3   OH225776   3.788   4.672   5.319  0.1798 -0.2243 -0.5173
 1454TIP3    H125777   3.850   4.679   5.392  1.4028 -2.1553 -1.2827
 1454TIP3    H225778   3.819   4.734   5.254 -0.8014  1.3670  0.4754
 1455TIP3   OH225779   0.519   6.718  13.640  0.3343 -0.8531  0.6547
 1455TIP3    H125780   0.533   6.660  13.565  1.4764 -0.4249  0.5170
 1455TIP3    H225781   0.429   6.702  13.667 -0.6712  0.1700 -1.8330
 1456TIP3   OH225782   2.544   5.359  14.768 -0.2939 -0.0412 -0.5161
 1456TIP3    H125783   2.508   5.441  14.733  1.2895  1.1701  0.5060
 1456TIP3    H225784   2.612   5.335  14.705  1.7552  1.5058  0.9600
 1457TIP3   OH225785   6.517   2.972  15.208  0.4689  0.0228  0.4816
 1457TIP3    H125786   6.445   2.937  15.157  0.2171 -0.5748  1.2340
 1457TIP3    H225787   6.513   2.926  15.292  2.5374 -1.0277  0.0883
 1458TIP3   OH225788   6.022   3.234  16.895  0.3079 -0.3862  0.8254
 1458TIP3    H125789   6.033   3.329  16.891  1.8192 -0.5305  0.9287
 1458TIP3    H225790   5.929   3.220  16.879  0.5240  0.9328 -2.2698
 1459TIP3   OH225791   3.230   0.720  14.628 -0.0134  0.0759  0.5004
 1459TIP3    H125792   3.284   0.676  14.563 -0.2200 -0.2881  0.5723
 1459TIP3    H225793   3.217   0.808  14.593  2.3341  0.8860  1.4348
 1460TIP3   OH225794   6.246   6.458   1.153  0.3508 -0.5700 -0.2517
 1460TIP3    H125795   6.339   6.454   1.177  0.2359 -0.0808  0.2919
 1460TIP3    H225796   6.200   6.434   1.233 -0.0267  0.4382 -0.1539
 1461TIP3   OH225797   4.737   0.043  11.433 -1.1640  0.1914  0.2978
 1461TIP3    H125798   4.781  -0.042  11.437  0.9400  1.1290 -1.0859
 1461TIP3    H225799   4.698   0.046  11.346 -1.7207  0.4179  0.5544
 1462TIP3   OH225800   5.570   0.635  15.609 -0.1480  1.1418 -0.0525
 1462TIP3    H125801   5.527   0.710  15.570  0.6927  1.5696 -0.1801
 1462TIP3    H225802   5.628   0.672  15.675  0.8001  0.6793 -0.5959
 1463TIP3   OH225803   6.121   0.134  15.580  0.2775 -0.4533 -0.1503
 1463TIP3    H125804   6.170   0.199  15.630  2.2124 -1.5512 -0.5086
 1463TIP3    H225805   6.184   0.063  15.565 -0.8701 -1.1173 -2.2738
 1464TIP3   OH225806   4.956   3.055   6.638 -0.1530  0.3091  0.1379
 1464TIP3    H125807   4.908   2.995   6.581 -2.3505  0.6476  1.4998
 1464TIP3    H225808   5.018   2.999   6.685 -0.3349 -0.4445 -0.4995
 1465TIP3   OH225809   1.064   5.028   0.365  0.0724  0.2800 -0.1019
 1465TIP3    H125810   1.043   4.936   0.354 -1.8188  0.8552 -2.2431
 1465TIP3    H225811   1.105   5.054   0.283  0.5543  1.3447  0.4518
 1466TIP3   OH225812   2.884   1.321  16.736 -0.6639  0.1558  0.3222
 1466TIP3    H125813   2.827   1.261  16.689 -0.4665 -1.0039  1.5005
 1466TIP3    H225814   2.965   1.322  16.685 -0.3611 -1.2758  0.7298
 1467TIP3   OH225815   6.781   0.101  12.490  0.2537 -0.4851  0.6274
 1467TIP3    H125816   6.725   0.026  12.472  1.5329 -1.6478  1.2681
 1467TIP3    H225817   6.852   0.066  12.545  1.8580  0.7991 -0.5103
 1468TIP3   OH225818   0.976   3.563  15.571  0.5708 -0.0086 -0.2967
 1468TIP3    H125819   0.977   3.620  15.648  0.5036 -1.0097  0.4752
 1468TIP3    H225820   0.947   3.478  15.606  0.6208 -0.4964 -1.4210
 1469TIP3   OH225821   0.837   3.745   1.605  0.0431 -0.1920  0.1244
 1469TIP3    H125822   0.862   3.832   1.576 -0.6242  0.9465  2.7222
 1469TIP3    H225823   0.921   3.700   1.619  0.3918  0.0748 -0.9974
 1470TIP3   OH225824   0.734   5.057  13.581  0.0239 -0.1367 -0.1373
 1470TIP3    H125825   0.710   5.121  13.648 -0.5117  1.1012 -1.4755
 1470TIP3    H225826   0.671   4.986  13.592  0.2900 -0.2226  1.0106
 1471TIP3   OH225827   6.006   2.521  16.270  0.6475 -0.2544  0.1271
 1471TIP3    H125828   5.972   2.559  16.190  1.9181  1.0486  0.1535
 1471TIP3    H225829   5.931   2.479  16.311 -0.4671  0.8134 -0.7480
 1472TIP3   OH225830   3.385   5.756  12.386  0.1085 -0.1640  0.5759
 1472TIP3    H125831   3.393   5.852  12.387 -1.6532  0.0202  2.5682
 1472TIP3    H225832   3.294   5.739  12.362 -0.0047 -1.2736  1.6902
 1473TIP3   OH225833   0.271   2.040   0.682  0.1661 -0.1874 -0.0990
 1473TIP3    H125834   0.237   2.092   0.755  0.9761 -0.0059  0.1528
 1473TIP3    H225835   0.207   2.053   0.612  0.5858  1.5270 -0.2073
 1474TIP3   OH225836   0.210   2.154   3.024 -0.1062 -0.2157  0.5722
 1474TIP3    H125837   0.190   2.150   3.118 -1.0734 -0.3620  0.3747
 1474TIP3    H225838   0.264   2.232   3.014 -1.9551  1.1748  0.9288
 1475TIP3   OH225839   6.550   5.898   2.595 -0.1978 -0.6028 -0.4637
 1475TIP3    H125840   6.617   5.947   2.641 -1.8289  1.0802  0.2717
 1475TIP3    H225841   6.556   5.929   2.504 -0.3813  0.0410 -0.2639
 1476TIP3   OH225842   5.563   5.252  15.659  0.4282  0.2894 -0.2292
 1476TIP3    H125843   5.641   5.266  15.712 -0.4853  0.0572  1.2568
 1476TIP3    H225844   5.498   5.313  15.695 -1.0871 -1.8287  0.8791
 1477TIP3   OH225845   5.465   4.485  12.751 -0.2899  0.2239 -0.6993
 1477TIP3    H125846   5.447   4.560  12.807 -1.1423 -0.7183  0.3465
 1477TIP3    H225847   5.404   4.494  12.678 -0.5966  0.3922 -0.4248
 1478TIP3   OH225848   1.345   2.512   0.899 -0.2182  0.5130 -0.2017
 1478TIP3    H125849   1.439   2.526   0.910 -0.2947  0.1061  1.1480
 1478TIP3    H225850   1.338   2.425   0.859 -0.0047  0.9239 -1.1571
 1479TIP3   OH225851   0.930   3.085   3.101  0.4370 -0.4114 -0.3356
 1479TIP3    H125852   0.884   3.169   3.107 -1.4683 -1.3194 -1.2377
 1479TIP3    H225853   1.019   3.108   3.076  1.1653  1.5636  3.2998
 1480TIP3   OH225854   3.741   5.123  14.745 -0.6733 -0.8426 -0.5033
 1480TIP3    H125855   3.694   5.174  14.811  0.6393 -0.3525  0.0670
 1480TIP3    H225856   3.731   5.173  14.664  1.4894  0.9404  0.2521
 1481TIP3   OH225857   1.099   1.133  11.911 -0.9445  0.7640 -0.2202
 1481TIP3    H125858   1.172   1.195  11.905  0.7636 -1.1770 -0.7224
 1481TIP3    H225859   1.097   1.107  12.003  0.4817 -0.7987 -0.5929
 1482TIP3   OH225860   1.303   3.570   5.925  0.5715  0.1384  0.2626
 1482TIP3    H125861   1.265   3.493   5.966  0.9375  0.4290  1.1737
 1482TIP3    H225862   1.396   3.548   5.916  0.5535  0.2058 -0.1379
 1483TIP3   OH225863   4.848   2.803   5.293  0.1959  0.1387  0.2720
 1483TIP3    H125864   4.776   2.741   5.303  0.8363 -1.1046 -2.0407
 1483TIP3    H225865   4.850   2.822   5.200  0.3960  3.2844  0.8363
 1484TIP3   OH225866   6.075   5.070   5.618 -0.1537  0.7030  0.0722
 1484TIP3    H125867   6.014   4.997   5.632 -1.8523  1.7086 -1.6815
 1484TIP3    H225868   6.097   5.066   5.525  0.9824  1.5129  0.2889
 1485TIP3   OH225869   2.925   4.016  16.318  0.3837  0.0307  0.0236
 1485TIP3    H125870   2.884   4.015  16.231  1.7014 -0.9665 -0.6100
 1485TIP3    H225871   2.983   3.941  16.318  2.8239  1.7971  0.5919
 1486TIP3   OH225872   6.330   4.689   4.219 -0.0101 -0.0583  0.2795
 1486TIP3    H125873   6.418   4.712   4.188 -0.4006 -0.2119 -1.0364
 1486TIP3    H225874   6.344   4.648   4.304  1.3053 -1.0815 -0.3975
 1487TIP3   OH225875   5.849   2.024   5.248 -0.4300 -1.0132  0.0753
 1487TIP3    H125876   5.873   2.004   5.157 -2.0778 -0.5148 -0.4955
 1487TIP3    H225877   5.763   2.064   5.242 -0.2849 -0.3699  1.8270
 1488TIP3   OH225878   3.894   4.469   6.443 -0.0917  0.9642  0.2799
 1488TIP3    H125879   3.941   4.451   6.361 -1.7548  2.0642 -0.9905
 1488TIP3    H225880   3.804   4.442   6.425 -0.4276  0.9755  1.8570
 1489TIP3   OH225881   1.576   1.338   5.917  0.5190  0.0777  0.2494
 1489TIP3    H125882   1.595   1.391   5.994 -0.0319  2.1008 -0.9330
 1489TIP3    H225883   1.654   1.283   5.906  0.7242 -0.0580  2.0374
 1490TIP3   OH225884   2.127   4.229  11.315  0.7193 -0.1392 -0.5855
 1490TIP3    H125885   2.203   4.243  11.373 -0.6231 -1.4906  1.6308
 1490TIP3    H225886   2.107   4.136  11.324 -0.2545 -0.1476 -2.4037
 1491TIP3   OH225887   5.156   4.716  16.070  0.1534  0.3084 -0.2757
 1491TIP3    H125888   5.174   4.749  16.158 -0.1444  1.3770 -0.6053
 1491TIP3    H225889   5.242   4.710  16.029  0.2769 -0.0251  0.0217
 1492TIP3   OH225890   4.658   2.961   1.783 -0.3344  0.3786  0.1604
 1492TIP3    H125891   4.688   3.052   1.785 -0.3411  0.4298 -1.0116
 1492TIP3    H225892   4.702   2.919   1.856 -0.2091  1.2933  0.6221
 1493TIP3   OH225893   3.734   2.148   5.613  0.1394  0.2707  0.0328
 1493TIP3    H125894   3.815   2.198   5.621 -0.4786  1.3131 -0.0703
 1493TIP3    H225895   3.664   2.213   5.623 -0.6872 -0.3796 -1.2761
 1494TIP3   OH225896   4.905   1.431   3.575 -0.1793 -0.2226 -0.3103
 1494TIP3    H125897   4.844   1.483   3.628 -0.4182  0.7174 -1.4594
 1494TIP3    H225898   4.852   1.360   3.540  0.4939 -2.3319  2.5842
 1495TIP3   OH225899   4.680   5.612   0.786  0.6355  0.6735  0.3913
 1495TIP3    H125900   4.730   5.556   0.727  1.1360  0.5767  0.8902
 1495TIP3    H225901   4.688   5.700   0.749 -0.8133  0.3212 -0.8340
 1496TIP3   OH225902   0.524   4.839  15.311 -0.2393  0.1770  0.0578
 1496TIP3    H125903   0.566   4.791  15.382  0.2689 -1.3730 -1.2357
 1496TIP3    H225904   0.587   4.836  15.239 -1.9997 -1.1298 -1.5335
 1497TIP3   OH225905   2.779   0.207   5.978 -0.3565 -0.3033  0.0301
 1497TIP3    H125906   2.837   0.135   5.953  1.2033  0.8792  0.1116
 1497TIP3    H225907   2.837   0.273   6.017 -1.7840  0.8608  0.2981
 1498TIP3   OH225908   1.465   3.527   0.900  0.1328 -0.2566 -0.4948
 1498TIP3    H125909   1.523   3.515   0.975 -0.1498 -0.1769 -0.2650
 1498TIP3    H225910   1.437   3.439   0.877 -1.1548 -0.1595  0.5776
 1499TIP3   OH225911   1.203   2.196  13.474  0.2950  0.0166 -0.3400
 1499TIP3    H125912   1.242   2.121  13.518  0.6261  0.8483  0.8496
 1499TIP3    H225913   1.173   2.253  13.545  1.9011  1.9715 -1.1192
 1500TIP3   OH225914   2.022   0.380   3.281 -0.3689  0.3300  0.3697
 1500TIP3    H125915   1.943   0.386   3.228  0.9092  0.1905 -1.6413
 1500TIP3    H225916   2.057   0.293   3.263 -0.7356 -0.3884  2.7673
 1501TIP3   OH225917   5.225   3.387  13.407  0.0131 -0.4772  0.1610
 1501TIP3    H125918   5.257   3.424  13.325 -0.6613 -0.0172  0.0978
 1501TIP3    H225919   5.303   3.352  13.450  0.4478 -0.2557 -0.4350
 1502TIP3   OH225920   6.596   6.772  11.174  0.1119 -0.0737 -0.2525
 1502TIP3    H125921   6.555   6.740  11.093  0.3617  0.5739 -0.6475
 1502TIP3    H225922   6.616   6.864  11.156  1.3846 -0.2589  0.0532
 1503TIP3   OH225923   5.540   3.732  15.156 -0.2697  0.0097 -0.3894
 1503TIP3    H125924   5.500   3.749  15.071 -0.8492  0.7375  0.0139
 1503TIP3    H225925   5.488   3.783  15.218 -0.0128 -0.7021  0.4403
 1504TIP3   OH225926   6.139   4.344  12.852  0.0344  0.1728  0.4401
 1504TIP3    H125927   6.191   4.370  12.929  0.8119  0.2069 -0.0836
 1504TIP3    H225928   6.203   4.342  12.781 -0.0744 -2.6946  0.3306
 1505TIP3   OH225929   6.501   0.637  13.452 -0.8392 -0.6300 -0.2570
 1505TIP3    H125930   6.477   0.595  13.534 -0.8894 -0.0683  0.0212
 1505TIP3    H225931   6.574   0.584  13.418  0.3050  0.0757  0.9745
 1506TIP3   OH225932   3.494   6.595   1.774 -0.6566  0.2676  0.0974
 1506TIP3    H125933   3.546   6.516   1.757 -1.1113 -0.1492  0.5732
 1506TIP3    H225934   3.480   6.593   1.869 -2.2559 -0.0975 -0.1278
 1507TIP3   OH225935   3.967   4.756   2.210  0.2681  0.3663  0.1101
 1507TIP3    H125936   4.007   4.686   2.159 -1.5284 -0.1159 -0.7296
 1507TIP3    H225937   4.036   4.820   2.222  1.4388 -0.7036 -0.7115
 1508TIP3   OH225938   4.376   3.363  11.810 -0.1646 -0.1050  0.0968
 1508TIP3    H125939   4.401   3.327  11.895  0.2688  0.9218  0.4214
 1508TIP3    H225940   4.440   3.327  11.749  1.2004  1.2403  0.6610
 1509TIP3   OH225941   6.376   4.131   3.105  0.7430 -0.3173  0.2474
 1509TIP3    H125942   6.466   4.108   3.085  1.9611  2.3937  1.9181
 1509TIP3    H225943   6.352   4.196   3.038  0.5351 -0.0486  0.5753
 1510TIP3   OH225944   5.493   6.370  13.310 -0.0937 -0.7013  0.1640
 1510TIP3    H125945   5.472   6.449  13.260  0.3087 -0.9164 -0.3510
 1510TIP3    H225946   5.574   6.392  13.355 -0.0354 -0.7827  0.0995
 1511TIP3   OH225947   5.239   3.738   2.771  0.5483  0.3145 -0.1387
 1511TIP3    H125948   5.227   3.818   2.822 -1.2932 -0.3694  0.6027
 1511TIP3    H225949   5.318   3.699   2.807  0.2182  0.7004  1.0674
 1512TIP3   OH225950   1.112   1.770  15.506 -0.3321 -0.2537 -0.5691
 1512TIP3    H125951   1.134   1.679  15.488 -1.1968 -0.4879 -0.5099
 1512TIP3    H225952   1.078   1.770  15.596 -0.8379  0.0236 -0.7516
 1513TIP3   OH225953   6.193   3.333  14.855 -0.4091  0.1031  0.1092
 1513TIP3    H125954   6.187   3.361  14.764 -0.5391 -1.8683 -0.5263
 1513TIP3    H225955   6.213   3.413  14.903  1.5499  0.8796 -1.8636
 1514TIP3   OH225956   1.474   2.563   1.301 -0.3994 -0.4131 -0.0592
 1514TIP3    H125957   1.420   2.632   1.263 -0.2003 -0.7578 -0.9886
 1514TIP3    H225958   1.531   2.534   1.229  0.1181 -0.9467  0.5506
 1515TIP3   OH225959   0.732   5.165  16.901 -0.2579 -0.4971 -0.3971
 1515TIP3    H125960   0.655   5.213  16.931 -1.8928 -2.0431 -1.8907
 1515TIP3    H225961   0.707   5.073  16.909  1.7994 -1.0727 -0.0917
 1516TIP3   OH225962   1.739   3.828   4.023 -0.5404  0.4378 -0.7896
 1516TIP3    H125963   1.686   3.749   4.013 -1.0789  0.6568  0.1872
 1516TIP3    H225964   1.770   3.825   4.114  1.3437  0.1941 -1.4078
 1517TIP3   OH225965   0.638   4.786  13.592  0.0857  0.1382 -0.7504
 1517TIP3    H125966   0.582   4.711  13.574  2.4546 -2.2137  1.0231
 1517TIP3    H225967   0.601   4.825  13.671 -0.4875  0.1959 -1.0354
 1518TIP3   OH225968   2.481   4.577  10.976  0.4802 -0.0446 -0.0485
 1518TIP3    H125969   2.401   4.534  10.945  0.5593 -0.0811 -0.2089
 1518TIP3    H225970   2.552   4.520  10.944  0.5037 -1.5560  2.4411
 1519TIP3   OH225971   5.671   1.644   4.664 -0.3211  0.6746 -0.2743
 1519TIP3    H125972   5.577   1.659   4.677 -0.6730 -1.0571 -0.4761
 1519TIP3    H225973   5.714   1.713   4.714 -1.6837 -0.4311  2.6788
 1520TIP3   OH225974   3.855   3.533  16.220  0.0143 -0.1478 -0.4036
 1520TIP3    H125975   3.797   3.510  16.293 -0.1232 -1.2676 -0.8307
 1520TIP3    H225976   3.837   3.625  16.203 -0.4110 -0.0377  0.5638
 1521TIP3   OH225977   0.472   2.315   3.374 -0.4489  0.2812 -0.1826
 1521TIP3    H125978   0.565   2.327   3.396 -0.5853 -1.0130  1.2705
 1521TIP3    H225979   0.469   2.231   3.330 -0.9605  0.2009  0.0047
 1522TIP3   OH225980   2.535   3.924   5.880 -0.0094 -0.1662 -0.0879
 1522TIP3    H125981   2.527   4.006   5.832  1.3773 -0.4370 -0.8369
 1522TIP3    H225982   2.629   3.912   5.892 -0.2694 -0.6714  1.7609
 1523TIP3   OH225983   0.306   4.225  15.562  1.0131 -0.0485  0.3066
 1523TIP3    H125984   0.242   4.196  15.497  0.3756  0.5052  0.6759
 1523TIP3    H225985   0.307   4.321  15.555  0.8897  0.0252  1.1508
 1524TIP3   OH225986   3.000   1.780   4.139 -0.0881  0.0478 -0.1867
 1524TIP3    H125987   2.952   1.701   4.112 -1.9642  2.0633 -3.4634
 1524TIP3    H225988   2.943   1.820   4.205 -1.2605  0.6518 -1.5108
 1525TIP3   OH225989   1.644   3.974  14.254 -0.0687 -0.3910 -0.9036
 1525TIP3    H125990   1.606   4.017  14.177  1.7400 -0.9675 -2.1918
 1525TIP3    H225991   1.690   3.898  14.219  1.5630 -0.1780  0.6281
 1526TIP3   OH225992   4.346   4.816  11.598 -0.4721  0.1228  0.2302
 1526TIP3    H125993   4.402   4.808  11.521  0.0739  0.0044  0.6349
 1526TIP3    H225994   4.281   4.746  11.588  1.4988 -2.0167  1.4284
 1527TIP3   OH225995   0.778   3.993  15.887  0.2111  0.8132  0.8513
 1527TIP3    H125996   0.748   3.934  15.818  3.8092 -0.7133  0.3544
 1527TIP3    H225997   0.790   3.935  15.963 -0.1601  1.7581  1.6467
 1528TIP3   OH225998   1.822   5.095  16.286  0.2689 -0.2409 -0.2907
 1528TIP3    H125999   1.835   5.005  16.255 -0.0505 -1.1447  2.0399
 1528TIP3    H226000   1.815   5.087  16.381 -1.4600  2.0583 -0.1577
 1529TIP3   OH226001   6.577   2.107   5.454  0.4858  0.8359  0.4284
 1529TIP3    H126002   6.631   2.175   5.413  0.1359  0.0690 -1.3677
 1529TIP3    H226003   6.488   2.141   5.451 -0.0627 -0.5492 -2.5979
 1530TIP3   OH226004   1.878   0.132   3.944 -0.0921  0.2829 -0.4138
 1530TIP3    H126005   1.891   0.170   3.857  3.5935  2.4955  0.8886
 1530TIP3    H226006   1.791   0.163   3.971  0.3112  2.8816 -1.7982
 1531TIP3   OH226007   5.914   5.508   3.813  0.6938  0.5555 -0.1946
 1531TIP3    H126008   5.828   5.468   3.803  0.9321 -0.1215  0.3781
 1531TIP3    H226009   5.966   5.442   3.860  1.5746  0.8757 -0.6827
 1532TIP3   OH226010   0.574   0.515  11.217  0.0102  0.4833  0.2602
 1532TIP3    H126011   0.630   0.590  11.197  1.3892 -0.2147  1.3486
 1532TIP3    H226012   0.595   0.450  11.150  0.8103  0.0735  0.9010
 1533TIP3   OH226013   5.670   3.633   1.334 -0.2923 -0.0652 -0.3371
 1533TIP3    H126014   5.707   3.597   1.253  1.0969 -1.0098  0.6720
 1533TIP3    H226015   5.576   3.631   1.320 -0.2395 -2.7916 -0.9306
 1534TIP3   OH226016   6.611   1.292   5.226  0.1161 -0.0739 -0.1525
 1534TIP3    H126017   6.525   1.300   5.185 -0.2110  1.3576  0.7106
 1534TIP3    H226018   6.637   1.201   5.213 -0.9116 -0.1798 -1.6204
 1535TIP3   OH226019   2.544   4.053   4.260 -0.1714 -0.5227 -0.3314
 1535TIP3    H126020   2.596   4.115   4.311  1.1279 -1.2920 -0.6898
 1535TIP3    H226021   2.470   4.031   4.317  0.4554 -0.2158  0.6213
 1536TIP3   OH226022   1.246   5.753   5.275  0.3675 -0.0918  0.6221
 1536TIP3    H126023   1.242   5.767   5.370 -0.9671  0.1066  0.5623
 1536TIP3    H226024   1.254   5.659   5.264  1.4242 -0.0429  0.9409
 1537TIP3   OH226025   6.412   0.162   5.677 -0.3545 -0.2053 -0.4744
 1537TIP3    H126026   6.448   0.092   5.732  0.2584  1.7287  1.7448
 1537TIP3    H226027   6.404   0.237   5.736  1.6360  2.4935 -3.3184
 1538TIP3   OH226028   4.828   4.163   5.669 -0.5496 -0.1914  0.1371
 1538TIP3    H126029   4.879   4.155   5.588  0.2946 -1.5795  0.7722
 1538TIP3    H226030   4.781   4.246   5.659  1.6945  1.0820 -0.5414
 1539TIP3   OH226031   5.979   1.027  15.221 -0.0877  0.5242  0.0968
 1539TIP3    H126032   5.927   1.067  15.292  0.7634 -1.4222  1.9230
 1539TIP3    H226033   5.925   0.953  15.192 -0.1580  0.9627 -0.9155
 1540TIP3   OH226034   2.686   1.479   3.159 -0.0912  0.0944  0.1716
 1540TIP3    H126035   2.743   1.409   3.192 -0.4422 -1.0347 -1.5290
 1540TIP3    H226036   2.599   1.440   3.157 -0.2466  0.4774 -1.0556
 1541TIP3   OH226037   3.339   5.575   4.823  0.3496 -0.6882 -0.5642
 1541TIP3    H126038   3.274   5.549   4.758  0.5773 -1.2297 -0.5837
 1541TIP3    H226039   3.307   5.538   4.906 -0.3975  0.7504 -0.1875
 1542TIP3   OH226040   6.353   2.558  11.300 -0.8320  0.0977  0.2089
 1542TIP3    H126041   6.431   2.502  11.293  0.3982  1.9469 -2.2009
 1542TIP3    H226042   6.379   2.640  11.260 -3.7478  1.1551  0.2961
 1543TIP3   OH226043   4.496   5.474   2.548 -0.1602 -0.2465  0.1423
 1543TIP3    H126044   4.488   5.563   2.515  1.8292 -0.2934 -0.6068
 1543TIP3    H226045   4.510   5.421   2.469  3.0640 -0.5780  0.8109
 1544TIP3   OH226046   4.611   0.754  12.166  0.2766  0.7315 -0.1086
 1544TIP3    H126047   4.663   0.832  12.182  0.1186  0.7743  0.1916
 1544TIP3    H226048   4.594   0.717  12.252 -0.1871  0.7153 -0.2013
 1545TIP3   OH226049   4.875   5.653   5.866 -0.1116 -0.2551 -0.2335
 1545TIP3    H126050   4.926   5.645   5.947 -1.9190 -1.8033  0.8338
 1545TIP3    H226051   4.837   5.566   5.853 -0.9974  0.3522 -1.9760
 1546TIP3   OH226052   6.126   1.764   4.130  0.0005  0.2531 -0.5314
 1546TIP3    H126053   6.165   1.844   4.166  1.6328 -0.4582 -0.6218
 1546TIP3    H226054   6.046   1.752   4.180  1.1628  0.4159  1.4794
 1547TIP3   OH226055   0.068   5.968  11.876 -0.2730  0.2828 -0.4021
 1547TIP3    H126056   0.158   5.957  11.847 -0.1631  1.3269 -0.4913
 1547TIP3    H226057   0.020   5.993  11.797 -0.8157 -0.9963 -0.5204
 1548TIP3   OH226058   3.671   6.437  14.095 -0.2980  0.3181 -0.3741
 1548TIP3    H126059   3.744   6.383  14.066 -0.7334  1.1327 -3.2937
 1548TIP3    H226060   3.599   6.415  14.036 -1.0587  2.6336 -0.4401
 1549TIP3   OH226061   1.013   6.349   0.332  0.0314  0.3381 -0.1797
 1549TIP3    H126062   0.964   6.306   0.262 -0.7982  0.9119  0.0305
 1549TIP3    H226063   0.945   6.388   0.388  0.5935 -1.2795  1.7388
 1550TIP3   OH226064   3.541   0.728  10.968  0.0491 -0.1014 -0.2708
 1550TIP3    H126065   3.511   0.810  10.929  0.0623  0.7327  1.3959
 1550TIP3    H226066   3.549   0.746  11.062 -1.2555 -2.4037  0.3739
 1551TIP3   OH226067   1.063   6.602  15.905 -0.5619  0.3547 -0.0341
 1551TIP3    H126068   1.005   6.676  15.926  0.4798  2.0598 -2.6146
 1551TIP3    H226069   1.150   6.632  15.932 -0.4761 -1.1315  1.4629
 1552TIP3   OH226070   6.019   2.608   1.566 -0.2333  0.3351  0.2622
 1552TIP3    H126071   5.968   2.658   1.630  1.5691  1.5340  0.8532
 1552TIP3    H226072   6.094   2.665   1.545  2.2725 -2.2873  1.4028
 1553TIP3   OH226073   4.696   5.212   0.530 -0.4756  0.3206 -0.0424
 1553TIP3    H126074   4.789   5.231   0.540 -0.5788  0.0195  1.8800
 1553TIP3    H226075   4.672   5.251   0.447  1.2306  0.9451 -0.2758
 1554TIP3   OH226076   0.217   2.187  12.979  0.4499  0.5269 -0.0781
 1554TIP3    H126077   0.244   2.173  12.888  0.1196 -2.7230  0.1860
 1554TIP3    H226078   0.261   2.117  13.028 -3.2882 -1.1004  1.3737
 1555TIP3   OH226079   0.582   0.890  13.458  0.1679  0.0431  0.3346
 1555TIP3    H126080   0.502   0.867  13.410  0.0856  1.3469 -0.2038
 1555TIP3    H226081   0.635   0.810  13.457 -1.0118 -0.7671  0.4843
 1556TIP3   OH226082   2.312   2.663  14.507 -0.5127 -0.5879  0.5342
 1556TIP3    H126083   2.384   2.600  14.495 -1.1439 -1.2749  0.2616
 1556TIP3    H226084   2.233   2.609  14.508 -1.1036  0.2446 -0.0922
 1557TIP3   OH226085   5.581   0.135   6.627  0.7051 -0.0772  0.3304
 1557TIP3    H126086   5.665   0.109   6.591  0.5235 -2.6277  1.4871
 1557TIP3    H226087   5.525   0.151   6.551  1.4690 -1.1473 -0.4770
 1558TIP3   OH226088   5.590   5.190   6.442  0.3628  0.1671  0.5960
 1558TIP3    H126089   5.531   5.123   6.478 -0.3820 -0.1568 -1.1308
 1558TIP3    H226090   5.618   5.241   6.519  3.0868 -3.6393  2.4176
 1559TIP3   OH226091   5.371   5.873  14.571 -0.2847  0.0798 -0.7827
 1559TIP3    H126092   5.418   5.881  14.654  1.9497  0.2756 -1.9746
 1559TIP3    H226093   5.329   5.787  14.576 -1.7511  0.8334  1.2345
 1560TIP3   OH226094   3.647   3.527  17.015 -0.3439  0.1302  0.1740
 1560TIP3    H126095   3.662   3.458  17.079  1.9546 -1.7608 -2.1687
 1560TIP3    H226096   3.559   3.560  17.035 -0.2271 -1.1929  3.4096
 1561TIP3   OH226097   3.010   3.724   5.008 -0.5767 -0.1061 -0.8310
 1561TIP3    H126098   2.960   3.646   4.984 -1.0439  0.1669 -0.7724
 1561TIP3    H226099   3.009   3.725   5.103 -0.3353 -0.1750 -0.8273
 1562TIP3   OH226100   1.098   1.499   3.052 -0.1880 -0.3761  0.3673
 1562TIP3    H126101   1.111   1.497   3.147 -1.1779 -2.0314  0.5025
 1562TIP3    H226102   1.150   1.574   3.023 -0.4031  0.5887  2.2890
 1563TIP3   OH226103   2.474   2.224  15.221  0.2219  0.2150 -0.7395
 1563TIP3    H126104   2.476   2.315  15.250  0.8064  0.3243 -1.1038
 1563TIP3    H226105   2.549   2.183  15.265 -1.5968 -0.8094  1.6399
 1564TIP3   OH226106   4.871   3.161   4.882  0.5824 -0.0105 -0.1739
 1564TIP3    H126107   4.876   3.074   4.842  0.8937 -0.9191  1.7255
 1564TIP3    H226108   4.948   3.207   4.849  0.2068 -0.2828 -1.5122
 1565TIP3   OH226109   3.955   5.279   0.731  0.4255 -0.4552  0.2507
 1565TIP3    H126110   3.876   5.310   0.775  1.1975  1.1413  0.5891
 1565TIP3    H226111   3.995   5.358   0.695  2.0702 -1.1593  0.4389
 1566TIP3   OH226112   5.731   6.160  14.159  0.2954 -0.3225 -0.0620
 1566TIP3    H126113   5.806   6.101  14.161  0.1759 -0.5091 -0.6934
 1566TIP3    H226114   5.712   6.178  14.251  1.6683  0.4552  0.0920
 1567TIP3   OH226115   5.408   0.822  15.902 -0.4780 -0.0272 -0.0619
 1567TIP3    H126116   5.366   0.883  15.841 -1.7625  0.0254  0.8236
 1567TIP3    H226117   5.393   0.736  15.864  2.0077  0.1749 -1.7151
 1568TIP3   OH226118   3.647   1.724   5.913 -0.3647  0.3996 -0.1937
 1568TIP3    H126119   3.660   1.818   5.901  0.1158  0.1550 -2.0078
 1568TIP3    H226120   3.699   1.702   5.990 -2.6588  2.0207  1.9877
 1569TIP3   OH226121   0.998   3.924   6.449  0.0733 -0.0149  0.1850
 1569TIP3    H126122   0.949   4.002   6.475  1.1394  0.5507  0.5231
 1569TIP3    H226123   0.930   3.863   6.418 -0.7946  0.9365  0.1565
 1570TIP3   OH226124   6.287   4.750  15.532 -0.0602 -0.2811  0.8110
 1570TIP3    H126125   6.278   4.672  15.587 -0.3264 -0.2502  0.8117
 1570TIP3    H226126   6.298   4.822  15.594 -0.9789 -0.1608  0.8471
 1571TIP3   OH226127   6.421   2.891   4.257 -0.3289 -0.4075  0.0773
 1571TIP3    H126128   6.342   2.930   4.294  0.2473 -0.6013  1.5447
 1571TIP3    H226129   6.491   2.954   4.277  0.2495 -1.2139  0.6712
 1572TIP3   OH226130   6.737   3.980  11.794  0.1617 -0.2583  0.1104
 1572TIP3    H126131   6.790   4.046  11.749 -2.5816  1.5769 -0.7497
 1572TIP3    H226132   6.778   3.896  11.771  1.2144  0.8698 -2.5786
 1573TIP3   OH226133   4.428   1.390  11.682  0.0748  0.0091  0.3265
 1573TIP3    H126134   4.385   1.309  11.654  2.4167 -1.2025 -0.0280
 1573TIP3    H226135   4.516   1.362  11.710  0.8768  2.4042  0.4202
 1574TIP3   OH226136   3.601   0.006  10.847  0.1076 -0.3067 -0.0456
 1574TIP3    H126137   3.533   0.069  10.872 -0.7666  0.2090 -3.3560
 1574TIP3    H226138   3.556  -0.078  10.846  0.1231 -0.3147 -0.0525
 1575TIP3   OH226139   4.139   5.497  16.003  0.0084  0.1704 -0.0771
 1575TIP3    H126140   4.180   5.427  15.953  2.0367 -0.4198  2.2058
 1575TIP3    H226141   4.197   5.511  16.078 -1.3308  2.9872  0.6000
 1576TIP3   OH226142   4.884   1.483  13.653 -0.5668 -0.3190 -0.4936
 1576TIP3    H126143   4.863   1.574  13.636  1.4504  0.1930 -0.4875
 1576TIP3    H226144   4.891   1.443  13.566  2.7735  0.6255 -0.8020
 1577TIP3   OH226145   3.636   2.677  15.370 -0.2861 -0.3318  0.0750
 1577TIP3    H126146   3.693   2.755  15.372 -0.7564  0.0161  0.1213
 1577TIP3    H226147   3.691   2.607  15.405 -0.2664  0.2506  1.2641
 1578TIP3   OH226148   1.256   4.696   5.588  0.5259  0.1027  0.2704
 1578TIP3    H126149   1.222   4.693   5.678 -3.1574  0.2888 -0.9325
 1578TIP3    H226150   1.283   4.787   5.576  0.1976  0.2968  0.9361
 1579TIP3   OH226151   3.879   4.435  12.139  0.3990  0.0719 -0.3315
 1579TIP3    H126152   3.966   4.445  12.179  1.0241 -2.4067 -0.8989
 1579TIP3    H226153   3.830   4.382  12.201 -1.1942  2.3853  0.5232
 1580TIP3   OH226154   5.373   4.900   1.856 -0.7784 -0.5895  0.0535
 1580TIP3    H126155   5.373   4.818   1.805  2.0386 -0.8330  0.2442
 1580TIP3    H226156   5.393   4.872   1.945 -0.8348  0.2281  0.3238
 1581TIP3   OH226157   2.698   3.791   2.484 -0.1355 -0.0914  0.5622
 1581TIP3    H126158   2.709   3.886   2.486 -0.1247 -0.1004  1.1176
 1581TIP3    H226159   2.726   3.766   2.396 -0.4631  0.4550  0.2997
 1582TIP3   OH226160   2.044   3.049  16.558 -0.6968 -0.3292  0.0478
 1582TIP3    H126161   2.080   2.965  16.586  0.4855  0.4337  0.9091
 1582TIP3    H226162   2.072   3.111  16.625  0.9066  1.2819 -1.9919
 1583TIP3   OH226163   0.835   5.373  12.770 -0.1788  0.4600 -0.4613
 1583TIP3    H126164   0.899   5.442  12.754  0.7778  0.0434  1.2942
 1583TIP3    H226165   0.888   5.293  12.778 -1.0726 -0.1504 -0.4779
 1584TIP3   OH226166   1.764   5.172   0.140  0.5708  0.0906  0.4115
 1584TIP3    H126167   1.846   5.219   0.154 -0.3699  1.2288  2.5790
 1584TIP3    H226168   1.754   5.116   0.217 -0.8463  0.2464  0.3703
 1585TIP3   OH226169   0.667   5.950  14.831 -0.2054  0.5468  0.0520
 1585TIP3    H126170   0.688   5.883  14.766 -1.9485 -0.2264  0.2142
 1585TIP3    H226171   0.664   6.031  14.781  1.2762  0.4308 -0.2738
 1586TIP3   OH226172   4.553   3.000   3.458  0.2011 -0.2153 -0.6520
 1586TIP3    H126173   4.479   2.979   3.401  0.0962 -1.6621 -0.0394
 1586TIP3    H226174   4.535   2.952   3.539  0.2580  1.9335  0.7092
 1587TIP3   OH226175   1.122   0.261   4.437  0.1254  0.0972  0.3052
 1587TIP3    H126176   1.028   0.266   4.419  0.1718 -0.7743 -0.2191
 1587TIP3    H226177   1.143   0.347   4.475 -0.5600  0.9594 -1.1475
 1588TIP3   OH226178   2.063   1.496   1.766 -0.1030 -0.8854 -0.4124
 1588TIP3    H126179   2.082   1.578   1.812 -0.4681 -0.2933 -1.3016
 1588TIP3    H226180   2.030   1.438   1.835 -1.8711  0.4003 -0.1215
 1589TIP3   OH226181   0.195   2.140  16.953  0.0703 -0.0658  1.1463
 1589TIP3    H126182   0.172   2.131  16.860 -1.2569  2.4678  1.1187
 1589TIP3    H226183   0.270   2.082  16.965  0.6105 -0.1009 -1.6379
 1590TIP3   OH226184   2.618   0.113  13.165  0.1663  0.2035  0.4713
 1590TIP3    H126185   2.688   0.071  13.214 -0.2980 -0.0748  0.9088
 1590TIP3    H226186   2.579   0.175  13.227 -1.5557 -1.3731  1.0953
 1591TIP3   OH226187   6.519   4.676   1.441  0.6922  1.0733  0.2023
 1591TIP3    H126188   6.431   4.656   1.411  0.7354  2.8911 -1.3288
 1591TIP3    H226189   6.572   4.601   1.413  0.0974  1.1896 -1.3025
 1592TIP3   OH226190   5.987   6.313   0.670 -0.4365  0.1214  0.2168
 1592TIP3    H126191   5.981   6.340   0.578  0.9689 -0.6388 -0.1248
 1592TIP3    H226192   6.070   6.349   0.700 -1.2014  0.9495  1.4214
 1593TIP3   OH226193   2.018   2.961   0.421 -0.1337 -0.1246  1.0422
 1593TIP3    H126194   2.064   3.003   0.348  0.2256 -2.1828  0.0107
 1593TIP3    H226195   1.928   2.993   0.414 -0.7248 -1.9978 -1.8514
 1594TIP3   OH226196   6.580   3.960  12.383 -0.9270 -0.2265 -0.1821
 1594TIP3    H126197   6.615   4.032  12.331 -0.7709  0.0854  0.3462
 1594TIP3    H226198   6.492   3.947  12.348  0.4710 -2.7082 -3.2618
 1595TIP3   OH226199   2.843   5.311   3.938  0.7542  0.4011  0.3492
 1595TIP3    H126200   2.935   5.323   3.917  1.0083  1.0533  1.7145
 1595TIP3    H226201   2.796   5.336   3.858  1.6903  1.8234  0.2091
 1596TIP3   OH226202   2.774   0.114  15.980 -0.5542  0.9332 -0.1215
 1596TIP3    H126203   2.809   0.157  15.902  1.0851  1.1100  0.6747
 1596TIP3    H226204   2.776   0.020  15.960 -1.5661  1.0500 -0.8340
 1597TIP3   OH226205   0.224   5.273  10.962  0.4211 -0.4068  0.7589
 1597TIP3    H126206   0.283   5.201  10.939 -0.9693 -1.4167  0.2338
 1597TIP3    H226207   0.176   5.241  11.039 -1.9453 -1.1302 -0.9002
 1598TIP3   OH226208   0.490   1.943  14.778 -0.3399  0.1270 -0.0133
 1598TIP3    H126209   0.434   1.979  14.710  0.8958  1.6953 -0.2511
 1598TIP3    H226210   0.465   1.991  14.857 -0.5183 -0.4121  0.2656
 1599TIP3   OH226211   1.532   6.759   3.228  0.1314  0.1639 -0.2411
 1599TIP3    H126212   1.579   6.718   3.301 -0.3606 -1.3859 -0.7516
 1599TIP3    H226213   1.597   6.816   3.188  1.1769 -0.8490 -0.0698
 1600TIP3   OH226214   4.272   0.508   6.477  0.1477  0.3278 -0.1015
 1600TIP3    H126215   4.208   0.579   6.474  0.4248  0.6372  0.8788
 1600TIP3    H226216   4.263   0.472   6.565  1.6237  0.6546  0.1989
 1601TIP3   OH226217   1.105   3.331  12.490 -0.1222  0.2989  0.2052
 1601TIP3    H126218   1.052   3.323  12.569 -1.5175 -1.2331 -0.8351
 1601TIP3    H226219   1.138   3.243  12.474 -0.2784  0.4737 -1.1953
 1602TIP3   OH226220   2.889   4.873  11.495 -0.1930  0.1581  0.0534
 1602TIP3    H126221   2.827   4.904  11.561  0.2303 -0.5179  0.7787
 1602TIP3    H226222   2.847   4.894  11.411 -2.4381 -2.1961  0.4819
 1603TIP3   OH226223   1.166   6.338  11.940 -0.2046 -0.1901  0.6082
 1603TIP3    H126224   1.171   6.414  11.998 -0.3786  0.3648 -0.0892
 1603TIP3    H226225   1.073   6.320  11.932 -0.1616 -0.5028  0.8022
 1604TIP3   OH226226   3.130   4.576   2.706  0.6985  0.1292 -0.1438
 1604TIP3    H126227   3.213   4.545   2.742  0.6056  1.1136  1.0194
 1604TIP3    H226228   3.131   4.671   2.723 -0.8010  0.1051  0.2116
 1605TIP3   OH226229   0.753   0.035  13.691  0.1135 -0.2467 -0.5478
 1605TIP3    H126230   0.724   0.119  13.656  0.9437 -0.4310 -1.7334
 1605TIP3    H226231   0.680  -0.025  13.672  0.0257 -0.0588 -0.8112
 1606TIP3   OH226232   3.976   2.215   3.264 -0.2264  0.1520 -0.7028
 1606TIP3    H126233   4.035   2.251   3.329 -2.0631 -0.5704  1.5182
 1606TIP3    H226234   3.980   2.120   3.279 -1.6950  0.0745 -0.6716
 1607TIP3   OH226235   3.257   0.931  10.129 -0.3027 -0.0742  0.2975
 1607TIP3    H126236   3.239   0.876  10.205 -2.6867  0.4968  0.2311
 1607TIP3    H226237   3.311   1.003  10.163 -1.3367  0.1756  1.4803
 1608TIP3   OH226238   5.071   5.363   4.694  0.5674 -0.2163  0.0011
 1608TIP3    H126239   5.080   5.457   4.681 -0.5356 -0.1307 -0.2089
 1608TIP3    H226240   4.985   5.342   4.658  1.2284 -1.4847 -0.9272
 1609TIP3   OH226241   5.418   0.169  12.614  0.1997 -0.0738 -0.0835
 1609TIP3    H126242   5.512   0.184  12.605  0.1615 -0.2401 -0.8449
 1609TIP3    H226243   5.382   0.194  12.529 -0.4068 -0.2759  0.1146
 1610TIP3   OH226244   0.204   5.328  12.017 -0.0110  0.1735 -0.4185
 1610TIP3    H126245   0.209   5.236  11.991  1.4219 -0.0090  0.3783
 1610TIP3    H226246   0.185   5.326  12.110  0.0284  0.6904 -0.3957
 1611TIP3   OH226247   5.050   4.868   3.935 -0.2619 -0.6820  0.2497
 1611TIP3    H126248   5.016   4.956   3.921  0.2464 -0.2764  1.4455
 1611TIP3    H226249   4.985   4.811   3.895 -1.2178  0.1756  0.5290
 1612TIP3   OH226250   1.217   5.799   2.104 -0.2566  0.2226  0.1872
 1612TIP3    H126251   1.232   5.886   2.069 -0.8169 -0.2207 -1.2112
 1612TIP3    H226252   1.124   5.781   2.087 -0.3921 -0.2871  1.3185
 1613TIP3   OH226253   1.619   5.857  16.981  0.4222 -0.1388 -0.3523
 1613TIP3    H126254   1.675   5.867  17.058  1.7773 -0.6507 -1.2244
 1613TIP3    H226255   1.624   5.764  16.960  1.7492  0.2966 -2.2257
 1614TIP3   OH226256   4.543   1.536  13.512 -0.0023 -0.1712 -0.2800
 1614TIP3    H126257   4.518   1.452  13.551  2.2297  0.3347  2.5926
 1614TIP3    H226258   4.462   1.587  13.511 -0.9919 -1.6656 -0.2401
 1615TIP3   OH226259   1.063   4.722  14.253  0.3261  0.1908  0.6189
 1615TIP3    H126260   1.150   4.680  14.257 -0.5854 -2.5923 -2.9650
 1615TIP3    H226261   1.075   4.795  14.192 -0.0903 -1.3260 -1.3796
 1616TIP3   OH226262   5.177   3.881  11.890 -0.1329  0.0478 -0.5301
 1616TIP3    H126263   5.257   3.843  11.852 -0.3831 -0.4734 -0.5306
 1616TIP3    H226264   5.208   3.933  11.964  0.0551 -1.6618  0.6557
 1617TIP3   OH226265   5.058   0.821  14.272  0.3790  0.0496 -0.5040
 1617TIP3    H126266   5.091   0.909  14.257  1.1150 -0.3559 -1.3223
 1617TIP3    H226267   5.089   0.770  14.197  1.3495 -1.2831  0.7350
 1618TIP3   OH226268   4.097   0.045   2.512  0.0819  0.6407  0.0130
 1618TIP3    H126269   4.146   0.061   2.431  1.3746  0.3366  0.7019
 1618TIP3    H226270   4.144   0.094   2.579  0.2548 -0.7474  0.9480
 1619TIP3   OH226271   1.570   6.703   0.992  0.0699  0.2174 -0.2804
 1619TIP3    H126272   1.631   6.772   0.968 -0.3710  0.1148 -1.7608
 1619TIP3    H226273   1.626   6.629   1.016  0.5339  0.9229  0.9277
 1620TIP3   OH226274   3.782   5.423   3.317 -0.2906 -0.7344  0.3898
 1620TIP3    H126275   3.863   5.437   3.268 -0.0567 -0.7334  0.7683
 1620TIP3    H226276   3.787   5.332   3.345  0.6895 -0.1553  2.3484
 1621TIP3   OH226277   0.150   5.194  15.232  0.2341  0.3565  0.0053
 1621TIP3    H126278   0.204   5.154  15.300 -0.1003 -1.4347 -0.7199
 1621TIP3    H226279   0.100   5.121  15.195  0.1147  1.3378 -1.9027
 1622TIP3   OH226280   1.529   2.960  13.789  0.0325  0.0942 -0.0823
 1622TIP3    H126281   1.454   2.920  13.745  0.2097 -0.4649  0.1154
 1622TIP3    H226282   1.603   2.903  13.767  0.0977 -0.2847  1.0513
 1623TIP3   OH226283   5.808   0.350  11.027  0.0098 -0.0498 -0.3496
 1623TIP3    H126284   5.888   0.356  11.078 -0.5988  0.1394  0.6090
 1623TIP3    H226285   5.816   0.268  10.979  0.7215 -0.0869 -0.1776
 1624TIP3   OH226286   1.833   5.451   4.722 -0.5367  0.2432 -0.0999
 1624TIP3    H126287   1.898   5.387   4.693  0.9562  1.6737 -0.0064
 1624TIP3    H226288   1.813   5.426   4.812  0.1957  0.0419  0.0104
 1625TIP3   OH226289   4.279   6.092  16.182  0.1319  1.3958 -0.0802
 1625TIP3    H126290   4.357   6.147  16.180 -0.5070  2.4239 -3.4841
 1625TIP3    H226291   4.303   6.013  16.133  0.0258  0.0627  1.8982
 1626TIP3   OH226292   5.616   6.395  11.979 -0.2295  0.6428  0.0713
 1626TIP3    H126293   5.601   6.455  12.052  0.9168 -0.8392  1.6260
 1626TIP3    H226294   5.534   6.347  11.970  0.2850 -0.7634  2.0390
 1627TIP3   OH226295   0.155   5.981   4.441 -0.5680 -0.7399 -0.0204
 1627TIP3    H126296   0.239   5.965   4.483 -0.6928 -2.8715 -0.4456
 1627TIP3    H226297   0.141   6.075   4.450  1.3920 -0.4804  0.9012
 1628TIP3   OH226298   0.154   1.231  16.839  0.1211  0.8602  0.6399
 1628TIP3    H126299   0.191   1.295  16.777  0.2785  1.2056  1.0871
 1628TIP3    H226300   0.220   1.224  16.908  1.7035 -2.2338 -0.9530
 1629TIP3   OH226301   3.796   1.377  14.625 -0.0984 -0.0224  0.1755
 1629TIP3    H126302   3.843   1.304  14.664  2.2365  0.0684 -2.2019
 1629TIP3    H226303   3.825   1.454  14.673 -0.3697 -0.3261  0.8346
 1630TIP3   OH226304   5.533   5.314  16.052  0.2622  0.1737 -0.2847
 1630TIP3    H126305   5.566   5.289  16.138  0.2456  0.3550 -0.2250
 1630TIP3    H226306   5.581   5.394  16.030  0.9729 -0.3928 -0.8764
 1631TIP3   OH226307   0.773   1.420  16.804 -0.1724  0.1461 -0.3237
 1631TIP3    H126308   0.784   1.496  16.861 -1.5851  1.2982 -1.4972
 1631TIP3    H226309   0.858   1.375  16.807  0.5683  1.5349  0.7103
 1632TIP3   OH226310   5.765   4.812  13.024 -0.2127  0.1168 -0.1971
 1632TIP3    H126311   5.769   4.894  13.074  1.8828 -0.6760  1.0981
 1632TIP3    H226312   5.739   4.746  13.089  1.8838 -0.8242 -0.2116
 1633TIP3   OH226313   5.843   0.381   4.391  0.5025 -0.1881  0.1883
 1633TIP3    H126314   5.770   0.443   4.390  0.7196  0.0700 -0.1837
 1633TIP3    H226315   5.834   0.333   4.308  0.2952 -0.7084  0.5051
 1634TIP3   OH226316   1.825   6.292   0.333 -0.3243 -0.5760 -0.1493
 1634TIP3    H126317   1.751   6.262   0.281  1.4062 -1.8859 -1.9674
 1634TIP3    H226318   1.854   6.215   0.382  0.8280 -0.5295 -0.7202
 1635TIP3   OH226319   3.987   4.213   4.555 -0.9151  0.0779 -0.0043
 1635TIP3    H126320   3.987   4.157   4.478 -0.3824 -0.0047  0.0532
 1635TIP3    H226321   4.036   4.164   4.621 -1.9756 -0.1697  0.6202
 1636TIP3   OH226322   5.288   3.012  15.677  0.5781 -0.0380 -0.1095
 1636TIP3    H126323   5.218   3.071  15.706 -0.0733 -0.9535  0.2197
 1636TIP3    H226324   5.283   2.938  15.737 -0.4237 -1.7398 -2.1862
 1637TIP3   OH226325   1.192   1.852   5.415 -0.1262 -0.5996  0.3329
 1637TIP3    H126326   1.285   1.831   5.405  0.4002  0.2969  2.7029
 1637TIP3    H226327   1.172   1.831   5.506 -3.0154 -3.3404 -0.7733
 1638TIP3   OH226328   0.903   6.411  11.735  0.0335  0.2941 -0.0996
 1638TIP3    H126329   0.921   6.500  11.704  0.3870  0.3803  0.3522
 1638TIP3    H226330   0.891   6.420  11.829 -0.0996 -0.1142 -0.0754
 1639TIP3   OH226331   5.276   3.024  12.816 -0.2283 -0.3419 -0.1966
 1639TIP3    H126332   5.291   3.080  12.739  2.0909  0.3396  0.6361
 1639TIP3    H226333   5.343   2.955  12.808  1.9764  1.2634  2.4509
 1640TIP3   OH226334   3.928   0.226   6.527 -0.1712  0.1947 -0.4861
 1640TIP3    H126335   3.942   0.159   6.460  0.6164 -1.5722  1.3331
 1640TIP3    H226336   4.006   0.222   6.582 -0.1144  2.6400 -0.2883
 1641TIP3   OH226337   0.845   2.970  16.589  0.1334  0.2298 -0.1526
 1641TIP3    H126338   0.842   3.017  16.505  1.2980 -2.6025 -1.8963
 1641TIP3    H226339   0.778   2.903  16.581  2.4542 -2.2253 -0.2885
 1642TIP3   OH226340   0.426   5.817  13.688 -0.3655  0.4304 -0.3817
 1642TIP3    H126341   0.398   5.728  13.670 -0.1940  0.8190 -2.8445
 1642TIP3    H226342   0.502   5.807  13.746 -2.6973 -0.7872  2.7459
 1643TIP3   OH226343   6.457   0.318   3.778  0.0058 -0.6480 -0.0522
 1643TIP3    H126344   6.486   0.359   3.696 -1.2659  0.8644  0.2071
 1643TIP3    H226345   6.537   0.279   3.814  1.2724  1.2973 -0.5353
 1644TIP3   OH226346   2.520   0.079   0.632  0.7067  0.2004  0.2751
 1644TIP3    H126347   2.526   0.175   0.640 -0.9051  0.3860 -0.3595
 1644TIP3    H226348   2.446   0.055   0.687  0.7688 -0.6311  0.0094
 1645TIP3   OH226349   1.699   3.883   1.334 -0.4368 -0.3766 -0.1910
 1645TIP3    H126350   1.636   3.954   1.321  0.7948  0.7441 -0.3094
 1645TIP3    H226351   1.755   3.914   1.405  0.7158 -0.7994 -0.8837
 1646TIP3   OH226352   2.360   0.149   0.296  0.1410  0.4902  0.9224
 1646TIP3    H126353   2.355   0.198   0.378 -0.1032  0.6660  0.8025
 1646TIP3    H226354   2.302   0.196   0.236  1.9185  1.6001 -0.0071
 1647TIP3   OH226355   5.879   1.113   1.462  0.4973 -0.6673  0.0695
 1647TIP3    H126356   5.798   1.160   1.481 -1.5580 -3.1024 -2.0221
 1647TIP3    H226357   5.866   1.026   1.499  2.4314 -0.9747  0.1514
 1648TIP3   OH226358   5.136   4.415   0.001  0.2390 -0.2969  0.3238
 1648TIP3    H126359   5.151   4.405  -0.093  0.4348 -0.3690  0.3627
 1648TIP3    H226360   5.213   4.462   0.033  0.2598 -0.4365  0.4802
 1649TIP3   OH226361   6.004   3.662   4.144  0.0223  0.1084 -0.5872
 1649TIP3    H126362   6.090   3.704   4.137  1.0308 -1.5448  1.1806
 1649TIP3    H226363   5.975   3.682   4.233  1.4088 -4.2465  1.1009
 1650TIP3   OH226364   5.996   2.562   0.110 -0.5196  0.5350  0.5813
 1650TIP3    H126365   5.991   2.500   0.037  0.3306  1.7404 -0.5467
 1650TIP3    H226366   5.907   2.564   0.145 -0.5323 -1.4356  0.7798
 1651TIP3   OH226367   2.594   0.398   2.243  0.4731  0.4965  0.5319
 1651TIP3    H126368   2.625   0.311   2.266 -0.0976  0.1188 -0.1021
 1651TIP3    H226369   2.555   0.388   2.156 -0.1846  1.2496  0.7280
 1652TIP3   OH226370   2.958   6.413  11.804  0.7367 -0.1215 -0.2378
 1652TIP3    H126371   2.967   6.373  11.891  1.1963  1.8108  0.6465
 1652TIP3    H226372   3.020   6.365  11.749  0.1404 -1.6459  0.3641
 1653TIP3   OH226373   0.291   4.497  15.599  0.5995  0.0924  0.3052
 1653TIP3    H126374   0.278   4.585  15.633 -0.5440  0.2344 -0.4204
 1653TIP3    H226375   0.307   4.443  15.676 -0.9753  0.5572  1.0154
 1654TIP3   OH226376   1.858   4.197  14.165  0.0528  0.1168  0.2173
 1654TIP3    H126377   1.941   4.197  14.213  2.0161  0.4210 -2.8805
 1654TIP3    H226378   1.816   4.279  14.189  1.3935  0.6709  0.7588
 1655TIP3   OH226379   6.315   2.086  11.353  0.1816 -0.6680 -0.2008
 1655TIP3    H126380   6.362   2.132  11.283 -0.2036  1.7731  1.0162
 1655TIP3    H226381   6.224   2.113  11.343 -0.0119 -0.9059  0.7594
 1656TIP3   OH226382   1.261   3.638   4.441 -0.4212 -0.0068  0.1667
 1656TIP3    H126383   1.186   3.581   4.455 -1.3368  1.1981  0.2572
 1656TIP3    H226384   1.229   3.726   4.459  0.7011  0.6627 -0.9217
 1657TIP3   OH226385   0.498   1.476  15.870  0.6233  0.1115  0.4049
 1657TIP3    H126386   0.417   1.435  15.841  0.1789  1.3268 -0.1572
 1657TIP3    H226387   0.566   1.409  15.856 -0.1389 -0.5851 -0.0170
 1658TIP3   OH226388   2.904   4.351   1.788  0.3857 -0.0252 -0.0523
 1658TIP3    H126389   2.969   4.309   1.732  0.5857 -0.4284  0.4789
 1658TIP3    H226390   2.889   4.437   1.747  0.0499 -0.5561 -1.0809
 1659TIP3   OH226391   3.667   3.769  11.935  0.3803 -1.3357  0.1393
 1659TIP3    H126392   3.646   3.809  12.020 -0.0204 -1.2319 -0.0108
 1659TIP3    H226393   3.685   3.844  11.877  1.7601 -1.4205  0.4070
 1660TIP3   OH226394   6.748   6.621   0.296  0.0646 -0.0682 -0.1282
 1660TIP3    H126395   6.804   6.661   0.229 -0.1614  1.0140  0.3148
 1660TIP3    H226396   6.740   6.688   0.364 -1.6699 -0.2495 -0.1176
 1661TIP3   OH226397   5.908   6.612   2.815 -0.5568  0.0609  0.8280
 1661TIP3    H126398   5.993   6.610   2.860 -0.9328 -2.2576  1.6036
 1661TIP3    H226399   5.916   6.683   2.752  1.3059  1.0967  2.1111
 1662TIP3   OH226400   0.171   5.820  16.612 -0.8819  0.2694  0.3722
 1662TIP3    H126401   0.163   5.845  16.704  0.2847 -1.4718  0.9942
 1662TIP3    H226402   0.126   5.736  16.606 -0.7409  0.2537 -0.5913
 1663TIP3   OH226403   0.996   5.545   5.055  0.5003  0.1663 -0.0073
 1663TIP3    H126404   1.000   5.636   5.085 -1.6139  1.0121 -1.9701
 1663TIP3    H226405   0.933   5.503   5.113  3.2072 -0.8172  2.4304
 1664TIP3   OH226406   3.665   1.955  13.037  0.2004 -0.5658 -0.1155
 1664TIP3    H126407   3.572   1.948  13.056  0.3404 -0.7153  0.5487
 1664TIP3    H226408   3.670   1.971  12.942 -0.4686 -1.2122 -0.2640
 1665TIP3   OH226409   3.584   1.960   0.934 -0.5498 -0.5575  0.2324
 1665TIP3    H126410   3.527   1.886   0.913 -1.3002 -0.2279  1.0273
 1665TIP3    H226411   3.651   1.923   0.991 -0.4938 -0.7673  0.0326
 1666TIP3   OH226412   3.629   5.805  14.254 -0.4597 -0.1866 -0.0820
 1666TIP3    H126413   3.710   5.772  14.292 -0.6624 -0.1748  0.3580
 1666TIP3    H226414   3.592   5.862  14.321 -1.3147 -0.9317  0.0957
 1667TIP3   OH226415   6.279   1.475   3.695 -0.0735  0.4002  0.0178
 1667TIP3    H126416   6.284   1.464   3.600 -1.0929  1.7117 -0.2224
 1667TIP3    H226417   6.332   1.553   3.713 -0.3063  0.4622  0.4495
 1668TIP3   OH226418   1.325   1.412  10.625 -0.0483 -0.5512  0.6491
 1668TIP3    H126419   1.367   1.407  10.539 -0.7565 -0.6786  0.3043
 1668TIP3    H226420   1.353   1.333  10.670 -2.4164 -2.3332 -0.7518
 1669TIP3   OH226421   1.417   6.542   2.129 -0.0668  0.2008 -0.3889
 1669TIP3    H126422   1.450   6.629   2.108 -1.5412  1.5243  2.2931
 1669TIP3    H226423   1.322   6.551   2.124 -0.2692 -0.9397  0.9086
 1670TIP3   OH226424   3.909   0.817   3.373 -0.2574 -0.1204  0.2486
 1670TIP3    H126425   3.951   0.765   3.305 -2.3328 -0.9038 -0.4866
 1670TIP3    H226426   3.963   0.896   3.378 -1.0093  0.8407 -3.6039
 1671TIP3   OH226427   5.372   6.290  11.969  0.2474 -0.1053 -0.1475
 1671TIP3    H126428   5.325   6.216  11.930  0.0877 -0.1237  0.0787
 1671TIP3    H226429   5.366   6.359  11.903 -0.3850  0.0042  0.0150
 1672TIP3   OH226430   1.970   6.171  12.567  0.4122 -0.0014 -0.1232
 1672TIP3    H126431   1.961   6.266  12.563  0.2169 -0.0406 -0.7343
 1672TIP3    H226432   1.897   6.142  12.622 -1.7929 -0.0908 -2.9175
 1673TIP3   OH226433   4.525   1.112   0.624  0.3331 -0.2611  0.4617
 1673TIP3    H126434   4.578   1.079   0.551  0.9302  0.5499  0.5121
 1673TIP3    H226435   4.568   1.194   0.649 -1.7447  1.1628 -0.3915
 1674TIP3   OH226436   0.406   6.612   6.041 -0.5613  0.2105 -0.1297
 1674TIP3    H126437   0.395   6.634   6.134 -0.3114  2.0242 -0.4815
 1674TIP3    H226438   0.432   6.695   6.001 -0.6387 -0.5562 -1.8200
 1675TIP3   OH226439   4.455   3.027   5.815  0.1181 -0.3236  0.3068
 1675TIP3    H126440   4.451   3.123   5.813  0.1124 -0.3286 -1.0688
 1675TIP3    H226441   4.398   3.003   5.888 -0.6161  0.6998  0.1044
 1676TIP3   OH226442   5.629   0.979   4.124  0.1722 -0.6515  0.0765
 1676TIP3    H126443   5.565   0.951   4.189  1.5259  1.9405  2.7918
 1676TIP3    H226444   5.628   0.910   4.058 -2.3038 -2.8050  2.1238
 1677TIP3   OH226445   5.366   0.985   4.779 -0.2839  0.3868  0.6773
 1677TIP3    H126446   5.328   1.073   4.774  2.2052  1.4757 -0.6905
 1677TIP3    H226447   5.302   0.929   4.734 -0.8129  1.9190 -0.5763
 1678TIP3   OH226448   1.763   5.308  15.444  0.3338 -0.0128 -0.3541
 1678TIP3    H126449   1.738   5.262  15.363 -0.1834  0.2739 -0.3587
 1678TIP3    H226450   1.682   5.345  15.476  0.1491 -1.7249  1.3328
 1679TIP3   OH226451   4.622   6.289  14.246 -0.3323  0.3477 -0.3987
 1679TIP3    H126452   4.634   6.371  14.292 -0.6001 -0.5773  1.3969
 1679TIP3    H226453   4.674   6.298  14.166  2.0159  1.1581  1.1358
 1680TIP3   OH226454   2.498   0.602  15.117  0.0729  0.0089  0.4716
 1680TIP3    H126455   2.546   0.578  15.196 -0.2760  1.0789  1.0172
 1680TIP3    H226456   2.547   0.559  15.046  2.2698  1.5820  0.9249
 1681TIP3   OH226457   5.946   4.956  14.480  0.0105 -0.1925  0.2675
 1681TIP3    H126458   5.912   4.911  14.402  0.2668 -0.5286  0.3453
 1681TIP3    H226459   5.893   5.035  14.488 -1.3994 -1.1800  0.9366
 1682TIP3   OH226460   5.016   3.276   6.199 -0.5296  0.2489  0.0022
 1682TIP3    H126461   5.036   3.189   6.163  2.5999  1.0235 -0.4228
 1682TIP3    H226462   4.981   3.325   6.125  0.7821  0.2486 -0.6552
 1683TIP3   OH226463   2.427   0.031  12.751 -0.5188  0.0336 -0.0971
 1683TIP3    H126464   2.377  -0.051  12.751 -0.3668 -0.0591  0.0375
 1683TIP3    H226465   2.505   0.012  12.804  0.3856 -0.2614 -1.4787
 1684TIP3   OH226466   3.833   0.340   2.628  0.1750 -0.4554 -0.3109
 1684TIP3    H126467   3.926   0.324   2.645 -0.0880 -1.2823  0.4240
 1684TIP3    H226468   3.826   0.435   2.617  1.2735 -0.4906 -1.4645
 1685TIP3   OH226469   3.199   5.096  14.997 -0.0136  0.3065 -0.0448
 1685TIP3    H126470   3.271   5.045  14.959  1.7345  3.1462 -0.8853
 1685TIP3    H226471   3.229   5.116  15.086  0.0774  1.1282 -0.2486
 1686TIP3   OH226472   4.967   0.359   0.918  0.3995 -0.1514  0.1486
 1686TIP3    H126473   4.999   0.340   1.007  1.4476 -0.4827 -0.2850
 1686TIP3    H226474   4.958   0.274   0.877  3.9162  0.0776 -1.3960
 1687TIP3   OH226475   4.298   2.074  15.054 -0.1947  0.0533 -0.2859
 1687TIP3    H126476   4.263   1.986  15.040 -2.4585  1.0376 -1.3018
 1687TIP3    H226477   4.393   2.062  15.048 -0.3444 -2.5097  0.9822
 1688TIP3   OH226478   4.219   3.933   3.002  0.1897 -0.4340 -0.3420
 1688TIP3    H126479   4.160   3.929   2.927 -1.2225 -0.9007  0.7217
 1688TIP3    H226480   4.160   3.931   3.078  1.4394  2.0081  0.7902
 1689TIP3   OH226481   1.677   1.580   2.049  0.7016 -0.8456 -0.3530
 1689TIP3    H126482   1.646   1.493   2.022 -0.1867 -0.7301  0.2445
 1689TIP3    H226483   1.743   1.561   2.116  1.8810 -1.0941 -1.5610
 1690TIP3   OH226484   3.101   2.008  12.492 -0.1355 -0.0403  0.3730
 1690TIP3    H126485   3.018   2.055  12.500 -0.7962 -1.0256 -0.3985
 1690TIP3    H226486   3.108   1.989  12.399  0.8952 -0.1078  0.4561
 1691TIP3   OH226487   6.078   4.918   1.179  0.0579 -0.2629 -0.4962
 1691TIP3    H126488   6.105   4.949   1.093 -1.1224  1.1005 -0.4094
 1691TIP3    H226489   6.040   4.994   1.222 -0.0499 -1.0932  0.9632
 1692TIP3   OH226490   6.009   2.074  17.019  0.6142 -0.4832  0.3657
 1692TIP3    H126491   5.941   2.084  17.086 -0.3038  0.5544 -0.6749
 1692TIP3    H226492   5.962   2.046  16.941  1.9807 -4.3416  0.7219
 1693TIP3   OH226493   5.639   1.301  14.074  0.4821 -0.0831 -0.0020
 1693TIP3    H126494   5.698   1.345  14.013  0.2898 -0.3132 -0.3580
 1693TIP3    H226495   5.620   1.367  14.141  0.1278  0.4043 -0.5751
 1694TIP3   OH226496   0.912   1.422  13.647  0.3836 -0.4255  0.1937
 1694TIP3    H126497   0.993   1.433  13.597 -0.7220  2.5256 -1.1630
 1694TIP3    H226498   0.885   1.332  13.629  2.0487 -0.6670 -1.3722
 1695TIP3   OH226499   4.518   4.372   6.144  0.4007  0.0479  0.3295
 1695TIP3    H126500   4.534   4.391   6.051  1.0340 -0.9677  0.2212
 1695TIP3    H226501   4.598   4.398   6.188 -0.3497  1.7220  0.8019
 1696TIP3   OH226502   2.254   3.173   4.138  0.1318  0.1101  0.2715
 1696TIP3    H126503   2.336   3.205   4.174  1.3199  0.3820 -2.4475
 1696TIP3    H226504   2.280   3.116   4.066 -2.0707 -0.9644  0.2401
 1697TIP3   OH226505   1.724   5.777   1.893  0.5857 -0.6487  0.1539
 1697TIP3    H126506   1.787   5.724   1.942  1.4215  0.3192  0.1639
 1697TIP3    H226507   1.774   5.814   1.821 -0.1513 -0.4408 -0.2608
 1698TIP3   OH226508   6.205   1.867  17.099  0.2805 -0.0431  0.1540
 1698TIP3    H126509   6.127   1.917  17.075  0.3564 -0.3845 -0.8635
 1698TIP3    H226510   6.211   1.798  17.033  2.1725  0.7505 -0.5953
 1699TIP3   OH226511   6.733   6.211  15.021 -0.5466  0.5481  0.2968
 1699TIP3    H126512   6.644   6.247  15.029 -0.9773 -0.5158  0.4241
 1699TIP3    H226513   6.720   6.118  15.007  0.5807  0.0956  2.0005
 1700TIP3   OH226514   5.069   2.188   3.229  0.0042 -0.3023 -0.1263
 1700TIP3    H126515   5.080   2.272   3.274  0.8151  0.6061 -1.9043
 1700TIP3    H226516   5.026   2.132   3.293 -2.4897  2.0637  0.4851
 1701TIP3   OH226517   3.624   0.728   0.335 -0.1156 -0.1648 -0.1604
 1701TIP3    H126518   3.662   0.767   0.256 -1.8790 -0.1189 -1.0374
 1701TIP3    H226519   3.688   0.745   0.403  1.4200 -0.1155 -1.5488
 1702TIP3   OH226520   0.934   2.639   4.729 -0.5441  0.1041 -0.1194
 1702TIP3    H126521   0.852   2.641   4.777 -0.3567  0.6718  0.1805
 1702TIP3    H226522   0.998   2.606   4.793 -0.0163  2.1409  0.4788
 1703TIP3   OH226523   5.200   6.558  14.080  0.5067 -0.0589 -0.1896
 1703TIP3    H126524   5.120   6.563  14.131  2.1621 -0.4877  2.6341
 1703TIP3    H226525   5.253   6.632  14.110  0.9408  0.6777 -2.5483
 1704TIP3   OH226526   1.757   2.936   6.322  0.3908  0.7301  0.3655
 1704TIP3    H126527   1.775   3.011   6.378  0.8490  0.0998  1.0888
 1704TIP3    H226528   1.834   2.880   6.332  1.6309  1.6363 -2.7393
 1705TIP3   OH226529   0.336   3.980  16.409 -0.0349  0.0878  0.0927
 1705TIP3    H126530   0.421   3.948  16.439 -0.4067  0.2339  1.3603
 1705TIP3    H226531   0.274   3.912  16.434 -0.1961 -0.5174 -1.7758
 1706TIP3   OH226532   1.593   6.024   5.441 -0.4250  0.3013  0.6194
 1706TIP3    H126533   1.562   6.075   5.516 -0.2929 -1.0492  1.6287
 1706TIP3    H226534   1.570   5.934   5.463 -3.2393  0.1025 -2.3814
 1707TIP3   OH226535   0.872   6.753   2.423 -0.1355  0.2651 -0.3068
 1707TIP3    H126536   0.778   6.744   2.410 -0.1909  0.5234 -0.0894
 1707TIP3    H226537   0.910   6.724   2.340 -0.4061  0.1798 -0.4038
 1708TIP3   OH226538   5.624   4.397   2.943 -0.3021 -0.0699 -0.1186
 1708TIP3    H126539   5.564   4.331   2.979  0.5475 -0.6726  0.2387
 1708TIP3    H226540   5.570   4.447   2.881 -1.4713  0.1847  1.0559
 1709TIP3   OH226541   2.235   0.625  11.370 -0.2494 -0.0667 -0.0357
 1709TIP3    H126542   2.227   0.530  11.380  0.7684 -0.1685 -0.0558
 1709TIP3    H226543   2.179   0.647  11.296 -0.7014 -0.6069  0.1358
 1710TIP3   OH226544   0.741   2.211   1.745 -0.3546  0.5075 -0.6180
 1710TIP3    H126545   0.677   2.196   1.676 -0.3984 -0.3590 -0.3989
 1710TIP3    H226546   0.692   2.204   1.826  0.0718 -0.5302 -0.4348
 1711TIP3   OH226547   0.170   3.985  15.993  0.1579 -0.2396  0.0418
 1711TIP3    H126548   0.094   4.035  15.963  0.9321  0.9877  0.0661
 1711TIP3    H226549   0.238   4.004  15.929  0.7596 -0.4746  0.5992
 1712TIP3   OH226550   4.986   2.147  12.631 -0.0597 -0.4232 -0.3078
 1712TIP3    H126551   4.936   2.133  12.551 -1.8004 -0.0069  0.6463
 1712TIP3    H226552   5.077   2.154  12.602 -0.4604 -1.7328 -2.0626
 1713TIP3   OH226553   2.392   2.615  11.271 -0.0862  0.9137  0.0503
 1713TIP3    H126554   2.382   2.703  11.236 -1.4344 -0.2325 -2.6976
 1713TIP3    H226555   2.462   2.576  11.218  0.6144  0.3377  1.3480
 1714TIP3   OH226556   2.134   6.109  11.240 -0.1915  0.0887 -0.5249
 1714TIP3    H126557   2.127   6.016  11.218 -0.5213 -0.2196  0.7976
 1714TIP3    H226558   2.062   6.150  11.193 -0.8184 -0.5267 -0.1313
 1715TIP3   OH226559   4.988   6.189   3.699  0.1127  0.6410 -0.1232
 1715TIP3    H126560   4.980   6.210   3.792  0.6193  1.5761 -0.2859
 1715TIP3    H226561   5.058   6.245   3.667  1.5565 -1.3270 -0.5854
 1716TIP3   OH226562   4.555   5.643   1.019 -0.6456 -1.0559 -0.1800
 1716TIP3    H126563   4.557   5.633   0.924 -0.0897 -2.0558 -0.0710
 1716TIP3    H226564   4.647   5.651   1.045 -0.7059 -2.1016  0.3967
 1717TIP3   OH226565   2.605   5.716   4.768  0.0871 -0.0104 -0.6034
 1717TIP3    H126566   2.521   5.748   4.801  0.2025  0.6305 -0.9201
 1717TIP3    H226567   2.597   5.719   4.673  0.5258  0.2096 -0.6345
 1718TIP3   OH226568   1.387   0.381  14.122 -0.1621 -0.6215  0.5605
 1718TIP3    H126569   1.448   0.407  14.190 -0.2697  0.9633  0.0787
 1718TIP3    H226570   1.400   0.286  14.113  2.9710 -0.2270 -0.2272
 1719TIP3   OH226571   1.501   1.562  11.954  0.6170  0.6590  0.1545
 1719TIP3    H126572   1.433   1.624  11.927  0.2251  0.6150  1.0180
 1719TIP3    H226573   1.546   1.606  12.027  0.1586 -0.1729  0.9562
 1720TIP3   OH226574   6.644   2.260   2.185 -0.2963  0.3999  0.3788
 1720TIP3    H126575   6.611   2.247   2.274  0.1187 -1.4187  0.3211
 1720TIP3    H226576   6.624   2.351   2.164 -3.0106  0.0805  1.2602
 1721TIP3   OH226577   3.809   1.511   2.830  0.0374  0.2520 -0.0009
 1721TIP3    H126578   3.863   1.432   2.838 -2.1891 -1.5304 -1.2742
 1721TIP3    H226579   3.823   1.539   2.739 -0.7297  0.0691 -0.1845
 1722TIP3   OH226580   3.474   4.844  11.208 -0.1265 -0.2353  0.8074
 1722TIP3    H126581   3.480   4.906  11.135 -0.2985 -1.5147 -0.3195
 1722TIP3    H226582   3.564   4.817  11.224 -0.2516 -1.3477 -0.1984
 1723TIP3   OH226583   3.056   5.485   2.272  0.1654  0.1075 -0.5300
 1723TIP3    H126584   3.029   5.498   2.363  0.4043  0.9501 -0.5678
 1723TIP3    H226585   3.134   5.430   2.277  0.5062  0.6096 -0.1828
 1724TIP3   OH226586   1.013   5.422   0.820  0.7234 -0.0572 -0.5849
 1724TIP3    H126587   1.059   5.403   0.738  0.4048  0.6053 -0.9168
 1724TIP3    H226588   1.026   5.515   0.834  0.0060  0.0125 -0.3550
 1725TIP3   OH226589   5.412   6.350   0.766  0.2094  1.0056  0.8988
 1725TIP3    H126590   5.431   6.256   0.764 -0.2658  0.8988  1.2442
 1725TIP3    H226591   5.476   6.386   0.828  1.2028  1.1095 -0.1618
 1726TIP3   OH226592   3.654   4.433   3.727 -0.5898  0.0457  0.0210
 1726TIP3    H126593   3.595   4.484   3.670 -0.3606  0.4889  0.1838
 1726TIP3    H226594   3.702   4.498   3.777  0.4494 -0.2956 -0.5047
 1727TIP3   OH226595   0.697   4.430  10.801  0.2724  0.4930  0.4998
 1727TIP3    H126596   0.745   4.507  10.770 -1.4860  1.5442  0.3013
 1727TIP3    H226597   0.748   4.356  10.768  2.6314  1.4992  1.6514
 1728TIP3   OH226598   6.447   0.013  12.630  0.1811  0.6244  0.1047
 1728TIP3    H126599   6.514  -0.054  12.620 -1.1281 -0.5735 -0.8998
 1728TIP3    H226600   6.416   0.003  12.721 -0.4876 -0.6277 -0.2388
 1729TIP3   OH226601   5.834   3.110   4.755 -0.5672 -0.7110 -0.7322
 1729TIP3    H126602   5.812   3.061   4.676 -0.8530 -0.7159 -0.6516
 1729TIP3    H226603   5.755   3.161   4.774  0.4683  1.5905 -2.1355
 1730TIP3   OH226604   0.174   4.743   0.829 -0.0230  0.3916 -0.1522
 1730TIP3    H126605   0.195   4.705   0.915 -0.6781 -2.3710 -1.0976
 1730TIP3    H226606   0.079   4.752   0.829 -0.2342 -1.3818 -1.1745
 1731TIP3   OH226607   2.341   0.993   2.933 -0.3829  0.4066 -0.1670
 1731TIP3    H126608   2.381   0.946   2.860 -0.8764 -0.6891  0.2518
 1731TIP3    H226609   2.414   1.042   2.973 -0.0017  0.5450 -1.0220
 1732TIP3   OH226610   3.132   5.702   5.689 -0.5937  0.4868 -0.0378
 1732TIP3    H126611   3.130   5.776   5.750 -3.1643  1.1713 -0.8260
 1732TIP3    H226612   3.130   5.741   5.602 -1.4550 -0.4758 -0.4818
 1733TIP3   OH226613   5.929   3.296   5.931  0.6172  0.5278  0.4246
 1733TIP3    H126614   6.002   3.306   5.992  0.7895 -0.2548  0.3620
 1733TIP3    H226615   5.852   3.321   5.980  0.4748 -2.0483  1.6661
 1734TIP3   OH226616   1.282   3.921   6.467  0.0435  0.0407  0.0335
 1734TIP3    H126617   1.333   4.002   6.474 -0.3570  0.4146 -1.0524
 1734TIP3    H226618   1.191   3.951   6.455 -0.0392 -0.5536 -0.8872
 1735TIP3   OH226619   2.539   3.643  12.050  0.0674 -0.4039 -0.0214
 1735TIP3    H126620   2.530   3.587  11.973  3.8138 -0.4818 -0.5423
 1735TIP3    H226621   2.562   3.729  12.015 -1.1057  0.3396  0.9597
 1736TIP3   OH226622   4.557   3.687  13.271  0.5506  0.2762 -0.1027
 1736TIP3    H126623   4.476   3.733  13.249  0.2213  0.0185  0.5854
 1736TIP3    H226624   4.529   3.601  13.302  1.1266 -0.0863 -0.5640
 1737TIP3   OH226625   5.661   2.009  11.537  0.4270 -0.2948 -0.1669
 1737TIP3    H126626   5.673   2.094  11.580 -0.2215  0.4399 -1.3504
 1737TIP3    H226627   5.747   1.968  11.540  1.3304  1.3711 -1.5042
 1738TIP3   OH226628   5.838   2.350  16.375 -0.0906  0.4794 -0.0339
 1738TIP3    H126629   5.870   2.260  16.380  1.4466  0.9240 -1.0499
 1738TIP3    H226630   5.744   2.342  16.358 -0.1604 -0.9103  0.8552
 1739TIP3   OH226631   2.023   5.339  16.657 -0.2502 -0.3763 -0.5079
 1739TIP3    H126632   2.088   5.388  16.607  0.0837 -1.2014 -0.8995
 1739TIP3    H226633   2.054   5.343  16.747  0.3719 -0.7944 -0.6972
 1740TIP3   OH226634   6.195   1.268  15.616 -0.1809 -0.1145 -0.1143
 1740TIP3    H126635   6.223   1.180  15.642  0.6160 -0.4163 -1.8272
 1740TIP3    H226636   6.101   1.260  15.601  0.1307 -1.1102 -1.7385
 1741TIP3   OH226637   0.790   3.529   5.217 -0.3215 -0.2914  0.2496
 1741TIP3    H126638   0.754   3.564   5.298 -1.5979  0.4193 -0.5863
 1741TIP3    H226639   0.792   3.434   5.230 -3.4061 -0.4658  0.0228
 1742TIP3   OH226640   2.528   5.747   0.710 -0.0882 -0.3028  0.6413
 1742TIP3    H126641   2.602   5.729   0.768  0.2436 -0.7856  0.0762
 1742TIP3    H226642   2.478   5.815   0.756  1.7559  1.5034  0.1212
 1743TIP3   OH226643   3.796   4.545  10.696 -0.2045  0.5907  0.0423
 1743TIP3    H126644   3.799   4.455  10.729  1.0716 -0.1138 -1.7943
 1743TIP3    H226645   3.859   4.593  10.749 -0.3030  0.2026  0.5152
 1744TIP3   OH226646   2.548   4.155   0.592  0.0294 -0.2091  0.2900
 1744TIP3    H126647   2.461   4.145   0.553 -0.9959  0.8564  2.1446
 1744TIP3    H226648   2.597   4.080   0.560 -1.6359 -0.9610 -0.6549
 1745TIP3   OH226649   4.188   3.853  16.504 -0.4445  0.0012 -0.1778
 1745TIP3    H126650   4.218   3.781  16.559 -1.7772  1.3886  2.5435
 1745TIP3    H226651   4.109   3.820  16.462 -0.6871 -0.3324  0.5360
 1746TIP3   OH226652   1.916   4.570   1.191  0.3905  0.1219  0.1390
 1746TIP3    H126653   1.869   4.641   1.148  0.3359 -0.6022 -1.0516
 1746TIP3    H226654   2.009   4.592   1.179  0.3739  0.5115  0.6914
 1747TIP3   OH226655   2.383   6.789   2.206 -0.4594 -0.9326 -0.0020
 1747TIP3    H126656   2.450   6.852   2.181 -0.8770  0.0784  1.2920
 1747TIP3    H226657   2.409   6.759   2.293 -1.2279 -1.1729  0.1562
 1748TIP3   OH226658   0.398   4.767  13.001 -0.0665 -0.7981  0.0441
 1748TIP3    H126659   0.463   4.706  12.968 -1.2426 -2.1544  0.1488
 1748TIP3    H226660   0.350   4.795  12.923  1.6422  1.5538 -0.2982
 1749TIP3   OH226661   0.972   3.004   3.716  0.2410 -0.2554 -0.9995
 1749TIP3    H126662   1.041   3.004   3.782 -1.0891 -0.3099  0.4572
 1749TIP3    H226663   0.896   3.044   3.760 -0.5386  0.2263 -2.6775
 1750TIP3   OH226664   1.568   3.714   1.583 -0.0374 -0.0587  0.4409
 1750TIP3    H126665   1.648   3.661   1.578  0.3189  0.4265  0.8728
 1750TIP3    H226666   1.562   3.755   1.496 -0.1810 -0.6074  0.1878
 1751TIP3   OH226667   6.687   6.743   0.535 -0.0497  0.3726  0.3763
 1751TIP3    H126668   6.738   6.818   0.566  0.6610  0.2021 -0.3525
 1751TIP3    H226669   6.597   6.776   0.531  0.3228  1.3449 -0.3976
 1752TIP3   OH226670   1.564   5.236   0.923  0.2260  0.5975 -0.3342
 1752TIP3    H126671   1.476   5.274   0.924  0.0011  0.0905 -0.4901
 1752TIP3    H226672   1.554   5.151   0.966  0.5643  0.3888 -0.6614
 1753TIP3   OH226673   3.134   1.948  12.956  0.4260 -0.2480  0.3855
 1753TIP3    H126674   3.150   2.041  12.939 -0.2137 -0.0278  0.9259
 1753TIP3    H226675   3.085   1.918  12.880  1.0880 -0.2718 -0.0336
 1754TIP3   OH226676   4.988   4.938  15.516 -0.2182  0.3031 -0.1436
 1754TIP3    H126677   4.979   5.026  15.478  0.5752  0.7324  0.6111
 1754TIP3    H226678   4.899   4.914  15.542 -0.4213  0.9588 -0.2090
 1755TIP3   OH226679   2.794   4.752  13.247 -0.5532 -0.1285 -0.5405
 1755TIP3    H126680   2.884   4.737  13.276 -0.0686  1.6600 -0.9607
 1755TIP3    H226681   2.767   4.670  13.207  0.9899 -0.6160 -0.6281
 1756TIP3   OH226682   1.580   1.379  16.832 -0.4161 -0.7781 -0.2572
 1756TIP3    H126683   1.636   1.447  16.794  0.0393  0.0979  1.8474
 1756TIP3    H226684   1.491   1.412  16.822 -0.5509 -1.6589 -2.5977
 1757TIP3   OH226685   1.298   4.519  11.994 -0.5882 -0.3645  0.0413
 1757TIP3    H126686   1.252   4.585  12.046 -0.3340  0.6376 -0.9442
 1757TIP3    H226687   1.249   4.438  12.009 -0.0162 -0.3230  2.4733
 1758TIP3   OH226688   0.397   6.193  16.022  0.3016 -0.2721 -0.2493
 1758TIP3    H126689   0.348   6.167  15.943 -1.3800 -0.7453  0.8834
 1758TIP3    H226690   0.403   6.288  16.015 -0.3838 -0.2447 -0.6673
 1759TIP3   OH226691   0.185   2.177  12.148 -0.5320 -0.2508 -1.2990
 1759TIP3    H126692   0.163   2.265  12.117  1.7628  1.5899  1.8067
 1759TIP3    H226693   0.108   2.148  12.196 -0.5663  1.0206 -0.5480
 1760TIP3   OH226694   1.167   3.893   4.459  0.5273 -0.1503 -0.2265
 1760TIP3    H126695   1.087   3.864   4.415  0.5313  0.5518 -0.6914
 1760TIP3    H226696   1.159   3.988   4.465  0.0923 -0.2637  2.1023
 1761TIP3   OH226697   2.913   1.143   4.620 -0.4843  0.0698  0.3556
 1761TIP3    H126698   2.825   1.128   4.586 -0.5354 -2.7999  1.4649
 1761TIP3    H226699   2.901   1.201   4.694 -1.3363  0.3247  0.0276
 1762TIP3   OH226700   1.591   1.350  11.177 -0.2069 -0.7084  0.3328
 1762TIP3    H126701   1.657   1.369  11.111 -1.2213  1.4382 -0.1590
 1762TIP3    H226702   1.627   1.388  11.258 -0.1264 -0.9714  0.4197
 1763TIP3   OH226703   5.965   1.729  16.485 -0.6301 -0.4999 -0.2316
 1763TIP3    H126704   5.969   1.636  16.464 -1.7378 -0.7005  0.3539
 1763TIP3    H226705   6.017   1.771  16.417  1.8713 -1.7095  0.7897
 1764TIP3   OH226706   2.476   4.788   3.073  0.4794 -0.0172  0.6755
 1764TIP3    H126707   2.459   4.784   2.979  1.7602 -0.6411  0.4525
 1764TIP3    H226708   2.469   4.881   3.095  1.3688  0.2831 -0.2771
 1765TIP3   OH226709   2.950   3.120   5.307 -0.3482 -0.6633 -0.0366
 1765TIP3    H126710   2.958   3.110   5.212  0.6903  0.3313 -0.0730
 1765TIP3    H226711   3.040   3.136   5.337 -1.0073  2.0832  0.7178
 1766TIP3   OH226712   2.584   4.095   6.602  0.3530  0.1750 -0.0697
 1766TIP3    H126713   2.498   4.131   6.579  0.0205  0.2426  1.2191
 1766TIP3    H226714   2.569   4.046   6.682  1.3359 -0.6481 -0.3725
 1767TIP3   OH226715   4.881   1.430  13.088  0.6550 -0.1511  0.1866
 1767TIP3    H126716   4.858   1.502  13.146 -0.2949 -0.3398  0.0546
 1767TIP3    H226717   4.933   1.472  13.019 -1.2326  0.7348 -0.7770
 1768TIP3   OH226718   2.895   1.716  14.970 -0.3114  0.2639  0.5808
 1768TIP3    H126719   2.856   1.804  14.969 -0.6456  0.1075 -0.6080
 1768TIP3    H226720   2.822   1.657  14.989  0.0883  0.2970  2.4310
 1769TIP3   OH226721   1.883   3.402   0.316  0.5193  0.4260 -0.2208
 1769TIP3    H126722   1.884   3.388   0.411 -0.7981 -0.8235 -0.3542
 1769TIP3    H226723   1.810   3.461   0.301  0.3278  0.1201 -0.5071
 1770TIP3   OH226724   4.292   5.105  14.766  0.3870 -0.0247  0.2877
 1770TIP3    H126725   4.356   5.134  14.702 -0.2990  1.0343  0.0669
 1770TIP3    H226726   4.343   5.050  14.827  1.0403 -1.0527 -1.1286
 1771TIP3   OH226727   6.485   4.596  16.287 -0.1509 -0.5525 -0.8470
 1771TIP3    H126728   6.437   4.619  16.367  0.1750  0.2011 -0.8595
 1771TIP3    H226729   6.417   4.585  16.221 -0.4892 -1.9110 -0.3183
 1772TIP3   OH226730   1.848   1.936   1.746  0.4525  1.0294 -0.3193
 1772TIP3    H126731   1.825   1.852   1.786  1.0034  1.4527  0.9398
 1772TIP3    H226732   1.944   1.940   1.753  0.7513  0.5021 -2.9892
 1773TIP3   OH226733   2.662   6.624  11.305  0.0455 -0.0391  0.1573
 1773TIP3    H126734   2.621   6.591  11.385 -1.9492 -2.1457 -1.5513
 1773TIP3    H226735   2.697   6.545  11.263 -1.3365  0.5226 -2.2313
 1774TIP3   OH226736   4.514   4.023   5.439  0.0898  0.1183  0.2874
 1774TIP3    H126737   4.576   4.095   5.428  0.2534 -0.2616 -1.6414
 1774TIP3    H226738   4.569   3.944   5.439 -0.3340 -0.2927 -2.3248
 1775TIP3   OH226739   6.211   1.299  15.346  0.6535 -0.6802  0.2829
 1775TIP3    H126740   6.132   1.342  15.315  0.0074 -1.5571  0.6602
 1775TIP3    H226741   6.195   1.285  15.440  0.7843 -1.8331  0.1451
 1776TIP3   OH226742   6.376   1.133   2.582  0.3390  0.7065 -0.0771
 1776TIP3    H126743   6.467   1.117   2.558  0.5293  0.2371  0.9027
 1776TIP3    H226744   6.341   1.186   2.511  0.6014 -1.3489 -1.8359
 1777TIP3   OH226745   3.730   3.656  12.367  0.1380  0.3991  0.6685
 1777TIP3    H126746   3.669   3.585  12.386  1.5261 -0.8823  0.5685
 1777TIP3    H226747   3.767   3.633  12.281  1.6245  0.4847  1.2557
 1778TIP3   OH226748   5.741   0.808   5.028 -0.6856  0.5854 -0.0528
 1778TIP3    H126749   5.650   0.781   5.012 -0.1055 -1.6066 -0.0125
 1778TIP3    H226750   5.793   0.738   4.988  0.9229  0.2060  2.4990
 1779TIP3   OH226751   5.264   3.131  11.639 -0.2444  0.2457  0.0981
 1779TIP3    H126752   5.282   3.084  11.557 -0.7593  0.7399 -0.3103
 1779TIP3    H226753   5.322   3.206  11.637  0.4857 -0.2928  0.6904
 1780TIP3   OH226754   1.345   0.585  16.674  0.0201  0.1898 -0.4306
 1780TIP3    H126755   1.369   0.633  16.595 -0.8396 -1.1775 -1.5644
 1780TIP3    H226756   1.249   0.585  16.675  0.0078 -0.6814  0.0271
 1781TIP3   OH226757   6.757   1.599  14.366 -0.4748  0.2159 -0.2735
 1781TIP3    H126758   6.676   1.647  14.381  1.3125  2.9649  1.6777
 1781TIP3    H226759   6.819   1.666  14.337  1.1020 -1.8212 -1.8982
 1782TIP3   OH226760   2.999   0.312  13.093 -0.1080  0.0503  0.5151
 1782TIP3    H126761   2.978   0.393  13.139  0.8744  0.1378  0.8176
 1782TIP3    H226762   3.051   0.339  13.018  0.0441 -0.2810  0.4983
 1783TIP3   OH226763   2.238   6.131   0.481  0.4478  0.6815  0.6554
 1783TIP3    H126764   2.254   6.181   0.401  0.8877 -1.2762 -0.5505
 1783TIP3    H226765   2.149   6.098   0.472 -0.0113  1.5806  1.6592
 1784TIP3   OH226766   5.808   4.858   1.014  0.1189  0.1008 -0.1424
 1784TIP3    H126767   5.855   4.871   1.096 -0.6452  2.2051  0.0132
 1784TIP3    H226768   5.875   4.828   0.953  0.9481 -0.2546  0.9115
 1785TIP3   OH226769   3.963   5.863   0.719  0.0753  0.0332  0.3729
 1785TIP3    H126770   4.053   5.848   0.747  0.4809  2.6510  0.6833
 1785TIP3    H226771   3.969   5.883   0.625 -0.3787 -1.1397  0.0735
 1786TIP3   OH226772   5.984   3.278  11.332 -0.3035 -0.7083  0.3312
 1786TIP3    H126773   5.973   3.372  11.346 -0.7965 -0.7264  0.1090
 1786TIP3    H226774   6.049   3.270  11.263 -0.2065 -0.5305  0.4034
 1787TIP3   OH226775   6.076   1.079  13.230  0.2040 -0.3514  0.3465
 1787TIP3    H126776   6.129   1.158  13.214  0.6939 -0.7605 -0.0823
 1787TIP3    H226777   5.998   1.091  13.176  0.0976  0.0197  0.5806
 1788TIP3   OH226778   4.954   4.111  16.024  0.4933  0.3718  0.3412
 1788TIP3    H126779   5.024   4.122  16.088  0.4131 -0.3618  0.5615
 1788TIP3    H226780   4.876   4.092  16.076  0.4840 -0.5127  0.0198
 1789TIP3   OH226781   6.260   5.136  12.347 -0.1881 -0.3333 -0.1995
 1789TIP3    H126782   6.181   5.146  12.294  0.2383  2.0420 -0.5133
 1789TIP3    H226783   6.229   5.136  12.437 -0.5783  0.5427 -0.3246
 1790TIP3   OH226784   5.082   1.597   1.796  0.1656  0.5373 -0.4880
 1790TIP3    H126785   5.004   1.575   1.744 -1.7393  3.5800  0.7645
 1790TIP3    H226786   5.135   1.651   1.737  0.7309 -0.4522 -0.9155
 1791TIP3   OH226787   1.096   4.455   5.131  0.0267  1.0820  0.0691
 1791TIP3    H126788   1.082   4.385   5.068  0.3236  1.1679 -0.0980
 1791TIP3    H226789   1.022   4.449   5.192  1.3442 -1.0424  1.6085
 1792TIP3   OH226790   1.972   3.113  16.037 -0.1918  1.0085 -0.2567
 1792TIP3    H126791   1.884   3.079  16.020 -0.1652  2.0469 -2.8866
 1792TIP3    H226792   1.998   3.070  16.118 -1.5343 -2.5283 -1.4626
 1793TIP3   OH226793   5.034   4.276   5.082  0.0138 -0.5264 -0.1130
 1793TIP3    H126794   5.094   4.260   5.155  2.4194  2.6307 -1.1814
 1793TIP3    H226795   4.952   4.303   5.124  0.7066 -0.6657  1.4059
 1794TIP3   OH226796   0.264   6.033   3.796 -0.2380 -0.0423 -0.6401
 1794TIP3    H126797   0.223   6.055   3.880 -0.3170  0.6264 -0.8557
 1794TIP3    H226798   0.254   6.111   3.743  1.8555  0.3690 -0.4927
 1795TIP3   OH226799   2.140   2.785   2.976  0.1744 -0.2789 -0.0626
 1795TIP3    H126800   2.052   2.819   2.957 -0.2841 -1.4125 -0.0567
 1795TIP3    H226801   2.143   2.779   3.072 -0.0973 -1.1360 -0.1055
 1796TIP3   OH226802   4.645   1.770  12.254  0.0360 -0.6145  0.1952
 1796TIP3    H126803   4.678   1.806  12.172 -1.0695  1.3847  0.5745
 1796TIP3    H226804   4.557   1.740  12.233  0.6023 -2.3427  0.1197
 1797TIP3   OH226805   5.425   6.046  15.603  0.4508  0.1538  0.3236
 1797TIP3    H126806   5.509   6.078  15.638  0.9540 -0.0491 -0.6588
 1797TIP3    H226807   5.450   5.982  15.537 -0.3566  2.1206 -2.0410
 1798TIP3   OH226808   4.993   0.900   0.492 -0.1934 -0.0054  0.4210
 1798TIP3    H126809   5.047   0.832   0.533  0.0008  0.2144  0.5242
 1798TIP3    H226810   4.908   0.892   0.535 -0.0309  0.1283  0.7616
 1799TIP3   OH226811   5.302   0.326  14.127 -0.3764 -0.1967 -0.4600
 1799TIP3    H126812   5.256   0.403  14.160  0.2556  1.1473 -2.4808
 1799TIP3    H226813   5.257   0.252  14.166 -0.5693  1.1840  2.1149
 1800TIP3   OH226814   0.128   0.198  13.136  0.0137 -0.7470  0.0180
 1800TIP3    H126815   0.064   0.256  13.179 -0.0672 -0.8863  0.0864
 1800TIP3    H226816   0.093   0.185  13.048 -0.2142 -1.0745  0.1568
 1801TIP3   OH226817   2.966   1.101  11.861 -0.0243 -0.4428 -0.5393
 1801TIP3    H126818   2.871   1.100  11.846 -0.0369 -0.2154 -0.4847
 1801TIP3    H226819   2.976   1.145  11.945  0.2421  1.4462 -1.5005
 1802TIP3   OH226820   0.783   4.679  15.987 -0.1488  0.2836 -0.1265
 1802TIP3    H126821   0.718   4.658  15.919  2.0152 -3.3254 -1.3653
 1802TIP3    H226822   0.842   4.742  15.945 -0.9656  1.0773 -0.1287
 1803TIP3   OH226823   2.078   1.945   3.908  0.4448  0.1220 -0.6585
 1803TIP3    H126824   2.112   1.952   3.998 -1.5506 -1.5093  0.2912
 1803TIP3    H226825   1.983   1.941   3.919  0.0817  1.1502 -2.9693
 1804TIP3   OH226826   1.170   2.497   5.531 -0.5243  0.4621 -0.0613
 1804TIP3    H126827   1.164   2.435   5.604 -1.2374  1.4335  0.7274
 1804TIP3    H226828   1.097   2.473   5.474  1.1449 -1.5497 -1.5194
 1805TIP3   OH226829   3.591   6.080   5.513  0.3527  0.1429 -0.0869
 1805TIP3    H126830   3.663   6.125   5.557  0.4172  1.0501 -1.0791
 1805TIP3    H226831   3.512   6.120   5.548  0.4099  1.1082 -0.9914
 1806TIP3   OH226832   0.502   4.743   4.046 -0.3250  0.8257  0.0945
 1806TIP3    H126833   0.545   4.657   4.051 -3.1819 -0.6444  2.2834
 1806TIP3    H226834   0.488   4.768   4.137  0.1955  3.5692 -0.5057
 1807TIP3   OH226835   3.599   5.021  15.028 -0.3535 -0.1004  0.1354
 1807TIP3    H126836   3.526   4.989  14.975  0.7046 -0.8722 -0.9046
 1807TIP3    H226837   3.669   4.957  15.014  0.8060  1.0663  0.4290
 1808TIP3   OH226838   0.631   5.805  12.672  0.2172 -0.3616 -0.0366
 1808TIP3    H126839   0.632   5.808  12.768  1.2532 -0.1562 -0.0384
 1808TIP3    H226840   0.722   5.789  12.648  0.3517  1.5965 -1.0359
 1809TIP3   OH226841   5.166   4.039   2.539 -0.0939 -0.4668 -0.0613
 1809TIP3    H126842   5.137   3.950   2.558 -1.2843 -0.0328  0.2747
 1809TIP3    H226843   5.252   4.029   2.499  0.0099 -1.7327  0.4488
 1810TIP3   OH226844   6.703   0.200   3.476  0.0356  0.4145  0.5074
 1810TIP3    H126845   6.622   0.168   3.438  0.6064 -0.2480 -0.1642
 1810TIP3    H226846   6.675   0.259   3.547 -1.0465  1.6649 -0.8965
 1811TIP3   OH226847   2.430   0.808   0.364  1.0840 -0.8169  0.3935
 1811TIP3    H126848   2.455   0.890   0.321  0.7290 -0.6831  0.4375
 1811TIP3    H226849   2.339   0.822   0.391  0.8513 -1.4240 -0.0650
 1812TIP3   OH226850   2.351   5.969   1.966  0.8261 -0.2817 -0.3196
 1812TIP3    H126851   2.306   6.053   1.973 -0.3752 -0.8227 -1.2133
 1812TIP3    H226852   2.438   5.992   1.931  0.0511  0.4924 -1.8437
 1813TIP3   OH226853   0.922   1.386  15.946 -0.4129 -0.6002 -0.6489
 1813TIP3    H126854   0.967   1.467  15.968 -3.0494  1.2864 -1.6961
 1813TIP3    H226855   0.990   1.330  15.909  1.2250  1.7391 -1.3992
 1814TIP3   OH226856   1.204   0.654  14.008  0.4600  0.4490 -0.1437
 1814TIP3    H126857   1.292   0.687  13.994  0.5624  1.3429  2.2676
 1814TIP3    H226858   1.204   0.621  14.098 -0.7688 -2.6255 -1.1288
 1815TIP3   OH226859   2.032   2.582   5.327  0.3919 -0.2064 -0.2920
 1815TIP3    H126860   1.958   2.568   5.386  0.3895  1.1134  0.0341
 1815TIP3    H226861   2.109   2.563   5.380  0.3500 -0.0581 -0.1785
 1816TIP3   OH226862   1.029   4.411   2.847 -0.0342 -0.7941  0.3429
 1816TIP3    H126863   1.001   4.331   2.802  0.8245 -0.2716 -1.2207
 1816TIP3    H226864   0.992   4.482   2.794  0.3840 -0.1589  0.8970
 1817TIP3   OH226865   4.701   5.799   3.910 -0.2890  0.1293  0.5884
 1817TIP3    H126866   4.703   5.891   3.933 -0.3919  0.0513  0.9097
 1817TIP3    H226867   4.608   5.775   3.912 -0.3119  0.1403  0.0128
 1818TIP3   OH226868   5.831   0.392  16.707 -0.0473  0.3608 -0.3893
 1818TIP3    H126869   5.758   0.449  16.732 -0.5859 -0.1675 -0.7299
 1818TIP3    H226870   5.813   0.309  16.752  1.4579  0.8602  1.2396
 1819TIP3   OH226871   2.184   5.984  12.719  0.4014 -0.4759  0.0935
 1819TIP3    H126872   2.173   5.967  12.813  3.6869 -0.7270  0.5386
 1819TIP3    H226873   2.122   6.055  12.701 -0.6595 -0.7200  2.3249
 1820TIP3   OH226874   0.318   0.759   4.081 -0.2268 -0.6966  0.1880
 1820TIP3    H126875   0.257   0.727   4.015 -1.0590 -0.4053  0.8011
 1820TIP3    H226876   0.402   0.719   4.057 -0.7074 -1.3161 -0.5129
 1821TIP3   OH226877   2.519   6.283  15.690 -0.1123 -0.4922  0.4089
 1821TIP3    H126878   2.510   6.378  15.686  1.2165 -0.3493  0.6769
 1821TIP3    H226879   2.453   6.256  15.754 -1.1278  0.1392 -0.3341
 1822TIP3   OH226880   2.260   2.889   0.783 -0.5065  0.1233  0.2589
 1822TIP3    H126881   2.217   2.927   0.859  0.0685  0.1294  0.5875
 1822TIP3    H226882   2.237   2.948   0.711 -1.1765  0.0339  0.3920
 1823TIP3   OH226883   3.080   1.497  16.387 -0.1484  0.4472 -0.5916
 1823TIP3    H126884   2.997   1.529  16.352 -0.6142  0.9875  0.9537
 1823TIP3    H226885   3.141   1.503  16.313 -0.6305  3.2775 -0.8552
 1824TIP3   OH226886   2.700   1.016   4.525  0.1333 -0.1902  0.0672
 1824TIP3    H126887   2.623   0.960   4.517 -1.4362  1.8075  0.2728
 1824TIP3    H226888   2.731   1.027   4.435 -0.6307  0.0027 -0.1878
 1825TIP3   OH226889   5.868   2.392   5.312 -0.0220 -0.3825  0.0114
 1825TIP3    H126890   5.864   2.488   5.322 -1.1569 -0.3105 -0.8983
 1825TIP3    H226891   5.957   2.376   5.279  0.2837  0.3248  0.4523
 1826TIP3   OH226892   5.438   0.450  13.661 -0.6807 -0.1825  0.1335
 1826TIP3    H126893   5.481   0.390  13.600 -1.4444 -0.8810  0.2605
 1826TIP3    H226894   5.348   0.417  13.666 -0.9794  0.6929  0.5827
 1827TIP3   OH226895   0.072   3.644   6.303  0.2677 -0.1309  0.1696
 1827TIP3    H126896   0.096   3.713   6.364  0.3286  0.5276 -0.5784
 1827TIP3    H226897   0.137   3.575   6.317 -0.3209 -0.4339  1.5514
 1828TIP3   OH226898   0.809   6.589   4.691  0.0491 -0.4364  0.2819
 1828TIP3    H126899   0.720   6.623   4.699 -0.5798 -2.0311  0.4097
 1828TIP3    H226900   0.823   6.581   4.597  0.3838  0.5611  0.2296
 1829TIP3   OH226901   1.541   3.639  13.508  0.2453 -0.4335  0.8973
 1829TIP3    H126902   1.626   3.621  13.468  0.1931  0.1992  0.4742
 1829TIP3    H226903   1.562   3.667  13.598  0.5364  0.2650  0.6217
 1830TIP3   OH226904   4.326   5.454   5.608 -0.7384  0.8299  0.3001
 1830TIP3    H126905   4.319   5.377   5.553 -4.4099  0.5755  0.8425
 1830TIP3    H226906   4.352   5.524   5.549 -1.3866 -0.0560 -1.0791
 1831TIP3   OH226907   3.085   3.904  16.959 -0.1846  0.1761  0.0457
 1831TIP3    H126908   3.176   3.926  16.980 -0.0645 -0.6113  0.3849
 1831TIP3    H226909   3.036   3.984  16.976  0.4408  0.6077 -0.1366
 1832TIP3   OH226910   0.416   3.846  12.872 -0.1412  0.0189 -0.3867
 1832TIP3    H126911   0.438   3.852  12.965 -0.3304 -0.7607 -0.2862
 1832TIP3    H226912   0.481   3.786  12.836 -0.6427 -0.4191 -0.5699
 1833TIP3   OH226913   6.031   4.069   0.764 -0.9461 -0.4159  0.0113
 1833TIP3    H126914   5.949   4.052   0.719 -1.2944 -1.6872  1.0577
 1833TIP3    H226915   6.048   3.989   0.815  0.5204  0.1292  0.4483
 1834TIP3   OH226916   4.197   5.925  12.421  0.1570  0.3235 -0.2932
 1834TIP3    H126917   4.216   5.831  12.416 -0.5458  0.1131  0.7525
 1834TIP3    H226918   4.102   5.930  12.417  0.1634  0.9503  0.2178
 1835TIP3   OH226919   4.157   5.967   5.209  0.3912  0.1606 -0.4806
 1835TIP3    H126920   4.160   5.937   5.300 -0.4042 -3.2034 -1.4068
 1835TIP3    H226921   4.074   6.013   5.201  0.8390  1.2127  0.6440
 1836TIP3   OH226922   5.673   1.739  14.375  0.4426 -0.3219  0.1286
 1836TIP3    H126923   5.667   1.816  14.431  0.8438 -0.4461  0.3488
 1836TIP3    H226924   5.762   1.742  14.340  0.0917 -0.0775 -0.7474
 1837TIP3   OH226925   5.194   0.475   0.679 -0.0294  0.2074 -0.3764
 1837TIP3    H126926   5.199   0.490   0.773 -0.5956  1.1459 -0.4828
 1837TIP3    H226927   5.201   0.380   0.669  1.4844  0.2091  0.4996
 1838TIP3   OH226928   1.515   3.874   4.623  0.6366  0.2919 -0.3818
 1838TIP3    H126929   1.576   3.804   4.644 -2.3589 -2.1514  0.9113
 1838TIP3    H226930   1.481   3.852   4.536 -1.2185 -0.6815  0.5301
 1839TIP3   OH226931   4.049   2.171   2.302  0.3926  0.3109  0.6722
 1839TIP3    H126932   4.007   2.187   2.387  0.5981  0.1139  0.8123
 1839TIP3    H226933   3.979   2.138   2.246 -0.1893  2.1996  0.2064
 1840TIP3   OH226934   5.587   5.277   2.988  0.6956 -0.1268  0.1437
 1840TIP3    H126935   5.657   5.212   2.995 -0.3779 -1.1789  1.8240
 1840TIP3    H226936   5.609   5.343   3.055  0.1769 -0.3911  0.5847
 1841TIP3   OH226937   5.241   4.062   3.665 -0.2253 -0.0087  0.3311
 1841TIP3    H126938   5.168   4.001   3.677 -1.3324  0.9876 -0.9221
 1841TIP3    H226939   5.200   4.142   3.632  1.0335  1.8551  2.9366
 1842TIP3   OH226940   5.612   4.807   2.683 -0.3499 -0.1081 -0.6908
 1842TIP3    H126941   5.691   4.808   2.737 -1.3251 -0.5155  0.8163
 1842TIP3    H226942   5.566   4.889   2.705 -1.3625 -0.8529  0.0917
 1843TIP3   OH226943   6.295   3.435   2.741 -0.1763 -0.2005  0.2635
 1843TIP3    H126944   6.306   3.360   2.800  1.4699  0.5686  1.0011
 1843TIP3    H226945   6.384   3.466   2.725 -0.8754  2.6656  1.3853
 1844TIP3   OH226946   1.353   3.761   3.591 -0.1206 -0.0705 -0.1471
 1844TIP3    H126947   1.337   3.675   3.552 -0.3559  0.3472 -0.9988
 1844TIP3    H226948   1.293   3.766   3.665  0.4068 -0.9212  0.3563
 1845TIP3   OH226949   3.879   2.405  14.050 -0.0394 -0.4547 -0.1249
 1845TIP3    H126950   3.814   2.467  14.019  0.8902  0.3530 -0.5010
 1845TIP3    H226951   3.828   2.335  14.090 -1.1296  0.1874 -0.3559
 1846TIP3   OH226952   2.706   6.669   2.221  0.1647  0.0881  0.2245
 1846TIP3    H126953   2.773   6.643   2.158 -0.2526 -0.3811 -0.0354
 1846TIP3    H226954   2.741   6.748   2.262  0.3189  0.5628 -0.7975
 1847TIP3   OH226955   6.005   5.596   1.849  0.7878  0.8323 -0.1600
 1847TIP3    H126956   5.945   5.634   1.914 -0.5990 -0.4904 -0.5989
 1847TIP3    H226957   6.049   5.525   1.896  0.0816  0.1359 -0.5353
 1848TIP3   OH226958   4.460   3.962   2.655 -0.4383  0.1367  0.0053
 1848TIP3    H126959   4.471   3.982   2.562  1.7160  0.6741  0.3270
 1848TIP3    H226960   4.391   3.896   2.657 -1.1048  0.7077 -1.8886
 1849TIP3   OH226961   2.010   5.392   2.579  0.1035  0.5271 -0.2703
 1849TIP3    H126962   2.085   5.452   2.576  0.1818  0.4119 -0.6743
 1849TIP3    H226963   1.950   5.425   2.512  1.5107 -1.6303 -2.7629
 1850TIP3   OH226964   1.477   3.711   2.516  0.5649 -0.2192  0.4468
 1850TIP3    H126965   1.417   3.783   2.494 -0.8157 -1.7446 -1.0113
 1850TIP3    H226966   1.456   3.689   2.607  1.3507  1.4846  1.0876
 1851TIP3   OH226967   4.095   0.155  14.195 -0.2627  0.7152 -0.0057
 1851TIP3    H126968   4.030   0.133  14.262 -0.8587  0.3413 -0.6822
 1851TIP3    H226969   4.167   0.095  14.212 -1.5325 -1.3162 -1.3223
 1852TIP3   OH226970   2.234   0.416  11.122  0.1808  0.2352  0.0717
 1852TIP3    H126971   2.225   0.478  11.050  0.1332 -0.0847 -0.2007
 1852TIP3    H226972   2.170   0.348  11.103  1.8437 -1.1219 -0.8907
 1853TIP3   OH226973   4.771   4.389   5.109  0.3419  0.5617 -0.1125
 1853TIP3    H126974   4.699   4.370   5.048 -0.3074 -1.1766  1.1187
 1853TIP3    H226975   4.732   4.447   5.174  0.7663  1.6190 -0.7770
 1854TIP3   OH226976   3.875   3.738   6.136  0.2149 -0.6210  0.4369
 1854TIP3    H126977   3.889   3.693   6.052  1.6509  2.6093 -1.2216
 1854TIP3    H226978   3.962   3.741   6.176 -0.2874 -1.2705  1.6377
 1855TIP3   OH226979   5.755   2.247  11.641  0.1647  0.4281 -0.3157
 1855TIP3    H126980   5.733   2.336  11.670  1.1819  0.4921  0.3257
 1855TIP3    H226981   5.844   2.256  11.606 -0.0760 -0.1664 -1.0797
 1856TIP3   OH226982   2.627   4.617  12.592 -0.0007  0.0284  0.4355
 1856TIP3    H126983   2.694   4.564  12.549 -1.5117 -0.1574 -1.8237
 1856TIP3    H226984   2.658   4.707  12.581  1.0411 -0.1538  1.5857
 1857TIP3   OH226985   2.552   6.464  11.544 -0.0642 -0.4435 -0.3709
 1857TIP3    H126986   2.515   6.545  11.579  0.4887 -1.1107  1.9287
 1857TIP3    H226987   2.478   6.421  11.501 -0.2179  1.5312 -2.1962
 1858TIP3   OH226988   6.722   4.527   5.496  0.5081 -0.1705  0.2238
 1858TIP3    H126989   6.706   4.441   5.459  0.9635 -0.3809  0.5077
 1858TIP3    H226990   6.721   4.586   5.421  0.0378 -0.3953  0.0480
 1859TIP3   OH226991   1.077   4.159  12.905 -0.3791  0.4425  0.5844
 1859TIP3    H126992   1.063   4.213  12.983  1.0085  0.8177  0.5897
 1859TIP3    H226993   1.092   4.222  12.835 -2.1905  0.1289 -0.1527
 1860TIP3   OH226994   0.691   5.327  14.025  0.0981 -0.5013 -0.2937
 1860TIP3    H126995   0.637   5.310  14.102  0.0740  1.4292  0.1560
 1860TIP3    H226996   0.778   5.294  14.049 -0.1808 -0.9454  0.1163
 1861TIP3   OH226997   6.120   3.068   2.283 -0.3387  0.2405 -0.9409
 1861TIP3    H126998   6.176   3.138   2.318 -0.5921  0.8028 -1.6339
 1861TIP3    H226999   6.117   3.085   2.189  1.4296 -2.0291 -1.4765
 1862TIP3   OH227000   0.686   4.196  10.975  0.0270 -0.1992  0.3252
 1862TIP3    H127001   0.707   4.159  10.889 -0.9132  0.5703 -0.2627
 1862TIP3    H227002   0.640   4.278  10.955  0.8040  0.5792  1.5718
 1863TIP3   OH227003   0.210   2.238  10.826  0.1825  0.1467 -0.5786
 1863TIP3    H127004   0.302   2.212  10.819  0.2786 -0.0965  1.2832
 1863TIP3    H227005   0.210   2.331  10.803  0.6916 -0.1229 -1.7551
 1864TIP3   OH227006   1.155   2.933   1.446  0.3668  0.1117  0.2103
 1864TIP3    H127007   1.136   2.926   1.540 -0.4006 -0.6443  0.0166
 1864TIP3    H227008   1.175   2.843   1.419 -0.5940  0.1247 -0.5825
 1865TIP3   OH227009   6.185   3.644   5.637 -0.5420 -0.4402  0.3170
 1865TIP3    H127010   6.194   3.618   5.546  0.2557 -0.9882  0.5426
 1865TIP3    H227011   6.118   3.586   5.673 -0.6469 -0.4167  0.1581
 1866TIP3   OH227012   3.225   6.589  11.576  0.2528  0.0149 -0.1374
 1866TIP3    H127013   3.181   6.510  11.605  1.7162 -0.7024  0.2532
 1866TIP3    H227014   3.294   6.558  11.517  0.7806  0.9890 -0.0574
 1867TIP3   OH227015   0.077   4.677   6.157 -0.0678  0.1530  0.1212
 1867TIP3    H127016   0.119   4.595   6.129 -1.5413 -0.6105  0.0277
 1867TIP3    H227017   0.023   4.702   6.083 -2.2608 -0.6664  1.3349
 1868TIP3   OH227018   2.850   2.104  12.516  0.5061 -0.2419 -0.1081
 1868TIP3    H127019   2.803   2.118  12.598 -0.4352  2.3440 -0.9560
 1868TIP3    H227020   2.783   2.072  12.455  0.2898  1.3211 -0.7433
 1869TIP3   OH227021   4.265   5.315   3.071 -0.3559  0.2048  0.5646
 1869TIP3    H127022   4.262   5.283   3.161  2.1880  0.4312  0.8009
 1869TIP3    H227023   4.335   5.264   3.030 -0.0993  1.5078 -0.6829
 1870TIP3   OH227024   5.557   4.452   1.012  0.0670  0.4430 -0.0803
 1870TIP3    H127025   5.648   4.481   1.013  0.6816 -1.1514 -2.3499
 1870TIP3    H227026   5.506   4.533   1.012  1.5159  1.3945 -0.4831
 1871TIP3   OH227027   1.800   5.511  16.568 -0.2956  0.5020  0.1439
 1871TIP3    H127028   1.854   5.439  16.601 -2.2911 -1.3465 -0.4333
 1871TIP3    H227029   1.777   5.561  16.646 -0.0822 -0.3518  0.7768
 1872TIP3   OH227030   3.678   1.300   0.260 -0.0772 -0.1858 -0.2522
 1872TIP3    H127031   3.746   1.346   0.211 -0.5432 -0.8245 -1.5397
 1872TIP3    H227032   3.721   1.272   0.341  1.3190 -0.9728 -1.2268
 1873TIP3   OH227033   4.352   5.478   5.125 -0.3042 -0.8852  0.7874
 1873TIP3    H127034   4.398   5.422   5.062 -1.3313  0.7192 -1.5147
 1873TIP3    H227035   4.263   5.483   5.092 -0.0655  2.7711  0.3165
 1874TIP3   OH227036   0.351   6.660  12.872 -0.1451  0.3143 -0.2309
 1874TIP3    H127037   0.393   6.704  12.799 -0.0846 -0.9732 -1.0117
 1874TIP3    H227038   0.285   6.722  12.903  0.1567  1.0742 -1.0630
 1875TIP3   OH227039   5.346   1.730  13.013  0.0990  0.2877 -0.1958
 1875TIP3    H127040   5.433   1.769  13.000  0.1593  0.4617  0.6554
 1875TIP3    H227041   5.285   1.803  13.002  0.2247  0.7218  1.6209
 1876TIP3   OH227042   2.378   3.371   5.523 -0.2392  0.1052  0.0592
 1876TIP3    H127043   2.353   3.395   5.612 -0.7617 -0.1694 -0.0080
 1876TIP3    H227044   2.398   3.454   5.480  2.0437  0.0988  1.0133
 1877TIP3   OH227045   1.555   6.562  11.087 -0.0996  0.2311 -0.1318
 1877TIP3    H127046   1.503   6.612  11.150  0.7489 -0.9751  1.6040
 1877TIP3    H227047   1.605   6.628  11.039  0.3127  1.1231  1.4662
 1878TIP3   OH227048   0.655   4.229   4.036  0.0126  0.0831  0.1347
 1878TIP3    H127049   0.633   4.137   4.026 -0.3163 -0.0080  1.5714
 1878TIP3    H227050   0.712   4.248   3.961 -0.0206 -1.2393 -0.2461
 1879TIP3   OH227051   2.760   4.918   5.094 -0.8244  0.4143  0.6913
 1879TIP3    H127052   2.823   4.967   5.146  0.3527 -0.5314  0.2081
 1879TIP3    H227053   2.739   4.976   5.021  2.4932 -0.6113 -1.2881
 1880TIP3   OH227054   4.690   1.224   2.515  0.2175 -0.0368  0.6007
 1880TIP3    H127055   4.606   1.240   2.472 -1.0299  1.0206  3.2063
 1880TIP3    H227056   4.746   1.296   2.487  0.0115 -0.2574 -0.4425
 1881TIP3   OH227057   1.214   4.162   3.193 -0.3566 -0.3220  0.6431
 1881TIP3    H127058   1.145   4.168   3.259 -1.4356  1.1394 -0.5474
 1881TIP3    H227059   1.208   4.244   3.144  1.6767 -0.5273 -0.0663
 1882TIP3   OH227060   3.942   0.062  10.932  0.3557  0.4095  0.2415
 1882TIP3    H127061   3.914  -0.029  10.924  0.7387  0.3807 -1.1468
 1882TIP3    H227062   3.868   0.106  10.974 -0.5774 -0.2197 -0.6799
 1883TIP3   OH227063   2.382   3.660   4.990 -0.0199 -0.1977  0.4674
 1883TIP3    H127064   2.334   3.735   4.953 -2.5304 -2.2325 -0.7084
 1883TIP3    H227065   2.326   3.629   5.061  0.7000 -1.2952  0.5737
 1884TIP3   OH227066   1.207   5.201  13.608  0.0090 -0.4128 -0.2232
 1884TIP3    H127067   1.177   5.152  13.532  0.1657 -1.0602  0.1266
 1884TIP3    H227068   1.254   5.137  13.661 -1.5251 -0.4124  1.2468
 1885TIP3   OH227069   2.053   6.003  14.092  0.0063 -0.0962  0.1051
 1885TIP3    H127070   2.027   6.077  14.145  1.2757  0.2164  0.3173
 1885TIP3    H227071   2.094   5.942  14.153 -1.0767 -1.0207 -0.0538
 1886TIP3   OH227072   6.248   0.458  12.721  0.7546  0.3264 -0.0523
 1886TIP3    H127073   6.219   0.478  12.810  0.8987 -0.0022  0.0686
 1886TIP3    H227074   6.221   0.368  12.706 -0.0708  0.6550 -0.6748
 1887TIP3   OH227075   1.581   4.756   3.658  0.0930  0.1893 -0.4259
 1887TIP3    H127076   1.597   4.806   3.578 -1.0958  2.2295  0.5506
 1887TIP3    H227077   1.620   4.670   3.640  1.1340  1.0414 -2.6266
 1888TIP3   OH227078   1.605   2.192   2.205 -0.2957  0.2105 -0.4528
 1888TIP3    H127079   1.687   2.206   2.158  0.3590 -0.2584  0.5178
 1888TIP3    H227080   1.571   2.280   2.219  0.0832  0.4148 -0.7824
 1889TIP3   OH227081   2.211   4.048  15.777  0.8155  0.1488 -0.1792
 1889TIP3    H127082   2.243   4.138  15.781  0.9133  0.1394 -0.6598
 1889TIP3    H227083   2.204   4.021  15.868 -0.3200  1.0403  0.0247
 1890TIP3   OH227084   3.745   2.222  15.403 -0.5458 -0.0758 -0.6702
 1890TIP3    H127085   3.710   2.181  15.324 -1.7599 -0.5684  0.0997
 1890TIP3    H227086   3.838   2.236  15.383 -0.6692 -0.8504 -1.9070
 1891TIP3   OH227087   5.155   3.571  15.120  0.0159  0.5874 -0.0623
 1891TIP3    H127088   5.228   3.524  15.080 -0.9879 -0.7029 -0.4175
 1891TIP3    H227089   5.098   3.593  15.047 -2.0995 -2.2466  0.5792
 1892TIP3   OH227090   1.845   3.877  12.867 -0.5249 -0.1824 -0.0228
 1892TIP3    H127091   1.860   3.904  12.957 -0.0160  1.0043 -0.4463
 1892TIP3    H227092   1.886   3.791  12.860 -1.3205 -0.6693  1.0977
 1893TIP3   OH227093   1.923   6.581  13.886  0.3791 -0.3364  0.2771
 1893TIP3    H127094   2.010   6.584  13.926  1.0162  1.1393 -1.0827
 1893TIP3    H227095   1.869   6.636  13.943  0.9623  0.7209 -0.1550
 1894TIP3   OH227096   4.104   2.562   1.744  0.7406  0.2498  0.0359
 1894TIP3    H127097   4.026   2.618   1.748  0.2155 -0.2406 -2.1057
 1894TIP3    H227098   4.073   2.477   1.773  0.5139  0.1038 -0.6211
 1895TIP3   OH227099   3.284   5.140   2.633 -0.5819  0.0560  0.6939
 1895TIP3    H127100   3.326   5.092   2.561 -0.2018  0.4055  0.6748
 1895TIP3    H227101   3.204   5.092   2.651 -1.8962  1.2541 -1.5312
 1896TIP3   OH227102   0.808   3.675  12.383 -0.3103 -0.5976  0.4447
 1896TIP3    H127103   0.771   3.750  12.429 -0.0274 -0.5354  0.5738
 1896TIP3    H227104   0.831   3.708  12.296  0.2476 -0.4120  0.6588
 1897TIP3   OH227105   4.513   2.465   4.689 -0.1695 -0.7919  0.3604
 1897TIP3    H127106   4.485   2.421   4.769  0.7693 -0.8010  0.6902
 1897TIP3    H227107   4.606   2.444   4.681  0.0290  0.2231 -0.0827
 1898TIP3   OH227108   2.612   1.140   3.434  0.1055  0.2885 -0.4431
 1898TIP3    H127109   2.623   1.231   3.464 -0.7075  0.7295 -1.4162
 1898TIP3    H227110   2.547   1.103   3.493  2.0527 -0.4025  1.3953
 1899TIP3   OH227111   6.782   4.382  11.875 -0.3221  0.0968  0.4702
 1899TIP3    H127112   6.851   4.320  11.898 -0.6305 -0.9107 -1.1574
 1899TIP3    H227113   6.704   4.349  11.921 -0.1916  0.0141  0.6317
 1900TIP3   OH227114   4.407   4.263   6.366  0.0138  0.4750 -0.4794
 1900TIP3    H127115   4.428   4.286   6.275  1.3835  1.6696  0.0901
 1900TIP3    H227116   4.434   4.339   6.417 -0.5699 -0.2386  0.9609
 1901TIP3   OH227117   4.390   1.911   5.434  0.4127 -0.1839  0.0020
 1901TIP3    H127118   4.312   1.959   5.461 -0.5058 -2.1489  0.9915
 1901TIP3    H227119   4.460   1.977   5.437 -0.7180  1.0405  1.5530
 1902TIP3   OH227120   1.195   3.291   3.801 -0.5751 -0.4906  0.1879
 1902TIP3    H127121   1.236   3.278   3.716 -0.6863  3.0804 -0.5440
 1902TIP3    H227122   1.140   3.213   3.812 -0.9709 -0.8665 -3.2523
 1903TIP3   OH227123   1.446   5.031  13.483 -0.1947  0.1151  0.1817
 1903TIP3    H127124   1.456   4.937  13.467 -0.6563  0.0398  0.3276
 1903TIP3    H227125   1.356   5.050  13.457 -0.6122  0.2076  1.6371
 1904TIP3   OH227126   5.254   3.204  10.690 -0.0545 -0.0476  0.3236
 1904TIP3    H127127   5.159   3.209  10.689 -0.1123 -0.7255  1.0696
 1904TIP3    H227128   5.275   3.137  10.625 -0.0189  0.7695 -0.5267
 1905TIP3   OH227129   3.338   0.001   1.080 -0.6064 -0.0587  0.0638
 1905TIP3    H127130   3.383  -0.028   1.000 -0.5116  0.5147 -0.0976
 1905TIP3    H227131   3.248   0.018   1.051 -0.1643  1.7961 -0.3194
 1906TIP3   OH227132   2.154   0.122  16.758  0.0506 -0.0978 -0.7057
 1906TIP3    H127133   2.077   0.157  16.804  0.8125  0.7668 -0.0610
 1906TIP3    H227134   2.188   0.195  16.708  1.1702 -0.1203 -0.0111
 1907TIP3   OH227135   3.938   1.589   3.257  0.5855  0.0452  0.6095
 1907TIP3    H127136   3.929   1.595   3.162  0.2968 -0.5527  0.5933
 1907TIP3    H227137   4.030   1.609   3.274  0.1806  2.4273  0.4243
 1908TIP3   OH227138   4.917   3.434  12.626 -0.2533 -0.1407  0.4138
 1908TIP3    H127139   4.991   3.485  12.660  1.7662 -1.9270 -1.0531
 1908TIP3    H227140   4.914   3.457  12.533 -4.5991  3.3824  1.1010
 1909TIP3   OH227141   1.647   5.773  12.983  0.3230 -0.4192 -0.5373
 1909TIP3    H127142   1.571   5.782  12.924 -1.0749 -1.3379  1.0530
 1909TIP3    H227143   1.612   5.792  13.070  2.0543 -0.3796  0.1798
 1910TIP3   OH227144   0.201   6.093  16.559 -0.1047 -0.3240 -0.4310
 1910TIP3    H127145   0.291   6.063  16.546 -0.0855  0.5947 -3.0085
 1910TIP3    H227146   0.150   6.012  16.573  1.0547 -0.8491  1.0859
 1911TIP3   OH227147   5.862   0.924   0.142 -0.7873  0.1463  0.0356
 1911TIP3    H127148   5.948   0.913   0.183 -0.6700  0.2879 -0.1688
 1911TIP3    H227149   5.831   1.008   0.176 -0.0247  1.0243 -1.3243
 1912TIP3   OH227150   6.310   2.208  14.769  0.2630 -0.1050  0.1669
 1912TIP3    H127151   6.247   2.280  14.779  1.1579  0.6197  0.7684
 1912TIP3    H227152   6.382   2.231  14.827  0.2919 -1.8436  0.8688
 1913TIP3   OH227153   5.675   3.083   1.346 -0.3608 -0.3879 -0.4224
 1913TIP3    H127154   5.720   3.167   1.343  0.3242 -0.7409 -0.1916
 1913TIP3    H227155   5.653   3.070   1.439 -0.8993 -0.2412 -0.5252
 1914TIP3   OH227156   0.406   3.092   5.446 -0.7614 -0.3762  0.2971
 1914TIP3    H127157   0.319   3.103   5.485 -0.5393 -0.0244  0.6915
 1914TIP3    H227158   0.400   3.137   5.362 -1.2485 -1.1587 -0.0969
 1915TIP3   OH227159   4.243   2.174   6.419 -0.2071  0.0387  0.5821
 1915TIP3    H127160   4.216   2.197   6.330 -1.6631 -0.6774  0.8074
 1915TIP3    H227161   4.303   2.243   6.445 -0.8184  0.9856 -0.4664
 1916TIP3   OH227162   3.619   2.823  16.780 -0.0134  0.4317  0.1812
 1916TIP3    H127163   3.567   2.893  16.820  0.5865  1.1243 -0.2297
 1916TIP3    H227164   3.710   2.846  16.799  0.1828 -0.4356  0.3489
 1917TIP3   OH227165   6.072   0.809  11.803 -0.0394  0.1375  0.0799
 1917TIP3    H127166   6.132   0.748  11.759 -0.7996  0.3513 -1.3102
 1917TIP3    H227167   6.056   0.768  11.889  2.4291  0.3153  0.7192
 1918TIP3   OH227168   6.514   2.311  14.988  0.0794 -0.0431  0.2736
 1918TIP3    H127169   6.444   2.364  15.027  0.7479 -0.0533  1.5296
 1918TIP3    H227170   6.595   2.348  15.024  0.6395 -0.9254 -0.0580
 1919TIP3   OH227171   4.170   1.630   1.130  0.0650  0.0011 -0.0043
 1919TIP3    H127172   4.166   1.534   1.126  1.0221 -0.0374 -0.2946
 1919TIP3    H227173   4.241   1.653   1.070  2.2708  0.6489  2.6984
 1920TIP3   OH227174   3.600   4.938   5.063  0.5310  0.5911 -0.3000
 1920TIP3    H127175   3.654   4.952   5.141 -0.0397  0.9177  0.0390
 1920TIP3    H227176   3.582   4.844   5.064  0.6352  0.5717 -0.1120
 1921TIP3   OH227177   0.194   1.085   0.917 -0.1576 -0.3990  0.2470
 1921TIP3    H127178   0.116   1.055   0.871 -1.1537  0.7977  1.0543
 1921TIP3    H227179   0.262   1.023   0.893 -1.4036 -1.6010 -0.3380
 1922TIP3   OH227180   2.855   0.486  16.845  0.1205 -0.0647 -0.6568
 1922TIP3    H127181   2.866   0.468  16.751 -1.7566 -0.3301 -0.8644
 1922TIP3    H227182   2.926   0.437  16.887  1.4884  0.7043 -1.9700
 1923TIP3   OH227183   5.895   6.376   6.920  0.0593 -0.0599  0.4703
 1923TIP3    H127184   5.806   6.388   6.887  0.3539  0.5135 -0.1330
 1923TIP3    H227185   5.948   6.364   6.842  0.5240 -0.3653  0.8284
 1924TIP3   OH227186   4.475   2.892   1.183  0.0376  0.4223  0.3706
 1924TIP3    H127187   4.449   2.860   1.270 -0.8925 -0.6672 -0.2854
 1924TIP3    H227188   4.429   2.976   1.174  0.8388  0.9766  1.2682
 1925TIP3   OH227189   3.540   3.186   4.028  0.6813 -0.2238 -0.0577
 1925TIP3    H127190   3.582   3.101   4.042  1.2931  0.2148  0.8397
 1925TIP3    H227191   3.521   3.218   4.116 -2.6706 -0.9294 -0.4228
 1926TIP3   OH227192   3.541   4.510   1.183  0.1042 -0.3160  0.0214
 1926TIP3    H127193   3.617   4.518   1.242  0.5795  3.0165 -0.8386
 1926TIP3    H227194   3.579   4.505   1.096 -0.6448 -0.3544 -0.3076
 1927TIP3   OH227195   0.404   5.975  15.396 -0.6087 -0.1944 -0.4198
 1927TIP3    H127196   0.356   5.919  15.335  1.5430 -1.3548 -1.1154
 1927TIP3    H227197   0.494   5.945  15.392  0.3490  2.2782  0.4231
 1928TIP3   OH227198   4.101   1.569  14.124  0.3680  0.4010  0.4557
 1928TIP3    H127199   4.036   1.578  14.194 -0.5086 -1.5566 -0.0537
 1928TIP3    H227200   4.135   1.480  14.134  0.5165  0.2285 -1.3567
 1929TIP3   OH227201   0.103   2.359   0.278 -0.1339 -0.4125 -0.1427
 1929TIP3    H127202   0.076   2.407   0.199 -1.1823 -1.2237 -0.3046
 1929TIP3    H227203   0.185   2.401   0.305 -0.7723  1.1469 -0.5371
 1930TIP3   OH227204   1.479   2.155   2.477 -0.7261  0.3904  0.1383
 1930TIP3    H127205   1.492   2.239   2.521 -2.0550  1.3966 -1.2873
 1930TIP3    H227206   1.521   2.166   2.391 -1.6256 -0.0758 -0.3806
 1931TIP3   OH227207   6.184   1.026  11.591  0.6452  0.1737 -0.3764
 1931TIP3    H127208   6.273   0.993  11.603  0.3379 -0.3011  0.7014
 1931TIP3    H227209   6.130   0.970  11.646 -0.2817  0.6736 -0.7603
 1932TIP3   OH227210   2.960   5.361  15.985  0.0810  0.0068 -0.5170
 1932TIP3    H127211   2.865   5.356  15.973  0.0842  0.3903 -0.6947
 1932TIP3    H227212   2.973   5.346  16.079  0.0355 -2.7848 -0.8528
 1933TIP3   OH227213   4.495   4.777   0.747  0.4992 -0.5102  0.3738
 1933TIP3    H127214   4.456   4.842   0.688  1.2013  0.0469  0.5152
 1933TIP3    H227215   4.484   4.694   0.700  3.1282  0.1700 -1.7099
 1934TIP3   OH227216   6.681   4.274  14.264 -0.0665  0.0125 -0.5445
 1934TIP3    H127217   6.702   4.214  14.192  1.3518  1.0163 -1.0133
 1934TIP3    H227218   6.764   4.285  14.310 -0.5135  0.9496  0.0573
 1935TIP3   OH227219   3.522   6.657  12.435 -0.6545  0.5313 -0.1646
 1935TIP3    H127220   3.579   6.684  12.362 -1.1816 -0.3222 -0.9179
 1935TIP3    H227221   3.475   6.581  12.401 -0.1048 -0.5903  1.4432
 1936TIP3   OH227222   6.751   3.559   1.512  0.1776  0.1417  0.2662
 1936TIP3    H127223   6.779   3.538   1.601 -0.3875 -0.7912  0.2419
 1936TIP3    H227224   6.678   3.620   1.524  0.3080  0.2656  0.4315
 1937TIP3   OH227225   2.833   0.482   1.762 -0.4104  0.2933 -0.2783
 1937TIP3    H127226   2.742   0.452   1.762  0.2203 -1.8731  1.0745
 1937TIP3    H227227   2.829   0.569   1.801 -2.0091  0.7202 -1.3014
 1938TIP3   OH227228   4.397   2.453  16.055 -0.0349  0.1876 -0.5425
 1938TIP3    H127229   4.398   2.376  15.997  3.1313 -0.6194  0.3705
 1938TIP3    H227230   4.432   2.524  16.001 -1.1043  0.5345 -0.8040
 1939TIP3   OH227231   6.696   4.851  16.033  0.2417 -0.1151 -0.0723
 1939TIP3    H127232   6.712   4.770  16.083  1.1659  0.7530  1.1102
 1939TIP3    H227233   6.782   4.875  15.998 -0.2353 -0.2224 -1.3639
 1940TIP3   OH227234   2.843   6.505  16.342 -0.3468 -0.5583  0.0736
 1940TIP3    H127235   2.867   6.412  16.350 -0.6687 -0.6729 -0.2681
 1940TIP3    H227236   2.920   6.546  16.302 -1.0446 -1.1082 -1.9741
 1941TIP3   OH227237   4.326   3.029  15.553 -0.2370 -0.3036  0.0015
 1941TIP3    H127238   4.316   3.060  15.463  0.8975 -1.0943 -0.4235
 1941TIP3    H227239   4.288   2.941  15.553  0.4033 -0.5853  0.1020
 1942TIP3   OH227240   0.244   1.514  11.854 -0.3093 -0.7352 -0.1596
 1942TIP3    H127241   0.183   1.478  11.789 -0.5876  1.0261 -0.9459
 1942TIP3    H227242   0.254   1.606  11.829  3.3813 -1.1109 -0.6171
 1943TIP3   OH227243   6.236   0.314  15.817  0.0386  0.1646  0.2159
 1943TIP3    H127244   6.212   0.375  15.886 -1.1378  0.7715 -0.6815
 1943TIP3    H227245   6.331   0.312  15.817  0.0614  0.0706  1.8972
 1944TIP3   OH227246   5.610   5.494  15.029 -0.3530  0.4772 -0.2108
 1944TIP3    H127247   5.549   5.491  14.956 -0.4008 -0.9371 -0.1569
 1944TIP3    H227248   5.685   5.442  14.999 -0.0299  0.5447  0.4533
 1945TIP3   OH227249   0.895   1.629   1.592 -0.5972 -0.3337  0.1898
 1945TIP3    H127250   0.873   1.707   1.643 -1.3543  0.7926 -1.7667
 1945TIP3    H227251   0.832   1.563   1.622 -0.3718 -0.0299  1.3967
 1946TIP3   OH227252   6.200   4.067  14.911 -0.4914 -0.1156  0.0793
 1946TIP3    H127253   6.250   3.993  14.946  0.0033  0.2297  0.1165
 1946TIP3    H227254   6.109   4.044  14.927 -0.3681 -0.9686 -0.4220
 1947TIP3   OH227255   5.911   0.639   1.472  0.0138 -0.3631 -0.5519
 1947TIP3    H127256   6.005   0.647   1.490 -0.1512  0.9233 -0.1152
 1947TIP3    H227257   5.903   0.557   1.424  1.2769 -0.8306 -0.0224
 1948TIP3   OH227258   2.786   4.213   0.337  0.2619 -0.1785  0.2654
 1948TIP3    H127259   2.807   4.245   0.425 -1.0112 -0.0657  0.5522
 1948TIP3    H227260   2.691   4.223   0.330  0.1607 -1.5042 -0.6062
 1949TIP3   OH227261   4.480   0.609   1.368  0.4581 -0.2132 -0.4633
 1949TIP3    H127262   4.459   0.699   1.392 -0.7336 -0.4983 -0.3694
 1949TIP3    H227263   4.574   0.602   1.381  0.5440  0.9766 -0.3334
 1950TIP3   OH227264   2.378   2.632  10.912  0.4796  0.4679  0.2175
 1950TIP3    H127265   2.283   2.642  10.917 -0.0005 -2.6128 -0.4441
 1950TIP3    H227266   2.397   2.639  10.818  0.0635 -3.6084 -0.3438
 1951TIP3   OH227267   0.575   5.752   1.695 -0.3236  0.1136  0.0700
 1951TIP3    H127268   0.494   5.753   1.747 -0.3913  2.2502  0.0162
 1951TIP3    H227269   0.641   5.715   1.753 -1.1895 -1.1562  0.2977
 1952TIP3   OH227270   0.634   5.216  12.625  0.1299  0.1444 -0.0988
 1952TIP3    H127271   0.588   5.289  12.665 -0.2809  0.8210 -1.7107
 1952TIP3    H227272   0.720   5.216  12.667  0.2701  1.8092 -0.2953
 1953TIP3   OH227273   4.526   2.612  16.622 -0.3525 -0.5080 -0.1667
 1953TIP3    H127274   4.519   2.576  16.533  1.3415 -1.6111  0.1121
 1953TIP3    H227275   4.557   2.539  16.675 -0.8181  0.2883  1.2581
 1954TIP3   OH227276   1.719   3.031  15.989 -0.0718 -0.0544 -0.3524
 1954TIP3    H127277   1.674   3.114  15.979 -0.4008 -0.3464 -1.4924
 1954TIP3    H227278   1.721   2.994  15.900  0.9077 -0.8221 -0.0369
 1955TIP3   OH227279   1.385   3.930   1.511  0.6231 -0.3994  0.7316
 1955TIP3    H127280   1.407   3.881   1.591  0.5837 -1.4077  0.1341
 1955TIP3    H227281   1.393   3.866   1.440 -0.0322  0.3077 -0.0020
 1956TIP3   OH227282   5.032   2.273  15.734 -0.4091 -0.0484 -0.2569
 1956TIP3    H127283   5.095   2.326  15.686  2.1208 -3.2509 -0.9042
 1956TIP3    H227284   4.990   2.333  15.794  2.5849  2.5714 -0.5093
 1957TIP3   OH227285   1.888   1.639   4.705 -0.0043 -0.7232 -0.8404
 1957TIP3    H127286   1.853   1.628   4.794 -1.3418  0.7815 -1.1384
 1957TIP3    H227287   1.889   1.550   4.669 -1.7145 -1.0835 -0.1197
 1958TIP3   OH227288   6.265   5.573  13.136 -0.0543  0.1444 -0.0779
 1958TIP3    H127289   6.238   5.486  13.166  0.0518  0.2265  0.2728
 1958TIP3    H227290   6.345   5.591  13.186  0.3595  0.1168 -0.7210
 1959TIP3   OH227291   2.637   1.037   2.300 -0.4392  0.0134  0.3019
 1959TIP3    H127292   2.567   1.076   2.352 -0.2925 -0.5721  0.9616
 1959TIP3    H227293   2.607   0.948   2.282 -0.3884  0.1408 -0.4332
 1960TIP3   OH227294   6.241   2.734  16.872 -0.0549 -0.2612  0.2205
 1960TIP3    H127295   6.303   2.807  16.871  0.3165 -0.5083 -2.5209
 1960TIP3    H227296   6.155   2.775  16.866 -0.2506  0.0546  3.4186
 1961TIP3   OH227297   0.319   0.045  15.045 -0.7968 -0.0176 -0.4481
 1961TIP3    H127298   0.287   0.085  15.126 -0.4987  0.8162 -0.7342
 1961TIP3    H227299   0.412   0.029  15.061 -0.4425  1.3190 -1.0634
 1962TIP3   OH227300   2.777   3.762  13.316  0.5273  0.4030 -0.6636
 1962TIP3    H127301   2.709   3.696  13.306  0.4491  0.2592  0.6243
 1962TIP3    H227302   2.856   3.722  13.281  1.0314 -1.3386  2.1461
 1963TIP3   OH227303   6.354   0.733  13.212  0.4594 -0.1704 -0.2593
 1963TIP3    H127304   6.390   0.690  13.290  0.2980 -0.4456 -0.3349
 1963TIP3    H227305   6.419   0.799  13.189  1.0183 -0.8064 -0.5201
 1964TIP3   OH227306   1.731   3.841  16.428  0.1227  0.5961 -0.6413
 1964TIP3    H127307   1.743   3.878  16.341 -1.4518  0.3032 -1.0114
 1964TIP3    H227308   1.673   3.766  16.415  2.0099 -1.1295  0.3059
 1965TIP3   OH227309   4.141   2.205  11.458  0.3627  0.2272  0.1264
 1965TIP3    H127310   4.052   2.231  11.436  0.3196 -0.9257 -1.1836
 1965TIP3    H227311   4.195   2.242  11.388  0.7954  0.1148  0.3951
 1966TIP3   OH227312   0.918   5.613   4.436 -0.1444  0.4222 -0.6344
 1966TIP3    H127313   1.000   5.635   4.392 -0.2996 -0.4170 -1.3572
 1966TIP3    H227314   0.903   5.686   4.496  0.6054  1.0833 -1.2306
 1967TIP3   OH227315   4.221   3.990  12.521  0.3662  0.4701  0.2095
 1967TIP3    H127316   4.205   4.045  12.598  1.5533 -0.1487  0.9229
 1967TIP3    H227317   4.135   3.952  12.501 -0.0445  0.9551  0.9729
 1968TIP3   OH227318   5.123   5.993  11.364 -0.3595  0.3287  0.3951
 1968TIP3    H127319   5.146   5.923  11.303  0.6101 -0.4305  1.5706
 1968TIP3    H227320   5.202   6.006  11.416 -1.0262  1.2285  1.2217
 1969TIP3   OH227321   3.498   4.960  12.759 -0.5602 -0.7598  0.0801
 1969TIP3    H127322   3.578   4.907  12.751  0.7847  1.2615 -0.4710
 1969TIP3    H227323   3.510   5.009  12.840 -1.8332 -1.2939  0.6253
 1970TIP3   OH227324   0.034   2.677  14.049 -0.0213  0.1377 -0.1015
 1970TIP3    H127325   0.038   2.595  13.999 -1.8936 -0.4318  0.6125
 1970TIP3    H227326   0.087   2.659  14.127  2.4183  0.8301 -1.5123
 1971TIP3   OH227327   2.042   4.800  12.735 -0.1404  0.6455 -0.0547
 1971TIP3    H127328   2.038   4.721  12.789  1.0268  0.6393  0.0568
 1971TIP3    H227329   2.087   4.773  12.655 -0.8502  0.9203 -0.5597
 1972TIP3   OH227330   2.867   1.969   6.096 -0.0341 -0.1740 -0.4572
 1972TIP3    H127331   2.777   1.942   6.115 -0.8547  2.5219 -0.1056
 1972TIP3    H227332   2.911   1.965   6.181  0.0452 -0.9268 -0.5236
 1973TIP3   OH227333   2.815   3.535  16.508 -0.1473  0.1531 -0.0595
 1973TIP3    H127334   2.852   3.486  16.435 -1.0287 -1.6710  0.6364
 1973TIP3    H227335   2.890   3.575  16.551  0.3285  1.8265 -2.2755
 1974TIP3   OH227336   4.209   4.394  13.670 -0.2062 -0.0419 -0.5083
 1974TIP3    H127337   4.173   4.449  13.600  0.5241 -0.9127 -1.6021
 1974TIP3    H227338   4.235   4.313  13.626  3.3554  0.6105  0.1306
 1975TIP3   OH227339   1.262   5.314   2.506 -0.0789 -0.3865  0.7519
 1975TIP3    H127340   1.240   5.240   2.563  0.0142 -1.8296 -1.0074
 1975TIP3    H227341   1.198   5.310   2.435  1.0246  0.1234 -0.3076
 1976TIP3   OH227342   0.901   4.515   1.880 -0.3956 -0.1334  0.1393
 1976TIP3    H127343   0.909   4.610   1.889  0.6866 -0.0853 -1.0703
 1976TIP3    H227344   0.922   4.498   1.788 -2.4741 -1.3626 -0.1758
 1977TIP3   OH227345   0.979   2.207  16.498 -0.3436 -0.3407 -0.0672
 1977TIP3    H127346   1.055   2.149  16.498 -2.0710 -2.7077  0.2395
 1977TIP3    H227347   0.947   2.205  16.588 -1.4424 -0.3075 -0.4400
 1978TIP3   OH227348   1.870   2.724   5.623  0.1035  0.2162 -0.0944
 1978TIP3    H127349   1.899   2.634   5.609 -0.5537  0.0389 -0.3868
 1978TIP3    H227350   1.950   2.777   5.618  0.3012 -0.1678 -1.6893
 1979TIP3   OH227351   2.265   1.783  15.321 -0.0578  0.3646 -0.0788
 1979TIP3    H127352   2.356   1.763  15.342 -0.9269 -1.7479  2.1830
 1979TIP3    H227353   2.245   1.862  15.372 -0.1563 -0.6639  1.5435
 1980TIP3   OH227354   2.718   5.366   1.967  0.6979 -0.2743  0.5772
 1980TIP3    H127355   2.811   5.354   1.984  0.6581 -0.7100  0.4922
 1980TIP3    H227356   2.701   5.316   1.887 -0.0810 -2.2139  1.8883
 1981TIP3   OH227357   3.667   1.666   5.647  0.0564 -0.3701 -0.2109
 1981TIP3    H127358   3.655   1.680   5.741  0.8747 -2.6157  0.2760
 1981TIP3    H227359   3.761   1.650   5.637  0.3729  1.9973 -1.7814
 1982TIP3   OH227360   0.443   5.945  16.880  0.3215  0.3800  0.3781
 1982TIP3    H127361   0.513   5.896  16.836 -0.7892 -0.8457 -0.0794
 1982TIP3    H227362   0.471   5.948  16.972  0.5699 -0.8800  0.3663
 1983TIP3   OH227363   5.347   5.580  11.046  0.6884  0.2927 -0.0187
 1983TIP3    H127364   5.377   5.514  11.109  1.0944 -0.0288 -0.5436
 1983TIP3    H227365   5.296   5.530  10.982 -0.8201  0.7926  0.7399
 1984TIP3   OH227366   3.317   1.750  12.495  0.2203 -0.0566  0.2650
 1984TIP3    H127367   3.405   1.783  12.474  0.1584  0.0198  0.1266
 1984TIP3    H227368   3.263   1.829  12.501 -0.1560 -0.1941 -1.0818
 1985TIP3   OH227369   3.256   4.924  11.829  0.3083 -0.4977 -0.3348
 1985TIP3    H127370   3.203   4.970  11.764 -0.1578 -0.7717 -0.1530
 1985TIP3    H227371   3.287   4.846  11.783  2.3410  0.7094 -1.1232
 1986TIP3   OH227372   3.210   0.011   2.321  0.3228 -0.1646  0.5355
 1986TIP3    H127373   3.286   0.035   2.374  0.2305 -0.0908  0.6340
 1986TIP3    H227374   3.140   0.069   2.352 -0.1976 -1.2901  1.5191
 1987TIP3   OH227375   3.399   1.926   6.812 -0.5656  0.2500 -0.1200
 1987TIP3    H127376   3.458   1.992   6.849 -1.3511  1.0661 -0.3006
 1987TIP3    H227377   3.454   1.848   6.801  0.5490  1.0725 -0.5274
 1988TIP3   OH227378   2.645   1.045  16.902  0.6589  0.3072  0.0615
 1988TIP3    H127379   2.707   1.095  16.955 -1.0677  1.2398  1.3128
 1988TIP3    H227380   2.577   1.108  16.878  0.8525 -0.3257 -2.5016
 1989TIP3   OH227381   3.423   2.946  13.301 -0.0120 -0.0850  0.0546
 1989TIP3    H127382   3.483   2.877  13.272 -0.0453  0.1152 -0.5147
 1989TIP3    H227383   3.359   2.901  13.356 -1.1112 -0.8682 -1.7592
 1990TIP3   OH227384   3.653   3.079  13.844  0.1005  0.2378 -0.3690
 1990TIP3    H127385   3.615   3.163  13.821  0.6221  0.4987 -0.2972
 1990TIP3    H227386   3.736   3.076  13.797 -1.2159 -1.5503 -2.8435
 1991TIP3   OH227387   2.825   5.679   0.284 -0.3784  0.0264 -0.1207
 1991TIP3    H127388   2.765   5.639   0.347  0.4333 -0.3801  0.4119
 1991TIP3    H227389   2.814   5.773   0.297 -1.6262 -0.0152 -0.7323
 1992TIP3   OH227390   4.670   3.615  14.515 -0.2419 -0.1646 -0.1291
 1992TIP3    H127391   4.732   3.688  14.518 -0.3542 -0.0712 -0.0543
 1992TIP3    H227392   4.592   3.648  14.561 -0.4993 -0.1363 -0.5767
 1993TIP3   OH227393   1.910   6.659   3.904  0.1646  0.2097 -0.3300
 1993TIP3    H127394   1.825   6.642   3.946 -0.5919 -1.4309 -2.3393
 1993TIP3    H227395   1.920   6.754   3.907 -1.1249  0.3487  1.0692
 1994TIP3   OH227396   6.621   6.705   3.814  0.4266  0.4436 -0.3286
 1994TIP3    H127397   6.526   6.694   3.817  0.5566 -0.6331  1.5177
 1994TIP3    H227398   6.649   6.646   3.744 -0.1721 -0.2517  0.0015
 1995TIP3   OH227399   4.787   0.237  10.312 -0.1243 -0.6849 -0.2634
 1995TIP3    H127400   4.782   0.326  10.278  0.1752 -0.6504 -0.2282
 1995TIP3    H227401   4.794   0.248  10.407  1.3279 -0.6701 -0.3390
 1996TIP3   OH227402   0.543   2.669  11.726  0.6493  0.4498 -0.7041
 1996TIP3    H127403   0.488   2.591  11.719 -0.7901  1.2509  0.9874
 1996TIP3    H227404   0.482   2.740  11.747  2.1999  1.5727  0.2119
 1997TIP3   OH227405   5.566   6.009   3.513  0.1458  0.1395 -0.1438
 1997TIP3    H127406   5.598   5.955   3.441  0.5684 -0.2780  0.3445
 1997TIP3    H227407   5.505   5.952   3.560 -0.1960  0.4374 -0.2193
 1998TIP3   OH227408   6.215   0.928  16.344  0.1929 -0.5377  0.3395
 1998TIP3    H127409   6.206   0.855  16.405  2.8971 -1.7053 -0.4956
 1998TIP3    H227410   6.308   0.949  16.345 -0.4525  2.8501  0.3832
 1999TIP3   OH227411   5.579   5.905   6.210 -0.1874  0.0754  0.2077
 1999TIP3    H127412   5.649   5.971   6.220 -0.0448  0.4590 -2.5520
 1999TIP3    H227413   5.624   5.821   6.218  0.1809  0.3066  0.6425
 2000TIP3   OH227414   0.248   6.727   5.001 -0.1630 -0.5013  0.3055
 2000TIP3    H127415   0.257   6.646   4.951  0.4109  0.1563 -0.6816
 2000TIP3    H227416   0.291   6.793   4.948  0.8109  0.1656  1.8499
 2001TIP3   OH227417   6.728   3.771  12.515 -0.4150 -0.2388  0.5550
 2001TIP3    H127418   6.659   3.767  12.581 -1.5706  2.5824 -0.2982
 2001TIP3    H227419   6.681   3.790  12.433  1.1678 -1.2804 -0.6581
 2002TIP3   OH227420   4.877   4.611   1.491  0.0850 -0.2780  0.3788
 2002TIP3    H127421   4.800   4.664   1.471 -0.4929 -0.8423  1.0290
 2002TIP3    H227422   4.854   4.524   1.458  0.8127 -0.2549 -0.2172
 2003TIP3   OH227423   2.715   6.120  11.037  0.1694 -0.2628  0.2178
 2003TIP3    H127424   2.723   6.031  11.002  0.7491 -0.9303  1.9565
 2003TIP3    H227425   2.653   6.163  10.978 -1.4953 -2.3456  0.3324
 2004TIP3   OH227426   3.411   6.451  14.374  0.5202  0.1611  0.1400
 2004TIP3    H127427   3.373   6.474  14.289  0.5349  0.7591  0.2917
 2004TIP3    H227428   3.416   6.533  14.421  1.8169  0.0768  0.1993
 2005TIP3   OH227429   3.197   5.725  16.234 -0.7537  0.4594  0.2287
 2005TIP3    H127430   3.281   5.728  16.279 -0.6886  1.8690  0.0818
 2005TIP3    H227431   3.135   5.761  16.296 -1.0443  0.4550 -0.0564
 2006TIP3   OH227432   5.786   2.018   0.110 -0.2114 -0.1278  0.2144
 2006TIP3    H127433   5.691   2.022   0.113 -0.2418 -1.1503  1.7839
 2006TIP3    H227434   5.805   1.960   0.036 -0.7921  0.1660 -0.1723
 2007TIP3   OH227435   1.562   3.472  14.733  0.0480  0.3251  0.4255
 2007TIP3    H127436   1.482   3.495  14.780  1.6640  1.1638  2.9979
 2007TIP3    H227437   1.626   3.537  14.763  2.2341 -1.5844  0.1225
 2008TIP3   OH227438   2.199   6.639   3.928 -0.1505  0.1076 -0.0144
 2008TIP3    H127439   2.113   6.671   3.955  0.9248  0.6396  3.1656
 2008TIP3    H227440   2.184   6.549   3.901 -1.5784 -0.1801  1.5997
 2009TIP3   OH227441   5.343   4.251   1.511 -0.6101  0.0281 -0.0316
 2009TIP3    H127442   5.256   4.275   1.545 -1.0254  2.4538 -2.4635
 2009TIP3    H227443   5.327   4.180   1.450 -0.4846 -1.2279  1.3517
 2010TIP3   OH227444   4.829   6.215  11.882  0.0681  0.4499 -0.2569
 2010TIP3    H127445   4.765   6.283  11.862 -0.5796  0.2498  1.0435
 2010TIP3    H227446   4.906   6.263  11.913  0.0923  0.6388 -0.6072
 2011TIP3   OH227447   3.681   2.274  11.318  0.0342  0.3260  0.1689
 2011TIP3    H127448   3.671   2.180  11.334  0.4177  0.5169  1.7752
 2011TIP3    H227449   3.765   2.296  11.359  1.0782  0.9850 -2.1675
 2012TIP3   OH227450   5.418   4.057   1.807 -0.6410  0.0162  0.5501
 2012TIP3    H127451   5.409   4.077   1.900 -2.0652 -1.3324  0.7392
 2012TIP3    H227452   5.335   4.085   1.769 -0.1806  0.2847 -0.2799
 2013TIP3   OH227453   3.224   0.785   0.824  0.2763  0.2896  0.3738
 2013TIP3    H127454   3.242   0.879   0.829  2.1320  0.1180 -1.5280
 2013TIP3    H227455   3.164   0.776   0.750  0.8788 -0.0689 -0.0848
 2014TIP3   OH227456   5.084   1.378   4.532 -0.1411  0.0693 -0.2626
 2014TIP3    H127457   5.075   1.287   4.559 -0.9316 -0.0817 -0.9998
 2014TIP3    H227458   5.010   1.422   4.572  1.1791  0.7741  1.5482
 2015TIP3   OH227459   6.297   6.419  14.263 -0.3707  0.1710  0.5333
 2015TIP3    H127460   6.268   6.424  14.354  1.8643  1.7599  1.2291
 2015TIP3    H227461   6.278   6.328  14.238  0.3260 -0.7786  3.0805
 2016TIP3   OH227462   4.114   2.284  13.490 -0.1341 -0.3531  0.0907
 2016TIP3    H127463   4.074   2.205  13.453 -0.2620 -0.7620  1.0780
 2016TIP3    H227464   4.207   2.276  13.468  0.0032 -1.2123  0.8961
 2017TIP3   OH227465   1.078   6.158  12.374  0.4293  0.0747 -0.0791
 2017TIP3    H127466   1.164   6.118  12.386  0.8782  1.0512  0.0730
 2017TIP3    H227467   1.089   6.247  12.407 -0.3424  0.5323 -1.0190
 2018TIP3   OH227468   5.879   4.446  12.791  0.0292 -0.4161 -0.4026
 2018TIP3    H127469   5.891   4.540  12.808 -1.7194 -0.6419  2.8919
 2018TIP3    H227470   5.960   4.405  12.820  0.4213 -0.0329 -0.9364
 2019TIP3   OH227471   3.406   1.613  13.725 -0.5543 -0.6997 -0.5538
 2019TIP3    H127472   3.402   1.565  13.643 -0.1466 -0.4354 -0.7310
 2019TIP3    H227473   3.382   1.703  13.702  1.7971 -0.0783 -0.8443
 2020TIP3   OH227474   0.186   0.444   2.673 -0.2427 -0.4398 -0.0888
 2020TIP3    H127475   0.224   0.488   2.596 -1.5731 -1.8477 -1.6116
 2020TIP3    H227476   0.204   0.351   2.659 -0.9698 -0.7693  1.0536
 2021TIP3   OH227477   2.489   4.340   2.385 -0.6795  0.4222  0.1986
 2021TIP3    H127478   2.450   4.287   2.455 -0.5073  2.1558  1.7028
 2021TIP3    H227479   2.577   4.306   2.375 -0.5544  0.4307  1.1770
 2022TIP3   OH227480   0.390   1.449   5.738  0.0795 -0.0093 -0.7259
 2022TIP3    H127481   0.386   1.355   5.722 -0.2595  0.1834 -1.8356
 2022TIP3    H227482   0.483   1.471   5.726  0.3169 -0.3434  0.4296
 2023TIP3   OH227483   4.249   4.245   5.837 -0.0652  0.3726  0.0592
 2023TIP3    H127484   4.236   4.318   5.897 -0.6522  0.7337 -0.4925
 2023TIP3    H227485   4.161   4.210   5.823 -0.3367  1.8738 -2.5490
 2024TIP3   OH227486   6.184   0.746  10.736  0.4874  0.1273  0.1808
 2024TIP3    H127487   6.098   0.788  10.737  0.5211  0.1860  0.5017
 2024TIP3    H227488   6.165   0.653  10.724  0.3885  0.1648  0.0434
 2025TIP3   OH227489   3.265   6.175   5.901  0.1776  0.0177 -0.4484
 2025TIP3    H127490   3.323   6.174   5.977 -1.0331  0.4536  0.5335
 2025TIP3    H227491   3.177   6.181   5.939 -0.3924  1.9366 -1.9146
 2026TIP3   OH227492   0.627   3.976  15.357 -0.0199 -0.3320 -0.2563
 2026TIP3    H127493   0.581   3.906  15.311 -2.1962  0.6903  0.1918
 2026TIP3    H227494   0.621   4.052  15.298  0.8704 -0.1003 -0.0593
 2027TIP3   OH227495   5.417   6.258  12.238  0.0158 -0.1679  0.3210
 2027TIP3    H127496   5.409   6.167  12.209  2.6893 -0.5972  0.6529
 2027TIP3    H227497   5.413   6.309  12.157 -0.8463 -0.6238  0.0670
 2028TIP3   OH227498   6.024   3.492  16.596  0.4718 -0.0080  0.1944
 2028TIP3    H127499   6.106   3.454  16.562 -0.0976 -0.2667 -0.9431
 2028TIP3    H227500   6.036   3.586  16.585  0.1906 -0.0989 -1.0248
 2029TIP3   OH227501   5.904   2.096  10.980  0.0104 -0.0090 -0.4909
 2029TIP3    H127502   5.827   2.062  10.935 -0.3506  0.3964 -0.1848
 2029TIP3    H227503   5.968   2.113  10.910 -0.2617 -0.1170 -0.7666
 2030TIP3   OH227504   6.410   6.520  13.348  0.1633 -0.0601 -0.0014
 2030TIP3    H127505   6.389   6.565  13.266 -0.1591  0.8898  0.5774
 2030TIP3    H227506   6.372   6.577  13.416 -0.4069 -1.3109  0.7574
 2031TIP3   OH227507   1.147   3.727  15.327 -0.0109 -0.0047 -0.2772
 2031TIP3    H127508   1.183   3.748  15.413  0.7742  0.4569 -0.6984
 2031TIP3    H227509   1.067   3.778  15.321  1.1698  1.9053 -0.7444
 2032TIP3   OH227510   5.839   2.328   4.686 -0.4313  0.3653  0.3548
 2032TIP3    H127511   5.874   2.307   4.772 -0.8753 -0.7265  0.2885
 2032TIP3    H227512   5.850   2.247   4.635 -2.2689  0.2342  0.0953
 2033TIP3   OH227513   2.818   5.883  12.478  0.2681 -0.4727  0.2802
 2033TIP3    H127514   2.822   5.789  12.463 -0.3210 -0.5611  0.6017
 2033TIP3    H227515   2.747   5.894  12.543 -0.5112  0.2869 -0.6567
 2034TIP3   OH227516   4.617   0.201  13.088  0.7010 -0.3842 -1.1758
 2034TIP3    H127517   4.601   0.189  13.182 -0.3888 -1.0811 -1.4247
 2034TIP3    H227518   4.669   0.125  13.063 -0.3985 -1.0779 -1.4323
 2035TIP3   OH227519   1.650   0.421  11.879 -0.7085 -0.1461  0.0522
 2035TIP3    H127520   1.628   0.402  11.788  0.8399  0.5025 -0.4929
 2035TIP3    H227521   1.729   0.370  11.896 -0.7166  0.0990  0.8787
 2036TIP3   OH227522   1.657   5.108  15.300  0.1187  0.6578  0.4213
 2036TIP3    H127523   1.571   5.068  15.308 -0.2509  1.4646  0.5658
 2036TIP3    H227524   1.719   5.038  15.320 -0.4499 -0.3165 -1.1061
 2037TIP3   OH227525   2.020   2.543   5.985  0.7609  0.1501  0.4004
 2037TIP3    H127526   2.057   2.630   5.972  1.2487 -0.0463  0.4349
 2037TIP3    H227527   2.050   2.493   5.909 -1.1600  0.5226 -0.6647
 2038TIP3   OH227528   0.698   3.444  13.841 -0.9887  0.4928  0.1260
 2038TIP3    H127529   0.698   3.391  13.762 -2.1094  0.5596  0.0621
 2038TIP3    H227530   0.697   3.534  13.810  4.2384  0.8894  0.1437
 2039TIP3   OH227531   0.413   5.854  10.776  0.3677 -0.6688 -0.1201
 2039TIP3    H127532   0.414   5.859  10.871  1.4138  0.8414 -0.1843
 2039TIP3    H227533   0.490   5.801  10.754  2.7425  2.5497 -0.2098
 2040TIP3   OH227534   3.844   3.299   4.453  0.6340  1.4970 -0.3865
 2040TIP3    H127535   3.857   3.216   4.408  2.1525  2.3489 -1.6252
 2040TIP3    H227536   3.880   3.285   4.541  1.2074  0.9623 -0.7047
 2041TIP3   OH227537   1.951   6.156  15.077  0.0811  0.3196 -0.0329
 2041TIP3    H127538   1.938   6.240  15.032 -0.3969  1.1216  1.5444
 2041TIP3    H227539   1.925   6.173  15.167 -0.9219 -1.7855  0.1295
 2042TIP3   OH227540   6.258   1.596  10.297  0.0975 -0.0977 -0.3055
 2042TIP3    H127541   6.224   1.506  10.297  2.0921 -0.8877 -0.3263
 2042TIP3    H227542   6.207   1.640  10.228 -1.4921 -0.9343  0.2744
 2043TIP3   OH227543   4.870   4.892  11.172 -0.7865  0.5283  0.1921
 2043TIP3    H127544   4.868   4.978  11.130 -1.8351  0.1405 -0.6049
 2043TIP3    H227545   4.871   4.911  11.266 -2.1128  1.4229  0.0508
 2044TIP3   OH227546   6.171   0.664   1.937 -0.1997  0.0822  0.3392
 2044TIP3    H127547   6.090   0.652   1.888  0.8974 -0.3956 -1.4580
 2044TIP3    H227548   6.234   0.695   1.872  1.4181 -0.9420  1.3578
 2045TIP3   OH227549   5.386   2.582   1.683  0.5839  0.4215  0.1859
 2045TIP3    H127550   5.394   2.635   1.605  1.5729 -0.4581 -0.3322
 2045TIP3    H227551   5.443   2.624   1.747  0.4573  0.6415  0.1541
 2046TIP3   OH227552   2.644   1.219  12.794  0.1735  0.0345  0.0282
 2046TIP3    H127553   2.591   1.250  12.721  0.8328 -0.7149 -0.7894
 2046TIP3    H227554   2.702   1.154  12.756  0.1047 -0.8362  1.3390
 2047TIP3   OH227555   1.590   1.634   1.752  0.1333  0.2440 -0.3158
 2047TIP3    H127556   1.674   1.663   1.787 -0.5483 -1.1643  2.7767
 2047TIP3    H227557   1.530   1.706   1.772  0.0726  0.1130 -0.0174
 2048TIP3   OH227558   2.098   1.672   0.013  0.0597 -0.0093 -0.5512
 2048TIP3    H127559   2.039   1.596   0.024  2.0772 -1.7208 -0.9106
 2048TIP3    H227560   2.169   1.655   0.075  1.5253  0.5751 -2.0180
 2049TIP3   OH227561   2.327   0.738   1.212 -0.1494  0.2285 -0.3398
 2049TIP3    H127562   2.243   0.736   1.165 -0.6614 -1.1281  0.5749
 2049TIP3    H227563   2.317   0.674   1.282  0.4932  2.3609  1.8411
 2050TIP3   OH227564   0.773   2.429   3.607  0.6897  0.1618  0.2738
 2050TIP3    H127565   0.826   2.416   3.528  0.2368  1.1355 -0.2037
 2050TIP3    H227566   0.838   2.435   3.678  1.1274 -0.2282 -0.0866
 2051TIP3   OH227567   5.130   1.459   1.147  0.3460 -0.1598  0.3873
 2051TIP3    H127568   5.214   1.439   1.189 -0.5535 -0.4187  2.1488
 2051TIP3    H227569   5.143   1.436   1.055  2.8366  1.7093  0.1771
 2052TIP3   OH227570   3.347   3.727  12.107  0.1675 -0.2198  0.0734
 2052TIP3    H127571   3.271   3.763  12.153  0.5811 -0.7277  1.1881
 2052TIP3    H227572   3.420   3.781  12.136  0.8641 -2.1135  2.0884
 2053TIP3   OH227573   4.900   5.588   5.137  0.4460 -0.1561  0.6515
 2053TIP3    H127574   4.905   5.495   5.163  0.7392 -0.3491 -0.0747
 2053TIP3    H227575   4.985   5.624   5.163  0.1369  0.0352  1.4028
 2054TIP3   OH227576   2.162   0.971   3.713  0.5279  0.5699  0.0443
 2054TIP3    H127577   2.192   0.883   3.689 -0.6642  0.8761 -2.8562
 2054TIP3    H227578   2.115   0.958   3.796  1.7185 -1.2217  0.5034
 2055TIP3   OH227579   4.139   2.361  13.761 -0.2630  0.2633  0.6466
 2055TIP3    H127580   4.117   2.327  13.674  0.8172 -0.0736  0.4898
 2055TIP3    H227581   4.078   2.433  13.775 -0.6582  0.1136 -0.2608
 2056TIP3   OH227582   3.641   1.428  15.557 -0.3470  0.1343 -0.6778
 2056TIP3    H127583   3.670   1.366  15.624 -0.0523 -0.3940 -1.2935
 2056TIP3    H227584   3.558   1.393  15.526  0.6034 -0.8718 -2.1967
 2057TIP3   OH227585   3.258   3.037   4.710 -0.1425  0.3215 -0.3087
 2057TIP3    H127586   3.199   2.992   4.649  0.7523 -1.9972  0.4399
 2057TIP3    H227587   3.253   2.986   4.791  1.7485  0.9484  0.2519
 2058TIP3   OH227588   2.850   3.854   0.021  0.3507 -0.1576 -0.3607
 2058TIP3    H127589   2.843   3.855   0.117  3.2570  2.2491 -0.0196
 2058TIP3    H227590   2.882   3.942  -0.001 -0.8348 -0.4172 -3.6517
 2059TIP3   OH227591   5.046   2.009  17.102  0.2558 -0.1783 -0.6839
 2059TIP3    H127592   4.971   2.003  17.042 -0.9391  1.7297  0.5120
 2059TIP3    H227593   5.112   2.058  17.053 -0.2484  0.3179 -0.8742
 2060TIP3   OH227594   4.267   2.516  12.128 -0.1821  0.0881 -0.9823
 2060TIP3    H127595   4.282   2.451  12.058 -0.5808 -0.0984 -0.8963
 2060TIP3    H227596   4.335   2.497  12.192 -0.2626 -0.2099 -0.9843
 2061TIP3   OH227597   2.077   4.398   5.434 -0.3405  0.6577  0.0456
 2061TIP3    H127598   1.983   4.408   5.422 -0.4465 -0.5287 -0.3254
 2061TIP3    H227599   2.097   4.314   5.391  0.8002  0.6705  0.5208
 2062TIP3   OH227600   1.429   6.168   5.201 -0.1920 -0.3581 -0.3303
 2062TIP3    H127601   1.415   6.093   5.143  0.4409 -1.0773  0.4134
 2062TIP3    H227602   1.451   6.129   5.286 -1.6011  0.6554  0.5524
 2063TIP3   OH227603   2.322   2.955  16.809 -0.2328 -0.2071  0.1148
 2063TIP3    H127604   2.251   2.984  16.865 -0.5683 -1.0131  0.1168
 2063TIP3    H227605   2.284   2.885  16.755  0.0907  0.5052 -1.0898
 2064TIP3   OH227606   1.705   0.239  13.000  0.1078 -0.1074  0.1172
 2064TIP3    H127607   1.785   0.276  12.963  0.5170  0.5211  1.5419
 2064TIP3    H227608   1.731   0.155  13.036  0.2896  0.3572  1.1082
 2065TIP3   OH227609   1.390   6.025   2.705  0.2213 -0.5228  0.1706
 2065TIP3    H127610   1.440   6.096   2.744 -1.4868  0.4877  0.6336
 2065TIP3    H227611   1.336   5.991   2.777  0.7875 -2.1177 -0.1085
 2066TIP3   OH227612   6.182   0.102  13.635 -0.2536  0.8691 -0.0089
 2066TIP3    H127613   6.143   0.074  13.718 -3.0370  0.5906 -1.3029
 2066TIP3    H227614   6.119   0.164  13.598  0.2537  0.0119 -2.5034
 2067TIP3   OH227615   1.483   5.483   0.777 -0.7613 -0.6991  0.0405
 2067TIP3    H127616   1.526   5.493   0.862 -1.0839  1.5910 -0.0070
 2067TIP3    H227617   1.396   5.522   0.790 -0.2906  1.0744 -1.6956
 2068TIP3   OH227618   4.007   0.098   4.275  0.6845  0.5070  0.1059
 2068TIP3    H127619   3.915   0.078   4.257  1.1893 -0.3950 -1.7058
 2068TIP3    H227620   4.005   0.184   4.318 -0.9227  1.0751 -1.0300
 2069TIP3   OH227621   3.373   0.112  14.582 -0.0840 -0.5539  0.3405
 2069TIP3    H127622   3.386   0.203  14.611 -1.2850 -0.0364 -0.6686
 2069TIP3    H227623   3.280   0.107  14.562 -0.0484 -2.0580  0.4970
 2070TIP3   OH227624   3.378   5.653   5.905  0.0652  0.0553 -0.4911
 2070TIP3    H127625   3.329   5.695   5.835 -1.5624 -0.2865  0.3911
 2070TIP3    H227626   3.397   5.724   5.967 -1.7526 -0.2627  0.4837
 2071TIP3   OH227627   5.823   4.161   3.671 -0.1797 -0.1350  0.2204
 2071TIP3    H127628   5.883   4.163   3.596  2.0875 -0.6044  1.9259
 2071TIP3    H227629   5.849   4.237   3.724 -1.2346 -0.2511  0.9251
 2072TIP3   OH227630   0.184   4.102  13.881  0.2855 -0.2425 -0.6316
 2072TIP3    H127631   0.214   4.093  13.791 -2.1502 -2.0544 -1.3841
 2072TIP3    H227632   0.138   4.186  13.882  0.2753 -0.2382 -1.1105
 2073TIP3   OH227633   4.486   1.735   4.143  0.5448 -0.1806 -0.0150
 2073TIP3    H127634   4.500   1.822   4.179  0.7851 -0.7436  1.3036
 2073TIP3    H227635   4.516   1.675   4.211 -3.1655 -1.4004  0.7898
 2074TIP3   OH227636   5.565   4.296  16.507 -0.3700  0.4901 -0.5714
 2074TIP3    H127637   5.659   4.283  16.517 -0.0995  1.7468 -1.2687
 2074TIP3    H227638   5.538   4.228  16.445  0.2097  0.5664 -0.9127
 2075TIP3   OH227639   0.907   1.972   0.308 -0.2106 -0.0197 -0.0894
 2075TIP3    H127640   0.910   1.880   0.284 -0.9852 -0.3283  0.8856
 2075TIP3    H227641   0.859   1.973   0.391 -2.6933  1.5098 -1.4055
 2076TIP3   OH227642   1.559   4.358   0.225  0.2456  0.1761 -0.2828
 2076TIP3    H127643   1.538   4.264   0.225  0.0167  0.1982  1.4375
 2076TIP3    H227644   1.517   4.392   0.304  1.6528  1.4396 -0.0428
 2077TIP3   OH227645   1.406   3.849  11.997  0.0878  0.4962 -0.0672
 2077TIP3    H127646   1.420   3.943  12.010 -2.8436  1.0561 -0.3237
 2077TIP3    H227647   1.436   3.809  12.079  2.2905  1.4867 -0.3251
 2078TIP3   OH227648   4.051   2.849  13.111  0.2790  0.3912  0.3371
 2078TIP3    H127649   4.034   2.804  13.028  2.3047  1.1761 -0.5476
 2078TIP3    H227650   3.984   2.815  13.170 -1.6575  0.3103 -1.7759
 2079TIP3   OH227651   3.900   4.421   5.929 -0.1210  0.6946 -0.3549
 2079TIP3    H127652   3.809   4.405   5.952 -0.5679 -0.1241 -2.4514
 2079TIP3    H227653   3.896   4.485   5.858  0.7876 -0.6215 -1.6503
 2080TIP3   OH227654   5.013   4.317  12.759  0.1970 -0.3479 -0.0251
 2080TIP3    H127655   4.973   4.307  12.672  0.1390  1.1906 -0.1913
 2080TIP3    H227656   5.012   4.411  12.776 -0.1964 -0.6515  1.8479
 2081TIP3   OH227657   0.955   3.169  13.346 -0.0633  0.4392 -0.2143
 2081TIP3    H127658   0.913   3.237  13.292 -0.9067  0.3105  0.2676
 2081TIP3    H227659   0.984   3.216  13.424 -1.5039  0.1125  0.5664
 2082TIP3   OH227660   5.212   0.606  13.257  0.0071 -0.4132 -0.3686
 2082TIP3    H127661   5.170   0.579  13.338  0.8476 -2.9607 -0.6917
 2082TIP3    H227662   5.169   0.554  13.189  1.4899 -0.7389 -1.1052
 2083TIP3   OH227663   0.320   0.994   0.534 -0.0672  0.5846  0.0411
 2083TIP3    H127664   0.321   0.967   0.442  1.1656  1.3588 -0.1959
 2083TIP3    H227665   0.411   0.984   0.562 -0.7986 -1.9870  1.9234
 2084TIP3   OH227666   1.342   5.948   4.040 -0.0304  0.8507  0.2769
 2084TIP3    H127667   1.333   5.909   4.127 -1.4641 -0.8220 -0.5529
 2084TIP3    H227668   1.254   5.982   4.021 -0.2190 -0.3480 -1.1772
 2085TIP3   OH227669   1.036   3.308  11.778 -0.0555 -0.3006  0.0426
 2085TIP3    H127670   1.053   3.388  11.727  0.7224 -0.6165 -0.2137
 2085TIP3    H227671   0.942   3.294  11.770 -0.2922  0.9059  0.5605
 2086TIP3   OH227672   2.572   4.515   3.074  0.0538  0.0255 -0.1029
 2086TIP3    H127673   2.532   4.601   3.092  0.0849  0.1495 -0.5943
 2086TIP3    H227674   2.523   4.454   3.129 -0.7687  0.1874 -0.6369
 2087TIP3   OH227675   3.536   0.814  11.227  0.6418  0.2710 -0.2375
 2087TIP3    H127676   3.562   0.873  11.297  0.6703 -0.1853  0.1415
 2087TIP3    H227677   3.455   0.774  11.258  1.6635 -1.4067  0.4342
 2088TIP3   OH227678   6.645   5.442   1.238  0.9139  0.7067  0.6574
 2088TIP3    H127679   6.567   5.466   1.189  0.5981 -1.8454 -0.2127
 2088TIP3    H227680   6.716   5.491   1.196  0.0284  1.8817  0.4864
 2089TIP3   OH227681   3.998   4.952   4.309  0.1199 -0.3104 -0.4456
 2089TIP3    H127682   3.912   4.953   4.351  0.9721  0.5357  1.3913
 2089TIP3    H227683   3.985   4.902   4.229 -2.1031 -0.0983 -0.2735
 2090TIP3   OH227684   5.806   6.432   2.438 -0.9031 -0.0866  0.0485
 2090TIP3    H127685   5.768   6.496   2.377 -0.9338  0.8507  1.0370
 2090TIP3    H227686   5.830   6.358   2.382  1.2396  1.6597 -1.5244
 2091TIP3   OH227687   5.599   6.639  12.801  0.1671  0.3458 -0.0157
 2091TIP3    H127688   5.672   6.681  12.756 -0.6213  1.0925 -0.6054
 2091TIP3    H227689   5.624   6.546  12.805  0.8561  0.4896 -0.7853
 2092TIP3   OH227690   1.112   5.575  14.317  0.1399 -0.6038  0.2553
 2092TIP3    H127691   1.093   5.485  14.344  0.6492 -0.7449  0.1555
 2092TIP3    H227692   1.141   5.619  14.397 -2.2297  0.1081  0.8185
 2093TIP3   OH227693   4.450   4.236  14.329  0.5045  0.5391  0.1504
 2093TIP3    H127694   4.500   4.158  14.305 -1.5076 -0.6197 -0.5434
 2093TIP3    H227695   4.489   4.307  14.278  1.4509 -0.3032 -0.3262
 2094TIP3   OH227696   1.786   6.228  11.979  0.7105  0.7935  0.1252
 2094TIP3    H127697   1.807   6.160  11.914 -0.7587  0.2055  0.2242
 2094TIP3    H227698   1.798   6.184  12.063  0.2829  0.8135  0.1980
 2095TIP3   OH227699   4.324   6.287   2.985 -0.1422 -0.0134  0.5255
 2095TIP3    H127700   4.396   6.348   3.001 -1.3870  2.1713 -1.4023
 2095TIP3    H227701   4.367   6.206   2.959  1.6838  1.1382 -0.3384
 2096TIP3   OH227702   0.523   5.463   3.582 -0.3084 -0.2381 -0.0216
 2096TIP3    H127703   0.434   5.470   3.549 -0.2003  0.1525 -0.2338
 2096TIP3    H227704   0.564   5.547   3.561  0.4350 -0.8055 -0.9122
 2097TIP3   OH227705   5.892   5.741   2.033  0.5036 -0.1841  0.1860
 2097TIP3    H127706   5.804   5.713   2.057  0.5325  0.5105  1.1736
 2097TIP3    H227707   5.882   5.834   2.012  0.8939 -0.2578 -0.3492
 2098TIP3   OH227708   2.509   1.834  15.548 -0.2751  0.2242  0.0812
 2098TIP3    H127709   2.502   1.900  15.478  0.7136 -1.9047 -2.1725
 2098TIP3    H227710   2.547   1.757  15.504 -1.4578 -1.8899  2.5594
 2099TIP3   OH227711   1.976   5.981   0.753  0.4418  0.0696 -0.6250
 2099TIP3    H127712   1.898   6.002   0.701 -3.1198 -3.1196  2.7250
 2099TIP3    H227713   1.982   6.052   0.817 -0.6774 -0.3231 -0.0548
 2100TIP3   OH227714   6.243   4.548   1.375  0.4933  0.5725 -0.0224
 2100TIP3    H127715   6.236   4.453   1.361  0.4817  0.7538 -1.3242
 2100TIP3    H227716   6.162   4.572   1.419 -0.2517  0.2250 -1.1709
 2101TIP3   OH227717   4.449   0.981   2.930 -0.2618 -0.3074  0.0927
 2101TIP3    H127718   4.394   1.058   2.913  0.5287  0.4266  0.7342
 2101TIP3    H227719   4.472   0.989   3.023 -0.4140 -1.4956  0.2478
 2102TIP3   OH227720   4.006   1.673   2.652 -0.2083 -0.5488 -0.1630
 2102TIP3    H127721   4.009   1.649   2.559  1.7913  2.8457 -1.1476
 2102TIP3    H227722   3.928   1.726   2.662  1.8541  2.9828 -1.2010
 2103TIP3   OH227723   0.711   3.493   0.490  0.5969  0.2045  0.0076
 2103TIP3    H127724   0.681   3.404   0.507  1.7423 -0.4383 -1.0644
 2103TIP3    H227725   0.768   3.515   0.564  0.5680 -0.0950  0.1172
 2104TIP3   OH227726   1.084   6.711  11.839 -0.6026 -0.4953  0.3479
 2104TIP3    H127727   1.178   6.714  11.825 -0.4714 -1.4094  0.9433
 2104TIP3    H227728   1.049   6.664  11.763 -0.5932 -0.1093  0.1019
 2105TIP3   OH227729   4.761   0.458   1.260 -0.3310  1.0554 -0.1576
 2105TIP3    H127730   4.769   0.546   1.223 -1.4513  1.1562 -0.1866
 2105TIP3    H227731   4.710   0.410   1.195 -1.9109  1.0969  1.0022
 2106TIP3   OH227732   0.613   2.979   0.317 -0.6968  0.0401 -0.1428
 2106TIP3    H127733   0.595   2.887   0.300  0.8623 -0.1164 -1.0345
 2106TIP3    H227734   0.708   2.984   0.327 -0.6186  1.7294 -1.3330
 2107TIP3   OH227735   5.096   1.384  16.698  0.0099 -0.1758 -0.3563
 2107TIP3    H127736   5.103   1.421  16.786 -0.6837 -1.3520  0.2184
 2107TIP3    H227737   5.164   1.318  16.694  2.2125  1.9911 -1.8859
 2108TIP3   OH227738   2.689   0.449  15.008  0.4716  0.0343  0.8217
 2108TIP3    H127739   2.780   0.478  15.015 -0.4468  3.3492  0.7530
 2108TIP3    H227740   2.688   0.392  14.931  2.1426  1.5779 -0.4196
 2109TIP3   OH227741   3.667   3.661   5.201 -0.1867 -0.2496 -0.3492
 2109TIP3    H127742   3.658   3.565   5.198  0.2219 -0.3037  0.0283
 2109TIP3    H227743   3.595   3.693   5.147 -1.0464 -0.7353  0.4625
 2110TIP3   OH227744   4.890   4.574  10.511  0.4444  0.2962  0.2421
 2110TIP3    H127745   4.815   4.549  10.457  0.8769 -3.7504  1.1825
 2110TIP3    H227746   4.964   4.531  10.470  1.6655  1.2862  1.3213
 2111TIP3   OH227747   4.535   0.777   2.279  0.0158 -0.4790  0.0898
 2111TIP3    H127748   4.554   0.693   2.320  3.1275  0.0520  0.0114
 2111TIP3    H227749   4.568   0.842   2.341  0.1060  0.5627 -1.0171
 2112TIP3   OH227750   5.848   1.183   4.890 -0.3521 -0.0291 -0.2084
 2112TIP3    H127751   5.761   1.210   4.862 -0.5849 -1.2927 -0.7707
 2112TIP3    H227752   5.876   1.119   4.825  0.7551 -0.0858  0.2909
 2113TIP3   OH227753   1.300   0.542   2.815  0.7241  0.5830 -0.1476
 2113TIP3    H127754   1.225   0.542   2.875  0.2424  0.4482 -0.7490
 2113TIP3    H227755   1.301   0.631   2.778 -0.7471 -0.1475 -2.1165
 2114TIP3   OH227756   0.504   4.967   4.637 -0.0980 -0.2362  0.2664
 2114TIP3    H127757   0.511   4.929   4.549 -0.0310 -0.6716  0.4596
 2114TIP3    H227758   0.422   5.016   4.636 -0.2657 -0.5239  0.0704
 2115TIP3   OH227759   3.561   4.952  13.726 -0.4056 -0.2595 -0.1612
 2115TIP3    H127760   3.519   5.034  13.752 -0.1077  0.4168 -1.7272
 2115TIP3    H227761   3.527   4.934  13.639  1.3182 -0.5505 -0.8049
 2116TIP3   OH227762   1.207   4.515   3.429  0.1224 -0.1953  0.4097
 2116TIP3    H127763   1.207   4.472   3.515  1.9407 -1.0390  0.0317
 2116TIP3    H227764   1.122   4.558   3.424 -0.1554 -0.3917  2.5033
 2117TIP3   OH227765   5.548   0.456  14.137 -0.4695  0.4247  0.2065
 2117TIP3    H127766   5.465   0.420  14.104  1.0706 -0.0759 -3.5986
 2117TIP3    H227767   5.595   0.380  14.171  0.7637 -0.5591 -3.2930
 2118TIP3   OH227768   2.477   4.998   2.256 -0.4152 -0.3844 -0.3684
 2118TIP3    H127769   2.545   4.971   2.194 -0.0905  1.7395 -1.0229
 2118TIP3    H227770   2.406   4.936   2.243  0.9301 -1.9799 -0.4712
 2119TIP3   OH227771   0.184   6.472   4.352 -0.3335 -0.1534 -0.4690
 2119TIP3    H127772   0.270   6.463   4.310 -0.7309 -2.0070 -0.9835
 2119TIP3    H227773   0.159   6.563   4.335  1.7314  0.5847  0.1472
 2120TIP3   OH227774   3.828   5.795  13.817 -0.1403  0.5762 -0.5684
 2120TIP3    H127775   3.818   5.716  13.765  1.0409 -1.0252  1.4851
 2120TIP3    H227776   3.858   5.861  13.755 -1.1036 -0.5742 -2.3194
 2121TIP3   OH227777   0.341   1.677  11.260 -0.1729  0.2966  0.0959
 2121TIP3    H127778   0.339   1.604  11.322 -1.7294  0.4594  0.2850
 2121TIP3    H227779   0.351   1.754  11.315 -1.1593  0.4114  0.1235
 2122TIP3   OH227780   2.338   5.002   0.626 -0.4831 -0.0324  0.1029
 2122TIP3    H127781   2.308   4.937   0.562  1.4182 -1.0549  0.1979
 2122TIP3    H227782   2.341   4.955   0.709  1.5364 -0.0476  0.0563
 2123TIP3   OH227783   0.279   0.301  12.082 -0.9385  0.1132 -0.4268
 2123TIP3    H127784   0.192   0.341  12.073 -1.7295 -1.9673 -3.3744
 2123TIP3    H227785   0.334   0.349  12.021 -0.8006 -0.4966 -0.7860
 2124TIP3   OH227786   3.553   2.928   4.209 -0.3708  0.6486 -0.0920
 2124TIP3    H127787   3.465   2.905   4.178  0.5396 -0.1794 -2.2921
 2124TIP3    H227788   3.588   2.847   4.245 -0.9375  1.3039  2.1324
 2125TIP3   OH227789   3.318   5.696  14.282  0.4203  0.8190  0.3737
 2125TIP3    H127790   3.377   5.770  14.299  0.2936  1.0683 -0.2491
 2125TIP3    H227791   3.309   5.653  14.367  1.6638  0.6565  0.4391
 2126TIP3   OH227792   1.868   0.543  13.424  0.2475  0.4857 -0.2670
 2126TIP3    H127793   1.867   0.616  13.486 -0.9184 -2.0407  2.9332
 2126TIP3    H227794   1.960   0.536  13.397  0.4898  2.6764 -0.2079
 2127TIP3   OH227795   5.141   3.636   4.667  0.3706  0.0897  0.5621
 2127TIP3    H127796   5.055   3.660   4.632  0.6458  2.2508  1.1856
 2127TIP3    H227797   5.135   3.542   4.683 -2.0262  0.2379  0.9524
 2128TIP3   OH227798   5.199   5.632  14.551 -0.0375 -0.0957 -0.0892
 2128TIP3    H127799   5.106   5.656  14.542  0.3094  1.0721 -0.7327
 2128TIP3    H227800   5.197   5.538  14.569 -1.4493  0.2769  2.1471
 2129TIP3   OH227801   5.179   1.237  15.885  0.2789 -0.5751  0.1639
 2129TIP3    H127802   5.116   1.198  15.945 -0.4975 -1.2148 -1.0155
 2129TIP3    H227803   5.126   1.267  15.811  1.2215  0.0722 -0.2765
 2130TIP3   OH227804   2.595   2.694  11.458 -0.4809 -0.4784 -0.5196
 2130TIP3    H127805   2.596   2.656  11.546  1.4029  0.0481 -0.2654
 2130TIP3    H227806   2.542   2.634  11.407 -1.0936 -1.1389  0.8301
 2131TIP3   OH227807   5.834   1.628   3.987  0.0090 -0.4899 -0.6048
 2131TIP3    H127808   5.868   1.599   3.902 -0.8723 -0.8089 -0.8664
 2131TIP3    H227809   5.868   1.563   4.050 -0.7692 -1.2941 -0.9824
 2132TIP3   OH227810   5.313   2.458  12.060 -0.3824 -0.4972 -0.5415
 2132TIP3    H127811   5.293   2.518  11.988  0.7115  1.0801  0.3964
 2132TIP3    H227812   5.407   2.442  12.053 -0.1135  0.2473  0.8939
 2133TIP3   OH227813   2.747   6.405   3.903 -0.7855 -0.1886 -0.7420
 2133TIP3    H127814   2.823   6.360   3.866 -0.4844  0.0042 -0.3584
 2133TIP3    H227815   2.753   6.390   3.997 -0.6702  0.6783 -0.6059
 2134TIP3   OH227816   3.920   1.898  16.849 -0.4020  0.1272  0.5699
 2134TIP3    H127817   3.946   1.838  16.779 -1.7639 -0.3166  0.4097
 2134TIP3    H227818   3.992   1.893  16.913  0.1845 -0.5557 -0.1220
 2135TIP3   OH227819   6.658   2.544   5.586 -0.3782 -0.0439  0.6192
 2135TIP3    H127820   6.652   2.451   5.609 -0.4828 -0.1900  0.0189
 2135TIP3    H227821   6.693   2.544   5.497 -0.5414  0.4893  0.5535
 2136TIP3   OH227822   6.305   1.559  12.756  0.0681 -0.0562 -0.0706
 2136TIP3    H127823   6.324   1.644  12.796  0.4418 -0.1876  0.0334
 2136TIP3    H227824   6.369   1.499  12.794  1.0829  0.0181 -1.5773
 2137TIP3   OH227825   0.509   1.192   4.595  0.1755  0.1205  0.5361
 2137TIP3    H127826   0.498   1.172   4.502  1.7507 -1.1415  0.5797
 2137TIP3    H227827   0.599   1.225   4.601 -0.1551  0.8739  1.5262
 2138TIP3   OH227828   0.713   5.040  15.448 -0.4732  0.1380 -0.0014
 2138TIP3    H127829   0.682   4.992  15.372 -1.5108  1.0091 -0.1570
 2138TIP3    H227830   0.780   4.984  15.487 -1.2463 -1.1692 -0.4935
 2139TIP3   OH227831   4.112   0.599   0.001 -0.2673 -0.3496  0.1324
 2139TIP3    H127832   4.167   0.522   0.014  1.5155  1.1432  2.2256
 2139TIP3    H227833   4.042   0.589   0.067  1.5516  1.0510  2.4279
 2140TIP3   OH227834   4.680   2.466   2.790 -0.2503 -0.0900 -0.7471
 2140TIP3    H127835   4.760   2.439   2.745 -0.1793 -0.8004 -0.2057
 2140TIP3    H227836   4.630   2.514   2.724  0.2445 -0.3677 -1.3271
 2141TIP3   OH227837   0.355   2.921  12.987 -0.4036  0.6363 -0.2922
 2141TIP3    H127838   0.284   2.945  12.928  1.0966  1.7278 -1.7618
 2141TIP3    H227839   0.431   2.969  12.953  1.2797 -1.3017  0.5626
 2142TIP3   OH227840   3.041   2.232   1.152 -0.3546 -0.5153  0.1061
 2142TIP3    H127841   2.971   2.272   1.100  0.1636  0.5284  0.1918
 2142TIP3    H227842   3.079   2.304   1.201  0.7941 -1.0658  0.0605
 2143TIP3   OH227843   2.670   4.900   2.087 -0.1277  0.2576  0.1898
 2143TIP3    H127844   2.662   4.820   2.035 -0.8509 -0.1082  0.8564
 2143TIP3    H227845   2.746   4.944   2.050  0.7306 -1.0810  0.2768
 2144TIP3   OH227846   1.734   5.252   2.154  0.1193 -0.2546  0.2676
 2144TIP3    H127847   1.823   5.236   2.122 -0.1556  0.1172 -0.7163
 2144TIP3    H227848   1.730   5.206   2.238  0.6924 -1.7168 -0.4675
 2145TIP3   OH227849   2.303   3.003  16.171 -0.4851  0.6180 -0.0825
 2145TIP3    H127850   2.212   2.983  16.190 -0.3638  1.0651  1.0504
 2145TIP3    H227851   2.316   2.974  16.081 -0.9424 -2.2150  0.6764
 2146TIP3   OH227852   0.016   4.780  12.519 -0.3507 -0.2171  0.1993
 2146TIP3    H127853  -0.065   4.799  12.567  0.3010  0.3888  1.0730
 2146TIP3    H227854   0.075   4.851  12.542  0.7675 -1.1657  0.3312
 2147TIP3   OH227855   2.721   0.044  11.199  0.0938  0.0985  0.0523
 2147TIP3    H127856   2.655   0.108  11.225 -0.2532  0.7222 -2.1005
 2147TIP3    H227857   2.693  -0.038  11.239 -1.0468  0.7061  0.5464
 2148TIP3   OH227858   3.941   2.122   0.870 -0.2809  0.1227 -0.2429
 2148TIP3    H127859   3.999   2.182   0.823  1.4610  0.3223  1.9863
 2148TIP3    H227860   3.946   2.040   0.821  1.0990  0.4453 -0.6823
 2149TIP3   OH227861   0.137   1.512   1.850  0.1066 -0.1627  0.0869
 2149TIP3    H127862   0.139   1.608   1.842  0.5048 -0.1753 -0.0081
 2149TIP3    H227863   0.173   1.495   1.937 -2.0342 -0.1343  1.0307
 2150TIP3   OH227864   1.787   6.437  14.800 -0.1652  0.3744  0.2450
 2150TIP3    H127865   1.734   6.410  14.875 -0.1931  1.0034  0.4613
 2150TIP3    H227866   1.736   6.507  14.759 -1.6409 -1.9060 -2.1612
 2151TIP3   OH227867   5.918   1.738  11.964  0.1365 -0.3371  0.0164
 2151TIP3    H127868   5.863   1.790  11.906  2.0101  0.6460 -0.9772
 2151TIP3    H227869   6.006   1.748  11.928  1.1043 -1.1388  2.0284
 2152TIP3   OH227870   4.023   4.738  11.763 -0.2827  0.2580 -0.6090
 2152TIP3    H127871   4.052   4.801  11.828 -1.8474  0.0061  0.3845
 2152TIP3    H227872   4.040   4.652  11.803  0.7468  0.0402 -1.4622
 2153TIP3   OH227873   6.099   0.286  16.452  0.1968 -0.3187  0.1973
 2153TIP3    H127874   6.037   0.327  16.392 -1.4947 -2.3453  0.4919
 2153TIP3    H227875   6.084   0.330  16.535  0.2008  0.1886 -0.0636
 2154TIP3   OH227876   6.065   5.160   4.693 -0.2075  0.3927  0.2535
 2154TIP3    H127877   6.040   5.161   4.786 -0.2350 -0.4156  0.2599
 2154TIP3    H227878   5.993   5.114   4.650  0.1624  0.1134 -0.0649
 2155TIP3   OH227879   2.741   3.516   0.700 -0.3251 -0.6466  0.6356
 2155TIP3    H127880   2.740   3.427   0.663 -0.5615 -2.2964  4.2413
 2155TIP3    H227881   2.670   3.516   0.764 -0.0246  2.0337  1.0730
 2156TIP3   OH227882   0.965   2.714   6.670 -0.6787  0.3870  0.0697
 2156TIP3    H127883   0.946   2.627   6.636 -2.6045  0.8280 -0.0635
 2156TIP3    H227884   1.023   2.697   6.745  0.9102 -0.8032 -1.3274
 2157TIP3   OH227885   5.195   5.230  13.939 -0.5481 -0.4065  0.0387
 2157TIP3    H127886   5.277   5.183  13.952 -1.1607 -1.0835  1.7691
 2157TIP3    H227887   5.211   5.318  13.971  0.3536  0.4007 -2.4340
 2158TIP3   OH227888   4.104   1.907  12.181  0.0862 -0.1053 -0.4589
 2158TIP3    H127889   4.141   1.938  12.099  1.0352  0.6239  0.2167
 2158TIP3    H227890   4.091   1.986  12.233 -0.1068 -0.5832  0.2423
 2159TIP3   OH227891   1.698   2.428   3.696 -0.1243  0.1995 -0.3739
 2159TIP3    H127892   1.687   2.488   3.622 -0.1668 -0.1490 -0.6540
 2159TIP3    H227893   1.763   2.470   3.752  1.7033 -0.6298 -1.7694
 2160TIP3   OH227894   3.904   3.075   5.714 -0.0007  0.6399 -0.6242
 2160TIP3    H127895   3.884   3.168   5.701  0.3986  0.7989 -0.1861
 2160TIP3    H227896   3.985   3.076   5.767 -0.5055  0.0530  0.1856
 2161TIP3   OH227897   4.844   0.953   2.780 -0.4910  0.0824  0.4996
 2161TIP3    H127898   4.765   0.899   2.771 -0.9829  0.8643  0.0379
 2161TIP3    H227899   4.811   1.041   2.794  0.3044  0.4025  0.3785
 2162TIP3   OH227900   2.566   1.402   2.481 -0.3414 -0.0291 -0.6453
 2162TIP3    H127901   2.549   1.485   2.436 -0.2197  0.0563 -0.5333
 2162TIP3    H227902   2.500   1.398   2.550 -0.3154  0.0002 -0.6182
 2163TIP3   OH227903   0.259   1.101   2.711  0.0686 -0.0108  0.1610
 2163TIP3    H127904   0.304   1.154   2.776 -0.5089  0.9978 -0.2318
 2163TIP3    H227905   0.311   1.109   2.631  0.1927 -0.3681  0.2016
 2164TIP3   OH227906   3.109   4.782  13.047 -0.2131 -0.4876  0.4355
 2164TIP3    H127907   3.112   4.799  13.141  0.2487  1.1087  0.1569
 2164TIP3    H227908   3.057   4.702  13.039 -0.5867 -0.4332  2.0153
 2165TIP3   OH227909   4.596   6.655   4.444  0.6182  0.1112 -0.5316
 2165TIP3    H127910   4.686   6.662   4.476  0.4244 -0.4305  0.1526
 2165TIP3    H227911   4.541   6.685   4.517  0.2373  0.2741 -0.8795
 2166TIP3   OH227912   5.635   0.677  11.298  0.4939 -0.0199 -0.1396
 2166TIP3    H127913   5.551   0.724  11.290 -0.5865 -1.6845  0.8591
 2166TIP3    H227914   5.666   0.668  11.208  0.6047  2.2888 -0.4009
 2167TIP3   OH227915   2.843   2.981   4.336 -0.5352 -0.0731 -0.0129
 2167TIP3    H127916   2.804   2.944   4.256 -1.6194  0.4757  0.2350
 2167TIP3    H227917   2.812   3.072   4.337 -0.1119  0.0657  0.7747
 2168TIP3   OH227918   3.191   0.641  11.026 -0.2838 -0.0057  0.0356
 2168TIP3    H127919   3.221   0.729  11.048 -0.8031  0.2969 -0.4253
 2168TIP3    H227920   3.109   0.632  11.075 -2.0933  1.1328 -2.5552
 2169TIP3   OH227921   1.381   0.417   5.065 -0.0684  0.1432 -0.1329
 2169TIP3    H127922   1.473   0.407   5.088  0.2286  1.3463 -0.6810
 2169TIP3    H227923   1.341   0.333   5.084  1.0085 -0.1751  0.7567
 2170TIP3   OH227924   5.779   0.134  12.436  0.2760 -0.2782 -0.0448
 2170TIP3    H127925   5.863   0.169  12.406  1.0143 -2.0646 -0.2188
 2170TIP3    H227926   5.743   0.202  12.493  0.6048  1.6076 -1.9899
 2171TIP3   OH227927   3.579   5.336  10.707 -0.2021  0.3564  0.2848
 2171TIP3    H127928   3.617   5.288  10.781  0.5180 -0.2277 -0.4327
 2171TIP3    H227929   3.522   5.272  10.664 -0.1765  0.5095  0.0174
 2172TIP3   OH227930   3.142   5.743  10.724 -0.2555 -0.3210 -0.0688
 2172TIP3    H127931   3.201   5.681  10.682 -0.5170 -0.0278 -0.8876
 2172TIP3    H227932   3.156   5.730  10.818  0.1281 -1.1871 -0.2403
 2173TIP3   OH227933   2.054   5.069   2.159 -0.4015 -0.4921  0.2987
 2173TIP3    H127934   2.109   5.054   2.083 -0.5009  2.5629 -0.4901
 2173TIP3    H227935   2.069   4.993   2.215  3.1167 -0.7048 -0.7327
 2174TIP3   OH227936   4.807   0.854   2.104 -0.0322  0.0206  0.0078
 2174TIP3    H127937   4.792   0.943   2.135 -1.2948 -0.5927  1.2669
 2174TIP3    H227938   4.853   0.811   2.176 -0.1842 -0.5799 -0.2484
 2175TIP3   OH227939   1.077   5.452   2.252  0.1702 -0.2467  0.0077
 2175TIP3    H127940   1.086   5.517   2.322  0.3514  1.5890 -1.6230
 2175TIP3    H227941   0.984   5.431   2.250 -0.1020  0.9091 -0.2179
 2176TIP3   OH227942   1.168   4.098  14.663  0.6674 -0.3209 -0.2938
 2176TIP3    H127943   1.074   4.086  14.676  0.5264  2.3663  2.0127
 2176TIP3    H227944   1.208   4.051  14.736  0.9084  0.8823  0.3689
 2177TIP3   OH227945   2.533   2.516   6.828  0.7685  0.7270  0.3771
 2177TIP3    H127946   2.512   2.588   6.888 -0.1286  0.2484  0.6445
 2177TIP3    H227947   2.582   2.559   6.757 -0.5864  1.7967  0.0372
 2178TIP3   OH227948   5.863   4.527   4.342 -0.4475  0.2633  0.7919
 2178TIP3    H127949   5.830   4.450   4.294 -1.6733  1.7651 -0.9389
 2178TIP3    H227950   5.928   4.492   4.402 -0.9324 -2.1213  0.0390
 2179TIP3   OH227951   1.025   0.549  12.544 -0.6058  0.1537  0.0220
 2179TIP3    H127952   0.948   0.606  12.546 -0.1371  0.9531 -2.0408
 2179TIP3    H227953   1.051   0.549  12.452  1.1443 -1.0760  0.4909
 2180TIP3   OH227954   5.172   4.404  14.239 -0.0119  0.4097 -0.0942
 2180TIP3    H127955   5.123   4.371  14.315  0.7157 -0.7505 -0.1009
 2180TIP3    H227956   5.242   4.458  14.277 -0.0328  0.3498  0.0315
 2181TIP3   OH227957   1.327   5.794  15.735  0.0623  0.2306  0.0580
 2181TIP3    H127958   1.410   5.840  15.738 -0.5446  1.3999  2.9083
 2181TIP3    H227959   1.298   5.792  15.827 -2.1361 -1.8156 -0.5883
 2182TIP3   OH227960   0.845   1.696   2.255 -0.0309 -0.5476  0.5263
 2182TIP3    H127961   0.934   1.731   2.246 -0.3749 -0.0056 -1.1584
 2182TIP3    H227962   0.856   1.601   2.248  0.2966 -0.4136 -1.1141
 2183TIP3   OH227963   3.556   0.633  15.220 -0.1170  0.9104 -0.3896
 2183TIP3    H127964   3.569   0.550  15.174 -2.9087  0.4882 -0.5650
 2183TIP3    H227965   3.590   0.617  15.308  0.3903 -0.0395 -0.7440
 2184TIP3   OH227966   4.629   0.164   2.503 -0.2627  0.4615 -0.0199
 2184TIP3    H127967   4.557   0.100   2.499  0.9494 -0.9062 -0.5426
 2184TIP3    H227968   4.699   0.118   2.548  0.7562  1.3134 -0.7059
 2185TIP3   OH227969   2.871   5.900  15.194  0.1575  0.5007 -0.2540
 2185TIP3    H127970   2.942   5.962  15.180  1.1801 -0.6615 -0.3882
 2185TIP3    H227971   2.800   5.952  15.230  1.6906  1.4127  1.6039
 2186TIP3   OH227972   4.110   0.955  14.242  0.4589  0.0433 -0.2145
 2186TIP3    H127973   4.124   1.023  14.176 -0.3620  1.0298  0.5765
 2186TIP3    H227974   4.049   0.995  14.305  1.6349 -0.6316  1.4473
 2187TIP3   OH227975   1.206   6.003   5.787  0.5300 -0.2905 -1.2403
 2187TIP3    H127976   1.298   6.007   5.813  0.1471  0.5776  0.0829
 2187TIP3    H227977   1.181   5.912   5.800  0.7829 -0.2034 -0.0409
 2188TIP3   OH227978   0.357   2.900   3.812 -0.4651 -0.6510  0.4034
 2188TIP3    H127979   0.264   2.920   3.801 -0.4207 -1.6573 -2.4047
 2188TIP3    H227980   0.360   2.807   3.834 -0.1132 -0.7026  0.1509
 2189TIP3   OH227981   6.667   4.337  11.094  0.7111 -0.0750  0.0852
 2189TIP3    H127982   6.746   4.377  11.129  0.8330 -0.0531 -0.2055
 2189TIP3    H227983   6.671   4.355  11.000 -0.6197  1.6482  0.3056
 2190TIP3   OH227984   5.349   6.501  10.747  0.0765  0.3114  0.2258
 2190TIP3    H127985   5.255   6.502  10.731  0.3295 -0.7611 -1.6119
 2190TIP3    H227986   5.376   6.592  10.738 -0.6265  0.4697 -0.3488
 2191TIP3   OH227987   6.326   6.082  13.822 -0.0607  0.4653  0.1491
 2191TIP3    H127988   6.337   5.993  13.855 -5.3128 -0.5194  0.1667
 2191TIP3    H227989   6.333   6.137  13.900 -0.3851 -0.4018  0.8157
 2192TIP3   OH227990   0.239   2.447  10.620 -0.8195  0.0627 -0.3420
 2192TIP3    H127991   0.309   2.508  10.600  1.1379 -0.8841  2.8827
 2192TIP3    H227992   0.275   2.361  10.598 -1.8259 -0.2917 -0.6594
 2193TIP3   OH227993   3.321   1.310   6.075  0.1924 -0.3541 -0.1779
 2193TIP3    H127994   3.325   1.402   6.099 -0.4562 -0.7565  1.5847
 2193TIP3    H227995   3.413   1.282   6.073  0.4178  0.3787 -1.0873
 2194TIP3   OH227996   1.441   5.745  13.384 -0.5515  0.2261 -0.2434
 2194TIP3    H127997   1.468   5.799  13.458 -0.9862  0.6788 -0.4103
 2194TIP3    H227998   1.468   5.795  13.307  0.0556 -0.3244 -0.3972
 2195TIP3   OH227999   5.562   3.015   0.411 -0.1814 -0.4587 -0.3833
 2195TIP3    H128000   5.601   2.977   0.489 -0.9819  1.3643  0.9724
 2195TIP3    H228001   5.502   2.948   0.379 -0.4370 -0.9455  1.0438
 2196TIP3   OH228002   1.205   4.177   1.033 -0.3437 -0.3328  0.1438
 2196TIP3    H128003   1.298   4.156   1.029 -0.6399 -1.4867 -1.1711
 2196TIP3    H228004   1.177   4.185   0.942 -1.4731  0.3130  0.5202
 2197TIP3   OH228005   2.857   4.229   0.617 -0.0435  0.2562 -0.4161
 2197TIP3    H128006   2.862   4.133   0.617 -0.3970  0.2331 -0.6010
 2197TIP3    H228007   2.829   4.251   0.706 -1.8616  0.0567 -0.8864
 2198TIP3   OH228008   4.683   1.755  12.545  0.4848 -1.0325  0.2792
 2198TIP3    H128009   4.648   1.749  12.456 -3.0949  0.9483  1.3933
 2198TIP3    H228010   4.618   1.712  12.600  1.4343 -0.0872  2.2300
 2199TIP3   OH228011   0.384   5.564  13.621 -0.0225 -0.0529 -0.1887
 2199TIP3    H128012   0.363   5.488  13.566 -0.6649 -0.6796  0.8983
 2199TIP3    H228013   0.366   5.535  13.710 -0.8938  1.5833  0.2092
 2200TIP3   OH228014   6.764   0.898   1.554 -0.4167 -0.4146 -0.2714
 2200TIP3    H128015   6.692   0.925   1.497 -1.7321 -0.8697  1.1216
 2200TIP3    H228016   6.740   0.810   1.583 -0.0513  0.0070  1.3949
 2201TIP3   OH228017   6.013   5.160   5.307 -0.4946  0.6269  0.1200
 2201TIP3    H128018   6.006   5.255   5.313  0.6624  0.6613  1.3138
 2201TIP3    H228019   5.925   5.132   5.281 -0.9673  1.9845  0.1426
 2202TIP3   OH228020   5.505   1.757   2.920 -0.7006 -0.2562  0.4950
 2202TIP3    H128021   5.483   1.761   2.827 -1.0228  0.0183  0.5827
 2202TIP3    H228022   5.583   1.702   2.924 -1.0203 -0.7476  0.1204
 2203TIP3   OH228023   0.203   3.994  10.648 -0.3868  0.1066 -0.2536
 2203TIP3    H128024   0.186   3.986  10.742  0.5006  1.1607  0.0241
 2203TIP3    H228025   0.286   4.042  10.643  0.2458 -1.0577 -1.5655
 2204TIP3   OH228026   6.043   5.918  10.522  0.6046 -0.1697  0.3928
 2204TIP3    H128027   5.975   5.895  10.460  0.9805 -0.8236  0.2112
 2204TIP3    H228028   6.000   5.975  10.586  0.1350  0.2234 -0.2633
 2205TIP3   OH228029   1.664   3.335   4.023 -0.1555  0.1560  0.0382
 2205TIP3    H128030   1.630   3.421   4.048  0.9014  1.1458 -1.7027
 2205TIP3    H228031   1.759   3.343   4.035 -0.1572 -1.2671  1.2101
 2206TIP3   OH228032   2.971   5.191   3.002  0.0592  0.3497 -0.0046
 2206TIP3    H128033   3.030   5.205   3.076  1.7628  2.6936 -1.6598
 2206TIP3    H228034   2.978   5.271   2.950 -1.1107 -1.1492 -2.6872
 2207TIP3   OH228035   1.137   6.779   5.991  0.6963  0.0736  0.2254
 2207TIP3    H128036   1.165   6.800   6.080 -0.7396 -0.1272  0.7544
 2207TIP3    H228037   1.067   6.714   6.002  1.8280 -1.4643 -1.1583
 2208TIP3   OH228038   0.739   0.184   1.076  0.1974 -0.2377  0.4441
 2208TIP3    H128039   0.682   0.117   1.037  1.0437 -0.7051  0.0025
 2208TIP3    H228040   0.686   0.264   1.075  0.3546 -0.1020 -2.1510
 2209TIP3   OH228041   1.794   0.484  16.117 -0.1470 -0.4025 -0.2911
 2209TIP3    H128042   1.804   0.568  16.072  0.2513 -0.2202  0.1318
 2209TIP3    H228043   1.779   0.508  16.208 -0.4444 -0.7839 -0.2404
 2210TIP3   OH228044   5.392   0.937   0.653  0.4452  0.5710  0.4632
 2210TIP3    H128045   5.432   0.886   0.723  1.8112 -1.4055 -1.6358
 2210TIP3    H228046   5.365   1.018   0.696  3.4721  0.5437  2.7610
 2211TIP3   OH228047   5.113   0.649  14.075 -0.0657  0.1892 -0.4766
 2211TIP3    H128048   5.134   0.682  13.988 -3.9755  3.0888 -0.6095
 2211TIP3    H228049   5.035   0.595  14.063  0.2276 -0.6360  1.0565
 2212TIP3   OH228050   1.598   4.392  15.593 -0.0714 -0.0097 -0.5502
 2212TIP3    H128051   1.623   4.412  15.503  1.1433 -0.0962 -0.2541
 2212TIP3    H228052   1.612   4.298  15.602 -1.5780 -0.2643 -0.6734
 2213TIP3   OH228053   0.141   1.569  12.982  0.3230  0.0218  0.0649
 2213TIP3    H128054   0.110   1.619  13.057 -2.2977 -1.2027 -0.1004
 2213TIP3    H228055   0.183   1.492  13.020 -0.8197 -0.4937  0.3310
 2214TIP3   OH228056   5.819   2.374  15.973  0.1755 -0.2063  0.6419
 2214TIP3    H128057   5.900   2.333  16.004 -0.5790 -0.6660  2.1064
 2214TIP3    H228058   5.787   2.316  15.905  1.3247  0.2617 -0.3441
 2215TIP3   OH228059   2.301   3.231   3.633  0.1552 -0.1145  0.9244
 2215TIP3    H128060   2.284   3.141   3.659 -1.9380  0.5942  2.3301
 2215TIP3    H228061   2.386   3.252   3.672  0.4531 -1.3310  0.9498
 2216TIP3   OH228062   0.819   3.288   0.058 -0.1246 -0.2252  0.0114
 2216TIP3    H128063   0.760   3.216   0.034  0.1424 -0.1453 -0.9294
 2216TIP3    H228064   0.907   3.250   0.051  0.1036  0.5376 -1.8805
 2217TIP3   OH228065   1.756   0.566  16.382 -0.2933 -0.2434  0.6006
 2217TIP3    H128066   1.733   0.632  16.448 -0.9749  1.2148 -1.0079
 2217TIP3    H228067   1.676   0.513  16.373 -0.7509  0.5588 -0.1648
 2218TIP3   OH228068   4.574   5.934   1.825 -0.6661 -0.1881 -0.2967
 2218TIP3    H128069   4.627   6.006   1.860  0.0515 -1.1209  0.5856
 2218TIP3    H228070   4.635   5.862   1.814 -1.6558 -1.1654  0.3483
 2219TIP3   OH228071   4.420   0.877  14.594  0.1146  0.2975  0.1949
 2219TIP3    H128072   4.509   0.852  14.570  1.1043  1.8040  2.0201
 2219TIP3    H228073   4.382   0.798  14.633  0.3439 -0.5757 -1.2837
 2220TIP3   OH228074   5.843   5.067   4.262 -0.5308 -0.5817  0.0433
 2220TIP3    H128075   5.761   5.023   4.285 -0.5734  0.0409  1.1292
 2220TIP3    H228076   5.819   5.158   4.248 -0.0381 -0.4053  0.3128
 2221TIP3   OH228077   5.444   0.325   2.061  0.2768  0.1828 -0.0307
 2221TIP3    H128078   5.493   0.298   2.138  0.1300 -1.1836 -0.3980
 2221TIP3    H228079   5.364   0.366   2.096  0.2683 -0.3144  0.5343
 2222TIP3   OH228080   3.378   0.571  12.577 -0.3903  0.0757  0.0383
 2222TIP3    H128081   3.363   0.520  12.497  1.6892  0.8801 -0.9453
 2222TIP3    H228082   3.439   0.517  12.628 -0.0625  0.4984  0.0974
 2223TIP3   OH228083   1.294   6.257   1.564 -0.5523  0.0002 -0.7308
 2223TIP3    H128084   1.220   6.245   1.505  0.4149 -1.7817 -1.6415
 2223TIP3    H228085   1.370   6.229   1.514  0.4874 -0.1856  0.8736
 2224TIP3   OH228086   5.268   4.231  12.248  0.3854 -0.0557  0.3148
 2224TIP3    H128087   5.246   4.141  12.226  1.2295 -0.3856  0.7574
 2224TIP3    H228088   5.342   4.223  12.309  0.5969  0.9356  0.2021
 2225TIP3   OH228089   6.422   2.010   0.017  0.1999  0.0997 -0.2361
 2225TIP3    H128090   6.391   2.091  -0.023 -2.7215 -0.3174  0.9636
 2225TIP3    H228091   6.370   1.941  -0.023  1.3836 -1.0215  0.0541
 2226TIP3   OH228092   0.308   3.016  15.545  0.4536  0.4477  0.2222
 2226TIP3    H128093   0.303   3.087  15.608 -0.9978  0.1421  0.4812
 2226TIP3    H228094   0.310   2.937  15.598 -1.0360  0.1748 -0.0890
 2227TIP3   OH228095   3.770   6.311   6.463  0.3193 -0.1905  0.0873
 2227TIP3    H128096   3.713   6.281   6.391  0.5038  1.9861 -1.0420
 2227TIP3    H228097   3.711   6.357   6.523  0.3117 -1.2342  0.9045
 2228TIP3   OH228098   1.914   4.929  15.096 -0.3172  0.0024  0.0027
 2228TIP3    H128099   1.834   4.906  15.141 -1.1725  2.2387 -0.2368
 2228TIP3    H228100   1.982   4.927  15.163 -0.3928 -2.4248  0.1008
 2229TIP3   OH228101   4.310   1.687  13.527  0.0286  0.5354 -0.0437
 2229TIP3    H128102   4.294   1.726  13.441 -0.0532 -0.3692 -0.4490
 2229TIP3    H228103   4.306   1.760  13.588 -3.2289  0.7886 -0.3908
 2230TIP3   OH228104   4.842   1.169   1.221  0.2236  0.1170 -0.0790
 2230TIP3    H128105   4.838   1.175   1.126  1.4450 -0.4960 -0.1796
 2230TIP3    H228106   4.765   1.218   1.251  0.8023  1.8828 -1.3069
 2231TIP3   OH228107   1.679   0.467  17.138  0.0794 -0.0971  0.3226
 2231TIP3    H128108   1.607   0.442  17.081 -1.7791 -0.9838  2.8507
 2231TIP3    H228109   1.644   0.538  17.191  2.6160  2.5430 -1.2573
 2232TIP3   OH228110   2.456   5.085  13.428  0.7077  0.3300 -0.0717
 2232TIP3    H128111   2.404   5.073  13.508 -0.1631  0.4286 -0.6033
 2232TIP3    H228112   2.530   5.026  13.439  0.8037  0.6171  0.9732
 2233TIP3   OH228113   5.280   1.990  13.251  0.0291  0.0674 -0.0782
 2233TIP3    H128114   5.279   2.085  13.240  0.0100  0.0905  0.1236
 2233TIP3    H228115   5.216   1.958  13.188 -0.6196  0.2554  0.4835
 2234TIP3   OH228116   4.620   2.276  12.208 -0.9727  0.4785 -0.3331
 2234TIP3    H128117   4.630   2.362  12.249  1.8671  0.5035 -0.9102
 2234TIP3    H228118   4.623   2.294  12.114  1.9465 -0.3611 -0.4825
 2235TIP3   OH228119   2.112   3.313  11.139 -0.9069  0.0648  0.1156
 2235TIP3    H128120   2.053   3.381  11.108 -1.1693 -0.2181 -0.0070
 2235TIP3    H228121   2.188   3.319  11.081 -1.5007 -0.6337 -0.7671
 2236TIP3   OH228122   1.058   2.452  15.608 -0.0062 -0.1096  0.5058
 2236TIP3    H128123   1.009   2.524  15.569 -0.9649 -0.5180  0.9091
 2236TIP3    H228124   1.134   2.494  15.649  1.8050  0.1986 -2.8488
 2237TIP3   OH228125   3.275   4.020  12.242  0.3902  0.1009  0.4973
 2237TIP3    H128126   3.302   4.097  12.292  0.7428  0.4859 -0.2705
 2237TIP3    H228127   3.326   3.948  12.280  2.1342  0.7147 -0.5382
 2238TIP3   OH228128   6.561   2.175  13.169 -0.7113  0.1790 -0.0294
 2238TIP3    H128129   6.652   2.149  13.176 -0.6052  0.4575 -0.3537
 2238TIP3    H228130   6.554   2.252  13.226 -0.9426 -0.3242  0.6482
 2239TIP3   OH228131   1.274   5.796   1.095  0.5093  0.0446  0.3454
 2239TIP3    H128132   1.317   5.880   1.079 -1.3781  1.0254  0.2166
 2239TIP3    H228133   1.186   5.819   1.124 -0.2128 -1.8934 -0.1747
 2240TIP3   OH228134   5.301   2.372   3.341 -0.1917  0.1437 -0.6293
 2240TIP3    H128135   5.372   2.435   3.345  0.5377 -0.6438 -1.0577
 2240TIP3    H228136   5.332   2.297   3.392 -0.3134 -0.5868 -1.6015
 2241TIP3   OH228137   4.911   2.806  14.882  0.0409 -0.2190  0.5365
 2241TIP3    H128138   4.860   2.725  14.885  0.2358 -0.4398 -1.1229
 2241TIP3    H228139   4.862   2.868  14.936 -0.8146 -1.0624  0.7429
 2242TIP3   OH228140   0.910   3.003  12.365 -0.1449 -0.2760  0.0850
 2242TIP3    H128141   0.910   2.989  12.270 -1.7263  0.5500 -0.0878
 2242TIP3    H228142   0.923   3.098  12.375 -0.5832 -0.2655  0.6454
 2243TIP3   OH228143   2.678   1.787   3.577  0.5910 -0.3147  0.0715
 2243TIP3    H128144   2.720   1.785   3.492  0.5642  0.8665  0.0158
 2243TIP3    H228145   2.622   1.709   3.578  1.2742 -0.8328 -0.6170
 2244TIP3   OH228146   6.286   2.716   1.579 -0.2833 -0.0102 -0.1975
 2244TIP3    H128147   6.323   2.649   1.522  0.1967  0.3026 -0.2598
 2244TIP3    H228148   6.305   2.798   1.536 -0.1550  0.2166  0.2803
 2245TIP3   OH228149   3.064   2.730   0.414  0.0593 -0.3799 -0.9398
 2245TIP3    H128150   3.018   2.686   0.486 -0.1809  1.4982  0.1422
 2245TIP3    H228151   3.101   2.659   0.361 -0.2414 -1.8443  0.7244
 2246TIP3   OH228152   5.985   2.384   1.424 -0.5213  0.0680  0.7419
 2246TIP3    H128153   6.018   2.419   1.341 -0.2182 -0.0572  0.8068
 2246TIP3    H228154   5.985   2.458   1.484 -3.1646  0.7914 -0.0381
 2247TIP3   OH228155   5.734   3.763  16.476 -0.1431 -0.3572  0.3803
 2247TIP3    H128156   5.701   3.673  16.482 -0.6215 -0.1594  0.7629
 2247TIP3    H228157   5.827   3.756  16.501  0.4791 -1.1119 -1.8776
 2248TIP3   OH228158   1.747   0.136   3.354 -0.0414  0.3645 -0.0672
 2248TIP3    H128159   1.741   0.207   3.290  2.5697  1.2733  0.5495
 2248TIP3    H228160   1.682   0.157   3.421 -1.8703  0.1150 -1.6745
 2249TIP3   OH228161   6.807   3.323   5.209  0.1176 -0.2765 -0.3271
 2249TIP3    H128162   6.829   3.409   5.175  1.5330 -0.1412  0.8418
 2249TIP3    H228163   6.760   3.342   5.291  3.3863 -0.4909  1.7889
 2250TIP3   OH228164   5.917   6.316  12.234  0.0412 -0.1167 -0.5118
 2250TIP3    H128165   5.907   6.310  12.139 -0.7875  1.4016 -0.5500
 2250TIP3    H228166   5.827   6.311  12.267  0.3742 -1.4653  0.2850
 2251TIP3   OH228167   1.481   3.349   2.744 -0.2792  0.9641  0.0748
 2251TIP3    H128168   1.442   3.415   2.801 -2.5600 -0.4182  0.2446
 2251TIP3    H228169   1.442   3.364   2.658 -1.8225 -0.8300  0.3850
 2252TIP3   OH228170   4.333   6.735   6.445  0.6686 -0.1299 -0.1602
 2252TIP3    H128171   4.398   6.665   6.450 -0.1873 -1.0058 -0.8730
 2252TIP3    H228172   4.250   6.690   6.429  0.1738  1.0787 -1.1863
 2253TIP3   OH228173   3.772   0.127   2.817 -0.8209  0.1446  0.1087
 2253TIP3    H128174   3.696   0.077   2.789  0.2702 -0.7120 -1.4210
 2253TIP3    H228175   3.770   0.207   2.764 -0.7744  0.2252  0.2266
 2254TIP3   OH228176   0.669   1.989   4.137 -0.1063  0.0519  0.1844
 2254TIP3    H128177   0.595   1.928   4.136  1.1793 -1.5851  0.6844
 2254TIP3    H228178   0.723   1.961   4.063  1.2178 -0.3603  1.2748
 2255TIP3   OH228179   4.064   1.726   4.600 -0.0379 -0.6003 -0.1095
 2255TIP3    H128180   4.011   1.655   4.636 -1.4839  0.7744  0.6150
 2255TIP3    H228181   4.130   1.744   4.667  1.5689 -2.4314 -1.0846
 2256TIP3   OH228182   5.317   0.737   5.371 -0.0061 -0.1035 -0.5097
 2256TIP3    H128183   5.402   0.692   5.368  0.8504  1.3302  0.8294
 2256TIP3    H228184   5.265   0.693   5.303  1.4688 -1.6542 -0.7229
 2257TIP3   OH228185   4.282   2.951   5.458 -0.5232 -0.3041 -0.4437
 2257TIP3    H128186   4.337   2.907   5.392  1.7428  0.4868  0.8353
 2257TIP3    H228187   4.343   2.999   5.513 -2.2689 -1.1998  2.5104
 2258TIP3   OH228188   0.656   4.285  13.443  0.0176  0.3306 -0.0425
 2258TIP3    H128189   0.568   4.251  13.426  0.3283 -0.4693 -0.0870
 2258TIP3    H228190   0.700   4.280  13.358 -0.3481  2.1655 -0.3840
 2259TIP3   OH228191   4.964   5.238  10.938  0.1124 -0.0179  0.0555
 2259TIP3    H128192   4.920   5.300  10.880  1.3108 -0.6240 -1.5568
 2259TIP3    H228193   4.924   5.153  10.917 -1.9846  0.1814  2.6989
 2260TIP3   OH228194   2.426   4.088  16.050  0.0562  0.0369  0.2850
 2260TIP3    H128195   2.487   4.095  15.977 -0.8691  1.6990 -0.3672
 2260TIP3    H228196   2.386   4.174  16.056 -0.6832 -0.3920  2.0714
 2261TIP3   OH228197   1.774   3.053   2.472 -0.1706  0.0029  0.8453
 2261TIP3    H128198   1.766   3.123   2.536 -0.6331  0.1285  0.6573
 2261TIP3    H228199   1.868   3.044   2.456 -0.0469 -0.1090  1.6228
 2262TIP3   OH228200   2.150   5.041   4.784 -0.0953  0.3501  0.1225
 2262TIP3    H128201   2.096   5.081   4.715  0.3274  0.8736  0.0877
 2262TIP3    H228202   2.183   5.116   4.833 -0.5231 -0.0207  0.9986
 2263TIP3   OH228203   6.336   6.795   5.310  0.3036 -0.0719 -0.3812
 2263TIP3    H128204   6.390   6.873   5.322 -0.2561  0.0693  1.7359
 2263TIP3    H228205   6.395   6.722   5.328  0.4364 -0.0588 -0.7577
 2264TIP3   OH228206   4.641   6.477   3.143  0.5624 -0.4748 -0.0747
 2264TIP3    H128207   4.688   6.480   3.226 -0.1073  1.2663  0.2970
 2264TIP3    H228208   4.707   6.453   3.079  1.6103  0.3585  0.6564
 2265TIP3   OH228209   2.729   3.140  17.010  0.2317  0.2034 -0.2366
 2265TIP3    H128210   2.648   3.136  16.959 -0.1323  0.9871  0.2636
 2265TIP3    H228211   2.790   3.084  16.962 -0.7418 -0.7960 -0.3580
 2266TIP3   OH228212   6.414   2.561  12.884  0.1722 -0.4590 -0.3485
 2266TIP3    H128213   6.465   2.563  12.965 -1.3752 -0.8896  0.6929
 2266TIP3    H228214   6.454   2.492  12.831  0.9878 -0.4167  0.1964
 2267TIP3   OH228215   5.969   3.016   4.988  0.5506  0.5300  0.4664
 2267TIP3    H128216   5.899   3.035   4.926  1.0966  0.2378 -0.2546
 2267TIP3    H228217   6.019   3.098   4.993  0.6367  0.4868  0.3382
 2268TIP3   OH228218   3.469   0.280  15.794 -0.4279 -0.3814  0.4940
 2268TIP3    H128219   3.391   0.335  15.801 -0.1058  0.1027  0.3353
 2268TIP3    H228220   3.530   0.316  15.858 -0.8005 -1.5659  1.5563
 2269TIP3   OH228221   6.242   4.973  14.556  0.1306  0.2979 -0.0817
 2269TIP3    H128222   6.188   5.045  14.526 -0.8848 -0.1575  0.5882
 2269TIP3    H228223   6.204   4.947  14.640 -0.5032 -1.9947 -0.9871
 2270TIP3   OH228224   4.011   6.648  12.032 -0.3197  0.4910 -0.1742
 2270TIP3    H128225   3.937   6.699  12.002 -0.8369  0.0759  0.3574
 2270TIP3    H228226   3.973   6.564  12.058  0.3690  0.1878 -0.1301
 2271TIP3   OH228227   1.020   6.767   1.741  0.7713  0.5082  0.0677
 2271TIP3    H128228   0.954   6.804   1.683  0.3393  0.3681  0.4660
 2271TIP3    H228229   1.055   6.692   1.693 -0.7011 -0.5636  0.6347
 2272TIP3   OH228230   5.414   5.619   1.505  0.2698 -0.0937  0.0125
 2272TIP3    H128231   5.499   5.594   1.469  0.1233 -0.8939  0.1946
 2272TIP3    H228232   5.417   5.593   1.597 -0.3073 -0.5131 -0.0759
 2273TIP3   OH228233   4.023   2.834  10.818  0.4518 -0.7578  0.8724
 2273TIP3    H128234   4.076   2.766  10.775  1.2817 -0.1432  0.8785
 2273TIP3    H228235   3.937   2.828  10.776  0.3518 -2.1287  1.2271
 2274TIP3   OH228236   5.267   3.167  13.813 -0.0602 -0.1511 -0.4030
 2274TIP3    H128237   5.343   3.144  13.760  0.4663  0.9578 -0.1604
 2274TIP3    H228238   5.303   3.177  13.902 -0.2065  1.6404 -0.5012
 2275TIP3   OH228239   5.167   2.489   0.133 -0.0303  1.0166  0.1423
 2275TIP3    H128240   5.091   2.489   0.192 -1.1392  0.0027 -1.2045
 2275TIP3    H228241   5.129   2.495   0.046  1.5614  2.3414 -0.5015
 2276TIP3   OH228242   3.750   6.791  16.282 -0.1363 -0.0833  1.0170
 2276TIP3    H128243   3.832   6.790  16.232  0.5541  0.5106  2.0762
 2276TIP3    H228244   3.695   6.727  16.239  0.1119  0.9481 -0.9783
 2277TIP3   OH228245   6.538   5.973  12.541 -0.1716  0.3364  0.3532
 2277TIP3    H128246   6.496   5.941  12.620 -0.8822 -0.9340 -0.5054
 2277TIP3    H228247   6.466   6.001  12.485  0.2959  0.8236 -0.0149
 2278TIP3   OH228248   3.333   0.315   1.579  0.8102  0.4761 -0.6392
 2278TIP3    H128249   3.305   0.372   1.507 -0.7265  2.6708  1.5376
 2278TIP3    H228250   3.428   0.321   1.578  0.7960  1.0034 -2.0367
 2279TIP3   OH228251   1.978   2.701  11.385 -0.4758  0.3270  0.1427
 2279TIP3    H128252   1.956   2.743  11.301  1.4915 -0.6194 -0.9287
 2279TIP3    H228253   2.050   2.754  11.420  0.0668 -0.4373  0.2131
 2280TIP3   OH228254   1.081   6.606  12.081 -0.3433  0.0891 -0.0151
 2280TIP3    H128255   1.095   6.680  12.140  3.9189  0.2738 -0.9587
 2280TIP3    H228256   1.085   6.645  11.993  1.3892 -1.1214 -0.5146
 2281TIP3   OH228257   0.598   3.116   4.563 -0.2459  0.0956  0.4570
 2281TIP3    H128258   0.548   3.170   4.624 -2.0540 -1.2929  0.2809
 2281TIP3    H228259   0.542   3.108   4.486 -0.1244 -2.0986  0.5281
 2282TIP3   OH228260   0.141   2.521  16.720 -0.0338  0.7570  0.1191
 2282TIP3    H128261   0.070   2.461  16.745  0.4958 -0.0532 -0.2824
 2282TIP3    H228262   0.105   2.573  16.649  0.1608 -0.5109 -0.9475
 2283TIP3   OH228263   4.125   4.195  14.774  0.0017  0.6634 -0.4349
 2283TIP3    H128264   4.155   4.211  14.684 -0.2743  3.7857 -0.0943
 2283TIP3    H228265   4.157   4.271  14.823 -1.5277  0.0222  1.6905
 2284TIP3   OH228266   2.032   1.773  15.172 -0.2895 -0.0585 -0.3418
 2284TIP3    H128267   1.962   1.799  15.233 -0.7734  1.9205 -1.6235
 2284TIP3    H228268   2.113   1.790  15.221 -0.6736  0.6769  0.0643
 2285TIP3   OH228269   1.570   5.636  15.960 -0.0833 -0.1347 -0.1629
 2285TIP3    H128270   1.658   5.613  15.931  0.4931 -0.0143  1.4434
 2285TIP3    H228271   1.581   5.714  16.014 -0.7055 -1.8256  2.6245
 2286TIP3   OH228272   1.893   3.792   4.271  0.0978  0.2854  0.3061
 2286TIP3    H128273   1.867   3.827   4.356 -1.3828 -0.3180  0.1394
 2286TIP3    H228274   1.973   3.742   4.289  0.0674  0.5595  1.2524
 2287TIP3   OH228275   5.714   1.603   2.605  0.0450 -0.2425 -0.1131
 2287TIP3    H128276   5.652   1.552   2.658 -1.3268 -0.3822 -1.7669
 2287TIP3    H228277   5.800   1.582   2.642 -0.5111 -3.2226 -0.2260
 2288TIP3   OH228278   5.964   3.155   0.673  0.2749  0.1716  0.0089
 2288TIP3    H128279   5.970   3.201   0.756  0.9532  1.1152 -0.5488
 2288TIP3    H228280   6.001   3.068   0.691  0.0242  0.2212  0.7901
 2289TIP3   OH228281   1.900   0.579  14.327 -0.3482 -0.5404 -0.1403
 2289TIP3    H128282   1.928   0.660  14.284  0.2973 -1.3084 -1.1949
 2289TIP3    H228283   1.941   0.509  14.277  0.8970 -1.4813  2.0671
 2290TIP3   OH228284   1.109   5.051   3.890  0.4159 -0.0808  0.7262
 2290TIP3    H128285   1.108   4.975   3.948 -0.5716  0.1900  1.0878
 2290TIP3    H228286   1.080   5.124   3.945 -1.6393 -0.0256 -0.3604
 2291TIP3   OH228287   2.868   3.285  15.949 -0.2463 -0.2640 -0.6455
 2291TIP3    H128288   2.825   3.359  15.907 -0.5523  0.2475  0.5193
 2291TIP3    H228289   2.803   3.215  15.949 -1.3774  0.6670  1.5795
 2292TIP3   OH228290   3.623   6.490  13.792 -0.1349  0.6669  0.4534
 2292TIP3    H128291   3.595   6.458  13.706 -0.9813 -1.0859  1.3394
 2292TIP3    H228292   3.716   6.468  13.797  0.3475  2.2531 -0.6188
 2293TIP3   OH228293   0.305   5.117  14.221 -0.1190  0.0085 -0.2955
 2293TIP3    H128294   0.294   5.186  14.287 -1.1364 -1.4024  1.0875
 2293TIP3    H228295   0.391   5.080  14.239 -0.4830 -0.5170  0.4218
 2294TIP3   OH228296   4.280   0.312  10.799 -0.2597  0.6799 -0.5623
 2294TIP3    H128297   4.259   0.259  10.723  0.8346  0.2670 -0.5989
 2294TIP3    H228298   4.253   0.259  10.874 -0.9727  0.9184 -0.6443
 2295TIP3   OH228299   2.734   0.734   1.883 -0.1156 -0.1132 -0.3758
 2295TIP3    H128300   2.718   0.821   1.918 -0.2400  0.7668 -2.4877
 2295TIP3    H228301   2.681   0.730   1.803  1.6351 -1.2553 -1.5470
 2296TIP3   OH228302   5.606   0.670  13.970 -0.5396 -0.6336 -0.6115
 2296TIP3    H128303   5.610   0.579  13.998 -0.8246 -0.3854  0.2452
 2296TIP3    H228304   5.546   0.712  14.031  0.8549  0.5007  0.0386
 2297TIP3   OH228305   0.430   1.876  10.366  0.4930 -0.1516 -0.2891
 2297TIP3    H128306   0.472   1.823  10.434 -1.6942  0.7753  1.8983
 2297TIP3    H228307   0.496   1.941  10.342  2.2542 -2.1120 -1.0922
 2298TIP3   OH228308   3.574   1.380  15.247 -0.0030 -0.6165 -0.0369
 2298TIP3    H128309   3.539   1.344  15.328 -0.3298  1.6764  0.9135
 2298TIP3    H228310   3.509   1.444  15.219  1.1132  0.1513 -0.9513
 2299TIP3   OH228311   5.239   5.110   1.762 -0.0113  0.6266  0.2663
 2299TIP3    H128312   5.282   5.029   1.790  0.3623  0.7472  0.0367
 2299TIP3    H228313   5.303   5.178   1.778 -0.2260  0.8454  0.1943
 2300TIP3   OH228314   4.306   1.299  14.612 -0.3826  0.3114 -0.3398
 2300TIP3    H128315   4.268   1.358  14.677 -1.8037  1.0727 -1.7672
 2300TIP3    H228316   4.400   1.305  14.625 -0.4674  2.8983 -0.3772
 2301TIP3   OH228317   2.952   5.046   5.243 -0.5868 -0.4634 -0.1748
 2301TIP3    H128318   2.957   5.141   5.255 -1.5888 -0.1759 -1.7228
 2301TIP3    H228319   2.998   5.010   5.319  0.2641  1.2563  0.1816
 2302TIP3   OH228320   6.179   5.328   0.428 -0.3240  0.1437  0.3910
 2302TIP3    H128321   6.115   5.357   0.493  2.2283 -0.7815  3.5854
 2302TIP3    H228322   6.201   5.238   0.453  1.3353 -0.0055 -1.3037
 2303TIP3   OH228323   1.923   0.606  16.722 -0.2969  0.7856 -0.2521
 2303TIP3    H128324   1.869   0.613  16.801 -1.7327 -2.2573 -0.8223
 2303TIP3    H228325   1.891   0.676  16.665 -1.1418  1.2839  0.7883
 2304TIP3   OH228326   5.773   2.025  16.869 -0.9349  0.6212 -0.5986
 2304TIP3    H128327   5.756   1.957  16.804 -1.1960  0.4987 -0.4052
 2304TIP3    H228328   5.705   2.012  16.936  1.3334 -1.5384  1.5185
 2305TIP3   OH228329   3.602   6.006  11.974 -0.0509 -0.0025  0.7674
 2305TIP3    H128330   3.515   5.986  11.939  0.2020 -0.0898  0.1798
 2305TIP3    H228331   3.586   6.074  12.039 -0.7102 -0.8629  1.5383
 2306TIP3   OH228332   1.893   0.537  14.768 -0.3812 -0.0452  0.0526
 2306TIP3    H128333   1.873   0.522  14.861  1.5191  0.7457  0.6598
 2306TIP3    H228334   1.862   0.459  14.723 -3.6750  0.6050  0.9236
 2307TIP3   OH228335   5.554   2.010  13.748 -0.4337 -0.6134 -0.8116
 2307TIP3    H128336   5.563   2.087  13.690 -0.0658  0.8185  1.0518
 2307TIP3    H228337   5.491   2.038  13.815  1.4099 -1.0945  1.2002
 2308TIP3   OH228338   5.877   4.462   3.725 -0.0072  0.9831 -0.2138
 2308TIP3    H128339   5.942   4.442   3.793  0.7447  0.7476 -0.9791
 2308TIP3    H228340   5.909   4.543   3.685 -0.2040  0.8882 -0.5667
 2309TIP3   OH228341   1.199   5.718   0.143  0.0338 -0.2325  0.4533
 2309TIP3    H128342   1.161   5.750   0.225  0.2276 -0.9554  0.8351
 2309TIP3    H228343   1.218   5.798   0.093 -2.5492  0.1573 -0.0421
 2310TIP3   OH228344   0.299   3.791   2.234 -0.1889 -0.0256 -0.2448
 2310TIP3    H128345   0.303   3.886   2.249  0.4208 -0.1235  0.2307
 2310TIP3    H228346   0.376   3.772   2.180  1.0710 -0.6019  1.6594
 2311TIP3   OH228347   6.285   4.941   4.597 -0.2645 -0.8252  0.6965
 2311TIP3    H128348   6.208   4.926   4.542  0.3876 -1.0847 -0.1661
 2311TIP3    H228349   6.278   4.876   4.666 -1.8520  0.4165  1.7949
 2312TIP3   OH228350   6.094   1.165   0.095 -0.2823  0.0679  0.3409
 2312TIP3    H128351   6.036   1.238   0.115 -1.0891 -0.6777  0.7960
 2312TIP3    H228352   6.055   1.124   0.017 -0.2744 -0.3335  0.5450
 2313TIP3   OH228353   5.084   0.808   2.859  0.4889  0.2688 -0.5234
 2313TIP3    H128354   5.109   0.859   2.783 -3.0631  0.2019 -1.9411
 2313TIP3    H228355   4.990   0.824   2.869  0.4827 -0.9908  2.9137
 2314TIP3   OH228356   0.520   2.073  16.624 -0.1732 -0.1314  0.8318
 2314TIP3    H128357   0.560   2.135  16.563 -2.3737 -0.3923 -1.0248
 2314TIP3    H228358   0.541   2.107  16.711  2.5834  0.5906 -0.0222
 2315TIP3   OH228359   5.914   0.859  12.314  0.2692  0.0616 -0.4957
 2315TIP3    H128360   5.819   0.866  12.315  0.0277 -2.2099 -1.8625
 2315TIP3    H228361   5.941   0.919  12.245  0.1120  2.3752  1.3042
 2316TIP3   OH228362   0.410   6.384  13.522  0.0820 -0.2447 -0.7903
 2316TIP3    H128363   0.341   6.318  13.532  0.7050 -0.5341  4.0658
 2316TIP3    H228364   0.491   6.338  13.542  0.9320  1.3120 -0.5004
 2317TIP3   OH228365   4.678   0.690   3.441  0.5671  0.0585 -0.0498
 2317TIP3    H128366   4.649   0.720   3.355 -0.5344  3.1311  1.2224
 2317TIP3    H228367   4.770   0.668   3.429 -0.1014 -1.9271 -2.4462
 2318TIP3   OH228368   3.664   1.152  14.442  0.3231  0.3603 -0.5046
 2318TIP3    H128369   3.605   1.121  14.373  0.6891  0.7572 -1.0064
 2318TIP3    H228370   3.608   1.206  14.498 -0.0547 -0.2438 -0.2854
 2319TIP3   OH228371   5.797   2.781   1.328  0.1696  0.2816  0.2113
 2319TIP3    H128372   5.814   2.852   1.390  0.3963  1.3151 -0.9884
 2319TIP3    H228373   5.870   2.720   1.341  1.3918  1.5266 -0.4405
 2320TIP3   OH228374   0.671   4.366  16.760 -0.2017 -0.1337 -0.3099
 2320TIP3    H128375   0.695   4.276  16.780 -2.8510 -1.3048 -1.7861
 2320TIP3    H228376   0.598   4.385  16.819  0.5568  1.2467  0.2466
 2321TIP3   OH228377   4.191   3.583   3.470 -0.0086 -0.1071  0.2981
 2321TIP3    H128378   4.101   3.579   3.502 -0.2894  0.6166 -0.3847
 2321TIP3    H228379   4.184   3.617   3.381  1.0684  1.5740  0.8096
 2322TIP3   OH228380   3.814   6.462   1.945 -0.2795 -0.5000  0.2529
 2322TIP3    H128381   3.840   6.553   1.935 -1.0138 -0.3253 -0.0952
 2322TIP3    H228382   3.765   6.460   2.027  0.9825 -0.8755  1.0331
 2323TIP3   OH228383   2.788   5.518   4.911 -0.5011  0.5443  0.9701
 2323TIP3    H128384   2.735   5.593   4.885  0.0487  0.7907  0.5378
 2323TIP3    H228385   2.725   5.453   4.943 -1.0970  0.6079 -0.0571
 2324TIP3   OH228386   1.394   2.444  13.432 -0.3635  0.2831  0.0891
 2324TIP3    H128387   1.475   2.482  13.398 -0.0403  0.0438  0.5797
 2324TIP3    H228388   1.373   2.373  13.372 -0.8073  1.0378 -0.6635
 2325TIP3   OH228389   6.230   4.447  11.264 -0.3807  0.2079 -0.1715
 2325TIP3    H128390   6.233   4.539  11.290 -3.5116  0.6302 -0.8942
 2325TIP3    H228391   6.249   4.448  11.170 -2.1437  0.4063 -0.5604
 2326TIP3   OH228392   1.708   5.624   5.275  0.0918  0.8626  0.0492
 2326TIP3    H128393   1.647   5.585   5.213 -0.1371 -0.0126  0.7941
 2326TIP3    H228394   1.794   5.608   5.237 -0.0190 -0.0993  0.1675
 2327TIP3   OH228395   2.290   2.042   4.794  0.1603 -0.2222 -0.0993
 2327TIP3    H128396   2.379   2.075   4.801  0.4040 -1.0169  0.7207
 2327TIP3    H228397   2.290   1.987   4.715  0.7934 -1.3604  0.6636
 2328TIP3   OH228398   6.774   5.182   5.591 -0.3552 -0.3439  0.4223
 2328TIP3    H128399   6.736   5.094   5.597 -0.6821 -0.3913 -1.5400
 2328TIP3    H228400   6.700   5.242   5.601 -0.0057 -0.2294  2.6442
 2329TIP3   OH228401   4.297   1.311   1.056 -0.5395 -0.5061 -0.6786
 2329TIP3    H128402   4.214   1.317   1.102  1.4405  0.0767  3.2405
 2329TIP3    H228403   4.323   1.220   1.064  0.1161 -0.2690 -0.0037
 2330TIP3   OH228404   3.030   4.400  16.334 -0.3634 -0.2664  0.2860
 2330TIP3    H128405   3.061   4.326  16.387 -0.3948 -0.6098 -0.1641
 2330TIP3    H228406   3.046   4.373  16.244  0.1372  0.5158  0.1350
 2331TIP3   OH228407   0.094   4.591   0.093  0.0973 -0.0747 -0.0028
 2331TIP3    H128408   0.079   4.556   0.181  1.7830 -1.8836 -0.3600
 2331TIP3    H228409   0.189   4.598   0.086 -0.0875  1.8815 -1.0345
 2332TIP3   OH228410   3.488   0.009   5.124 -0.0724 -0.0020 -0.3191
 2332TIP3    H128411   3.539  -0.071   5.109 -1.5930 -0.8554 -1.1372
 2332TIP3    H228412   3.503   0.029   5.217  1.1059 -0.6654 -0.3414
 2333TIP3   OH228413   0.040   6.051  16.217 -0.2473 -0.1785  0.0263
 2333TIP3    H128414   0.078   6.138  16.230  0.4145 -0.5962  1.0119
 2333TIP3    H228415   0.115   5.992  16.219 -0.5183 -0.6746 -2.0267
 2334TIP3   OH228416   6.451   2.867   1.788 -0.4340 -0.1507 -0.1188
 2334TIP3    H128417   6.519   2.802   1.806 -2.6848 -2.5896  0.2605
 2334TIP3    H228418   6.407   2.834   1.710 -1.5617  1.0065 -0.0043
 2335TIP3   OH228419   5.358   1.318  14.335 -0.1475 -0.7153  0.0972
 2335TIP3    H128420   5.430   1.379  14.320 -0.4940 -0.7302 -1.9211
 2335TIP3    H228421   5.393   1.233  14.308 -1.0485 -0.6369 -1.4213
 2336TIP3   OH228422   4.367   6.025  13.189  0.2672  0.4086 -0.0146
 2336TIP3    H128423   4.408   6.111  13.193 -4.8222  3.1622  0.4112
 2336TIP3    H228424   4.316   6.026  13.108  0.7311 -2.7173 -0.4855
 2337TIP3   OH228425   6.212   1.226  14.177 -0.4543 -0.2151 -0.2235
 2337TIP3    H128426   6.270   1.296  14.209 -0.5228 -0.3670  0.2434
 2337TIP3    H228427   6.242   1.209  14.088  0.5962 -0.6763  0.2000
 2338TIP3   OH228428   3.381   0.788  14.116  0.3666 -0.3536  0.2823
 2338TIP3    H128429   3.442   0.745  14.176  0.9450 -2.5271 -1.7016
 2338TIP3    H228430   3.295   0.752  14.139  0.4025 -0.2657  0.5575
 2339TIP3   OH228431   3.351   4.653  16.321 -0.4554 -0.3465  0.7822
 2339TIP3    H128432   3.382   4.622  16.236 -2.2513  0.8870 -0.4088
 2339TIP3    H228433   3.342   4.573  16.374  2.3931 -0.9634  0.4934
 2340TIP3   OH228434   0.132   5.705   1.624 -0.0001 -0.1584  0.1318
 2340TIP3    H128435   0.111   5.789   1.664  0.0181  0.0077 -0.1952
 2340TIP3    H228436   0.048   5.667   1.600  0.0227  0.1569 -0.4840
 2341TIP3   OH228437   5.752   5.635  14.684 -0.2606  0.4398 -0.3093
 2341TIP3    H128438   5.847   5.639  14.692 -0.1906 -1.3635  0.3921
 2341TIP3    H228439   5.731   5.543  14.702 -2.2473  1.0858  1.0173
 2342TIP3   OH228440   0.062   1.001   0.638  0.0267 -0.4053  0.6878
 2342TIP3    H128441   0.154   0.985   0.614  0.4246 -0.5836  2.1791
 2342TIP3    H228442   0.034   1.072   0.581  0.5836 -1.4289 -0.9169
 2343TIP3   OH228443   6.265   3.922   2.108  0.2107  0.5795 -0.3681
 2343TIP3    H128444   6.188   3.865   2.110  0.8564 -0.3151 -0.4916
 2343TIP3    H228445   6.326   3.883   2.171  1.5298 -0.1608 -2.0162
 2344TIP3   OH228446   6.158   5.685   3.030  0.2486 -0.0446  0.2257
 2344TIP3    H128447   6.123   5.740   2.960 -1.5162 -0.0577  1.0488
 2344TIP3    H228448   6.178   5.745   3.101 -1.3054 -0.3638  0.9798
 2345TIP3   OH228449   4.694   0.837   0.653 -0.2063  0.2018 -0.1274
 2345TIP3    H128450   4.660   0.868   0.569 -0.2191  0.6394  0.0331
 2345TIP3    H228451   4.650   0.892   0.718  1.6494  1.5996  0.0222
 2346TIP3   OH228452   6.191   1.959  11.841 -0.0347 -0.4117 -0.1560
 2346TIP3    H128453   6.285   1.980  11.840  0.0296 -0.5173  1.2596
 2346TIP3    H228454   6.149   2.040  11.813  0.4851 -0.4911 -1.2100
 2347TIP3   OH228455   5.254   3.376   5.263  0.0516 -0.5114 -0.0575
 2347TIP3    H128456   5.287   3.295   5.224  0.0516 -0.0132 -1.1263
 2347TIP3    H228457   5.158   3.365   5.263  0.0774 -0.8169  0.5186
 2348TIP3   OH228458   2.391   4.053  16.367  0.6462  0.3931 -0.5525
 2348TIP3    H128459   2.432   4.056  16.281  2.0011  0.0197  0.0478
 2348TIP3    H228460   2.298   4.066  16.350  0.7032 -1.0557 -2.2003
 2349TIP3   OH228461   2.796   4.178   2.700  0.2585 -0.0622 -0.3889
 2349TIP3    H128462   2.742   4.149   2.773  0.2103 -1.6046 -1.0013
 2349TIP3    H228463   2.822   4.267   2.723 -1.6112  0.3079  0.4431
 2350TIP3   OH228464   0.761   4.264  14.173 -0.0953  0.3302  0.1012
 2350TIP3    H128465   0.832   4.319  14.207 -0.4123 -1.0198  3.3233
 2350TIP3    H228466   0.804   4.183  14.144 -0.1562  0.1366  0.5475
 2351TIP3   OH228467   2.904   5.576   3.232 -0.5911 -0.1811  0.3468
 2351TIP3    H128468   2.903   5.486   3.265  0.8991 -0.7269 -0.9643
 2351TIP3    H228469   2.903   5.630   3.311 -0.8849 -1.3494  1.1779
 2352TIP3   OH228470   3.219   5.055   4.824 -0.2394  0.4767  0.5592
 2352TIP3    H128471   3.184   4.981   4.874  1.3405  0.3932  1.6010
 2352TIP3    H228472   3.299   5.080   4.870 -0.2201  2.2221 -0.3379
 2353TIP3   OH228473   5.986   0.941   0.982  0.1822 -0.1029  0.3232
 2353TIP3    H128474   5.963   0.953   1.074 -0.6823 -2.0629  0.4159
 2353TIP3    H228475   6.015   1.027   0.953  1.1541  0.3933  2.5969
 2354TIP3   OH228476   1.175   4.148   2.732  0.2885  0.1863  0.0943
 2354TIP3    H128477   1.161   4.154   2.638 -0.2878 -1.4124  0.0348
 2354TIP3    H228478   1.088   4.161   2.770  0.0831 -1.3334  0.2362
 2355TIP3   OH228479   4.013   6.053   4.752  0.0704 -0.7831 -0.5342
 2355TIP3    H128480   4.095   6.051   4.801  0.7819  0.3084 -1.6072
 2355TIP3    H228481   4.033   6.011   4.668 -0.1812  0.2919 -1.1631
 2356TIP3   OH228482   3.400   0.093  16.104  0.7513  0.2271  0.1734
 2356TIP3    H128483   3.336   0.163  16.094  0.5668  0.0300 -0.0259
 2356TIP3    H228484   3.417   0.063  16.015 -0.8244 -1.4733  0.3844
 2357TIP3   OH228485   0.056   5.838   2.862  0.4099 -0.5139 -0.7254
 2357TIP3    H128486   0.116   5.821   2.934 -0.1976  0.6522  0.0926
 2357TIP3    H228487   0.047   5.754   2.818  4.5603 -0.3258 -2.4520
 2358TIP3   OH228488   5.218   2.313  12.594 -0.2657 -0.4811 -0.9485
 2358TIP3    H128489   5.161   2.345  12.664 -0.2792 -0.4534 -0.9718
 2358TIP3    H228490   5.254   2.391  12.554  0.7814 -0.5217 -0.1272
 2359TIP3   OH228491   5.323   5.388   2.952 -0.4158 -0.2761  0.7741
 2359TIP3    H128492   5.247   5.367   3.005 -1.6463  1.9789  0.0417
 2359TIP3    H228493   5.398   5.355   3.003 -1.7771 -1.7175  1.9443
 2360TIP3   OH228494   0.031   0.959  16.978  0.3768  0.0369 -0.0643
 2360TIP3    H128495   0.041   0.967  16.883  0.3093 -0.1549 -0.0880
 2360TIP3    H228496   0.098   0.896  17.004 -1.5200 -2.2410 -0.3944
 2361TIP3   OH228497   2.806   3.484  12.166  0.0096  0.1520  0.4166
 2361TIP3    H128498   2.798   3.497  12.072  0.0441 -0.7847  0.2736
 2361TIP3    H228499   2.810   3.389  12.177  1.0226  0.2719  1.2767
 2362TIP3   OH228500   1.470   5.027   3.411 -0.2035  0.7701 -0.9637
 2362TIP3    H128501   1.404   5.023   3.342  0.0714 -1.2003 -1.1662
 2362TIP3    H228502   1.529   4.953   3.393  0.7564  1.1261  0.5013
 2363TIP3   OH228503   6.416   5.312  12.037  0.1037 -1.1262 -0.0439
 2363TIP3    H128504   6.507   5.290  12.017  0.2287 -1.4056  0.7911
 2363TIP3    H228505   6.365   5.247  11.988  0.3003 -0.3323 -1.3398
 2364TIP3   OH228506   1.511   0.580   4.830 -1.2290 -0.6315  0.2209
 2364TIP3    H128507   1.459   0.568   4.750 -2.5496  0.8185  0.8198
 2364TIP3    H228508   1.490   0.503   4.883 -2.2205 -0.4229  0.1513
 2365TIP3   OH228509   3.945   5.014  16.318 -0.0697  0.2010 -0.2260
 2365TIP3    H128510   4.025   5.046  16.276  0.2488  1.0395  0.9811
 2365TIP3    H228511   3.951   5.045  16.408 -0.7671 -1.5029  0.4457
 2366TIP3   OH228512   5.762   0.045  11.620 -0.1098  0.0998  0.0255
 2366TIP3    H128513   5.750  -0.011  11.697 -0.2273  0.1911  0.0749
 2366TIP3    H228514   5.701   0.118  11.634  2.2921  1.9647  1.5715
 2367TIP3   OH228515   2.035   1.936   3.186  0.0894 -0.7424 -0.7259
 2367TIP3    H128516   1.983   2.012   3.208  0.7161 -0.0448 -1.5462
 2367TIP3    H228517   2.004   1.909   3.099 -0.1551 -1.4497 -0.4279
 2368TIP3   OH228518   2.358   4.954  16.253 -0.3642  0.1169  1.0328
 2368TIP3    H128519   2.375   5.026  16.315 -0.9597  0.9983  0.1977
 2368TIP3    H228520   2.414   4.973  16.178 -2.7759  1.4920 -0.5373
 2369TIP3   OH228521   4.113   2.231  16.275  0.4983  0.3269 -0.0583
 2369TIP3    H128522   4.120   2.193  16.188  0.9257  0.7425 -0.2046
 2369TIP3    H228523   4.181   2.187  16.326  0.1237 -0.0527  0.1169
 2370TIP3   OH228524   4.648   2.197  15.931 -0.4520  0.3719 -0.3496
 2370TIP3    H128525   4.651   2.287  15.966  0.2917  0.2027  0.0545
 2370TIP3    H228526   4.562   2.190  15.891 -0.3250  1.4449 -0.8558
 2371TIP3   OH228527   5.800   4.148   0.503  0.1948  0.1955 -0.4290
 2371TIP3    H128528   5.797   4.222   0.564  0.8941 -0.2874  0.2041
 2371TIP3    H228529   5.728   4.092   0.528  1.9481 -1.2728  1.6375
 2372TIP3   OH228530   0.109   5.682   0.821  0.8906 -0.0743 -0.0257
 2372TIP3    H128531   0.189   5.636   0.847  0.5160  0.0751  1.4996
 2372TIP3    H228532   0.102   5.668   0.727  2.5726 -0.3014 -0.1396
 2373TIP3   OH228533   2.117   2.374  15.623 -0.7694  0.4326  0.5530
 2373TIP3    H128534   2.170   2.392  15.700  0.8560 -0.0959 -0.3978
 2373TIP3    H228535   2.159   2.423  15.552 -0.2984 -1.5558 -0.6458
 2374TIP3   OH228536   4.594   4.210   1.957  0.0554 -0.4588  0.0211
 2374TIP3    H128537   4.688   4.194   1.949  0.2204  0.0613  0.7221
 2374TIP3    H228538   4.560   4.132   2.000  0.6397  0.4210  2.2511
 2375TIP3   OH228539   4.253   1.226  15.261 -0.1727  0.2297  0.7292
 2375TIP3    H128540   4.343   1.260  15.256  0.1845 -0.7156  0.3120
 2375TIP3    H228541   4.248   1.184  15.347  0.5895 -1.7651 -0.1331
 2376TIP3   OH228542   5.041   5.336  16.027  0.0503  0.5837 -0.1457
 2376TIP3    H128543   5.128   5.339  16.067  0.3700 -0.2469 -0.7504
 2376TIP3    H228544   5.058   5.319  15.935 -0.6600  2.8778 -0.7549
 2377TIP3   OH228545   2.396   0.534   5.307  0.4932 -0.3821 -0.0988
 2377TIP3    H128546   2.346   0.472   5.254 -1.5664  0.9991  0.1262
 2377TIP3    H228547   2.487   0.507   5.295 -0.1538 -2.0880 -1.7240
 2378TIP3   OH228548   6.075   0.905  14.044 -0.4716  0.3374  0.4547
 2378TIP3    H128549   6.006   0.839  14.044 -0.4565  0.3213  0.3139
 2378TIP3    H228550   6.028   0.988  14.051 -0.6780  0.4936 -1.8723
 2379TIP3   OH228551   1.696   5.828   3.261 -0.0341  0.2055 -0.2628
 2379TIP3    H128552   1.702   5.856   3.353  1.8090  0.6385 -0.4778
 2379TIP3    H228553   1.700   5.732   3.266 -1.9876  0.1049  0.2003
 2380TIP3   OH228554   1.684   4.157  12.495 -0.9459  0.2185 -0.7377
 2380TIP3    H128555   1.768   4.153  12.450 -0.1969 -0.1990  0.6365
 2380TIP3    H228556   1.706   4.147  12.588 -2.4550  0.7077 -0.2945
 2381TIP3   OH228557   2.241   2.760   5.160 -0.0884  0.1787  0.1011
 2381TIP3    H128558   2.336   2.761   5.155 -0.0675  2.2526  0.1194
 2381TIP3    H228559   2.221   2.693   5.225  1.4686  1.0537  1.5621
 2382TIP3   OH228560   6.260   6.352   0.719  0.2306 -0.0490 -0.2605
 2382TIP3    H128561   6.308   6.417   0.667  0.2299 -0.1915 -0.4430
 2382TIP3    H228562   6.270   6.271   0.669 -0.0673 -0.1125 -0.2160
 2383TIP3   OH228563   1.746   0.970  11.743  0.7017  0.3982  0.4405
 2383TIP3    H128564   1.767   0.945  11.833 -0.5552 -1.3556  0.2950
 2383TIP3    H228565   1.737   0.887  11.696 -0.4899  1.2225 -0.8738
 2384TIP3   OH228566   3.330   3.133   0.216  0.8545 -0.4382  0.4244
 2384TIP3    H128567   3.286   3.060   0.259  1.8874 -1.0300  0.4892
 2384TIP3    H228568   3.421   3.106   0.208  1.2338  0.7922  0.3338
 2385TIP3   OH228569   0.488   5.816   4.081 -0.7059  0.2971 -0.4864
 2385TIP3    H128570   0.395   5.839   4.081 -0.9642 -0.6992 -0.4679
 2385TIP3    H228571   0.492   5.731   4.125  0.0911 -0.1178 -1.3180
 2386TIP3   OH228572   5.040   6.451  13.201  0.3678 -0.2236 -0.1509
 2386TIP3    H128573   5.045   6.462  13.296  1.0242 -0.1687 -0.1899
 2386TIP3    H228574   4.965   6.504  13.174 -0.5845 -1.2126  0.4847
 2387TIP3   OH228575   1.400   6.579  15.067 -0.2621 -0.2934 -0.4648
 2387TIP3    H128576   1.379   6.501  15.118  1.6391 -0.7093 -0.2446
 2387TIP3    H228577   1.430   6.545  14.983 -0.5784  0.2667 -0.8134
 2388TIP3   OH228578   2.564   1.485   5.098 -0.1040  0.1583  0.1886
 2388TIP3    H128579   2.555   1.430   5.176  0.8140  1.4104  1.2397
 2388TIP3    H228580   2.486   1.467   5.046 -0.5236 -1.0393  1.1831
 2389TIP3   OH228581   4.368   1.720  14.420 -0.3557  0.2263 -0.1569
 2389TIP3    H128582   4.323   1.788  14.370 -1.0233 -1.3937 -1.8862
 2389TIP3    H228583   4.298   1.681  14.473 -0.0664  0.5787  0.4900
 2390TIP3   OH228584   5.858   5.640   2.668  0.3058 -0.0708 -0.0966
 2390TIP3    H128585   5.781   5.637   2.724  0.3192 -0.6530 -0.0978
 2390TIP3    H228586   5.921   5.695   2.715  0.6488 -1.2604  0.8963
 2391TIP3   OH228587   4.340   6.778   6.065 -0.3725 -0.5592 -0.1034
 2391TIP3    H128588   4.275   6.762   5.996 -0.2092 -0.8640 -0.1903
 2391TIP3    H228589   4.289   6.789   6.145 -0.5666 -0.1387 -0.2824
 2392TIP3   OH228590   3.836   0.721   3.625  0.2276  0.0045 -0.4004
 2392TIP3    H128591   3.863   0.629   3.622 -0.8396 -0.2990 -1.0714
 2392TIP3    H228592   3.887   0.763   3.556  3.6326  0.7906  2.3003
 2393TIP3   OH228593   4.961   5.693  14.125  0.1795 -0.4942  0.4557
 2393TIP3    H128594   5.034   5.636  14.101  0.5060  0.7977 -1.9698
 2393TIP3    H228595   4.883   5.650  14.090  0.1438 -0.4680  0.5018
 2394TIP3   OH228596   6.095   0.697   4.965  0.2608 -0.0327 -0.0008
 2394TIP3    H128597   6.123   0.737   4.883 -0.1092 -1.0006 -0.6209
 2394TIP3    H228598   6.033   0.629   4.939  2.5581 -2.5834  0.7801
 2395TIP3   OH228599   0.382   4.262   3.348 -0.0251 -0.2553 -0.6771
 2395TIP3    H128600   0.398   4.269   3.254 -1.8947  0.4059 -0.9788
 2395TIP3    H228601   0.355   4.171   3.361  0.6094 -0.4542 -0.6924
 2396TIP3   OH228602   5.288   0.218  13.362 -0.2234 -0.1331  0.4036
 2396TIP3    H128603   5.197   0.240  13.343 -0.3364 -1.5564 -0.8894
 2396TIP3    H228604   5.336   0.300  13.351 -1.4498  0.8907  2.1570
 2397TIP3   OH228605   6.582   5.515   0.235 -0.0979 -0.0348 -0.2159
 2397TIP3    H128606   6.639   5.491   0.162  1.7122 -0.0998  1.1433
 2397TIP3    H228607   6.525   5.439   0.247  1.6863 -1.3700  0.3629
 2398TIP3   OH228608   2.902   2.947  14.215  0.2167  0.0323  0.4590
 2398TIP3    H128609   2.878   2.854  14.220  1.4863 -0.3768 -0.6745
 2398TIP3    H228610   2.997   2.948  14.221  0.2314  1.2490  0.2150
 2399TIP3   OH228611   0.400   4.366  11.328  0.4856  0.2444 -0.0762
 2399TIP3    H128612   0.415   4.347  11.421 -0.1608  0.0166 -0.0148
 2399TIP3    H228613   0.476   4.330  11.284 -1.2267 -3.8301 -0.1279
 2400TIP3   OH228614   2.903   3.264   5.572 -0.3306 -0.6841 -0.1466
 2400TIP3    H128615   2.995   3.244   5.554 -0.2500 -1.1801  0.7646
 2400TIP3    H228616   2.905   3.319   5.650 -0.5547  3.0478 -2.4837
 2401TIP3   OH228617   4.997   3.002   5.111  0.0835 -0.6636 -0.5076
 2401TIP3    H128618   4.931   2.996   5.042 -0.8410  1.0174  0.1759
 2401TIP3    H228619   5.003   3.095   5.130  0.5036 -1.0634  1.5100
 2402TIP3   OH228620   4.602   3.982  15.522  0.2416 -0.1282  0.1822
 2402TIP3    H128621   4.634   3.946  15.605 -0.2128  0.8158  0.7809
 2402TIP3    H228622   4.680   3.990  15.468  0.3957 -1.7733  0.1072
 2403TIP3   OH228623   0.177   5.871  16.886 -0.3303  0.1602 -0.4479
 2403TIP3    H128624   0.194   5.778  16.902  2.0796  0.2882 -1.8630
 2403TIP3    H228625   0.263   5.910  16.877 -1.2348  2.8554  1.4828
 2404TIP3   OH228626   0.850   6.239   3.704  0.0354  0.2778 -0.3402
 2404TIP3    H128627   0.883   6.269   3.789 -1.5052  0.1927  0.3156
 2404TIP3    H228628   0.846   6.144   3.712 -2.5092  0.3874  0.4705
 2405TIP3   OH228629   5.847   5.963   3.102 -0.6191 -0.9947  0.0316
 2405TIP3    H128630   5.939   5.952   3.126 -0.3518  1.1746  0.1816
 2405TIP3    H228631   5.841   5.927   3.013  0.6174 -0.2772 -0.3649
 2406TIP3   OH228632   0.899   4.528   1.587 -0.2443 -0.1983 -0.6045
 2406TIP3    H128633   0.931   4.495   1.503  1.1249  0.9067 -0.5580
 2406TIP3    H228634   0.811   4.492   1.595  1.0606 -3.7415 -0.5588
 2407TIP3   OH228635   5.778   5.981   1.632  0.6691  0.1044  0.0030
 2407TIP3    H128636   5.759   5.997   1.540  0.9182  0.3924 -0.0025
 2407TIP3    H228637   5.792   5.887   1.638  1.2832  0.1637 -0.3780
 2408TIP3   OH228638   1.300   4.921   3.208 -0.1687  0.0533 -0.6858
 2408TIP3    H128639   1.268   4.910   3.118  1.0447 -0.6276 -1.0530
 2408TIP3    H228640   1.328   4.834   3.235 -2.3032 -0.1750  1.1024
 2409TIP3   OH228641   2.424   2.200  14.934  0.1800 -0.4442  0.1867
 2409TIP3    H128642   2.331   2.179  14.928  0.4453 -1.2250 -1.9418
 2409TIP3    H228643   2.452   2.162  15.017 -1.4283  0.0207  0.9748
 2410TIP3   OH228644   5.886   2.964   1.111 -0.0398  0.0598  0.1849
 2410TIP3    H128645   5.858   2.926   1.195  1.0459 -1.2283 -0.0066
 2410TIP3    H228646   5.858   2.900   1.045  0.6156  0.2503 -0.2815
 2411TIP3   OH228647   5.373   1.816   3.152 -0.0563  0.3500  0.7989
 2411TIP3    H128648   5.404   1.794   3.064 -1.2902  1.6325 -0.0232
 2411TIP3    H228649   5.422   1.895   3.175  0.3772 -0.0733  1.3410
 2412TIP3   OH228650   2.677   2.994   2.469 -0.0048 -0.8493  0.4439
 2412TIP3    H128651   2.635   3.002   2.384 -1.7325 -3.0672  1.0064
 2412TIP3    H228652   2.658   3.077   2.513 -1.4310 -0.7210 -0.3489
 2413TIP3   OH228653   5.307   1.107   2.036 -0.4082 -0.2043 -0.1683
 2413TIP3    H128654   5.376   1.047   2.064 -0.0651 -0.1400 -0.8728
 2413TIP3    H228655   5.235   1.050   2.009 -0.7437 -0.2696  0.8116
 2414TIP3   OH228656   0.792   6.352  12.664 -0.1983  0.1750 -0.1412
 2414TIP3    H128657   0.797   6.280  12.602  0.5226 -1.1192  1.3363
 2414TIP3    H228658   0.863   6.335  12.726  0.4294  2.5641 -0.1375
 2415TIP3   OH228659   3.855   2.625  12.350 -0.4471 -0.2935 -0.3428
 2415TIP3    H128660   3.802   2.688  12.399  0.5326 -0.7985  1.4772
 2415TIP3    H228661   3.806   2.543  12.356  1.6953 -1.5953  4.0659
 2416TIP3   OH228662   3.061   6.697   4.007 -0.0195  0.7527 -0.3725
 2416TIP3    H128663   3.077   6.692   3.912 -0.4919  0.2738 -0.4324
 2416TIP3    H228664   2.996   6.767   4.016 -1.0078 -0.0995 -0.5560
 2417TIP3   OH228665   1.088   1.936  12.836  0.2297 -0.0503  0.7276
 2417TIP3    H128666   1.059   1.975  12.753  0.8862 -0.3120  0.3695
 2417TIP3    H228667   1.021   1.962  12.899 -1.2428 -1.3356 -0.2428
 2418TIP3   OH228668   1.339   6.095  16.520  0.3551 -0.2204  0.0937
 2418TIP3    H128669   1.306   6.046  16.445  0.1600 -0.9675  0.6539
 2418TIP3    H228670   1.283   6.173  16.525  1.6302  0.8835 -1.7187
 2419TIP3   OH228671   1.697   6.277   3.865 -0.2795  0.1129 -0.6381
 2419TIP3    H128672   1.761   6.286   3.936 -0.9231  0.1788 -0.0583
 2419TIP3    H228673   1.640   6.352   3.874 -0.0320  0.4304 -1.5949
 2420TIP3   OH228674   0.706   1.463   1.692  0.2582 -0.4261  0.2884
 2420TIP3    H128675   0.677   1.374   1.675 -0.6792 -0.5554  2.2378
 2420TIP3    H228676   0.629   1.506   1.730  1.6247  0.2214  2.4920
 2421TIP3   OH228677   3.309   3.906  15.935  0.1103 -0.0789  1.1062
 2421TIP3    H128678   3.257   3.980  15.968  0.8226 -0.0782  2.2785
 2421TIP3    H228679   3.386   3.946  15.896 -2.0024  0.1803 -3.5130
 2422TIP3   OH228680   1.299   6.083   1.053 -0.3343  0.2833 -0.3319
 2422TIP3    H128681   1.389   6.092   1.022 -0.1787 -0.5980 -0.1738
 2422TIP3    H228682   1.245   6.096   0.975 -0.2020  2.8469 -0.0751
 2423TIP3   OH228683   3.390   1.866   3.533  0.4541 -0.1725 -0.0120
 2423TIP3    H128684   3.365   1.890   3.444  0.8214  0.9040  0.1604
 2423TIP3    H228685   3.389   1.949   3.582  0.9465 -0.6363  0.8182
 2424TIP3   OH228686   0.869   4.443  12.143 -0.3457 -0.2256 -0.0967
 2424TIP3    H128687   0.950   4.395  12.160 -0.2248 -0.6013 -1.6289
 2424TIP3    H228688   0.803   4.398  12.195  0.1020 -0.9916 -0.1780
 2425TIP3   OH228689   1.792   3.585  13.810  0.4427  0.0909  0.1530
 2425TIP3    H128690   1.872   3.601  13.860  2.5647 -0.4393 -2.8443
 2425TIP3    H228691   1.821   3.538  13.732 -2.4920  1.7781 -2.1627
 2426TIP3   OH228692   2.929   2.468  13.768 -0.2415  0.5537 -0.6399
 2426TIP3    H128693   2.900   2.393  13.717 -2.7517  2.6460 -2.5236
 2426TIP3    H228694   2.849   2.517  13.788  1.2004  2.3873  1.1293
 2427TIP3   OH228695   5.887   5.527   4.255 -0.3893 -0.2223  0.0825
 2427TIP3    H128696   5.823   5.463   4.223 -2.6926  1.5276  0.8915
 2427TIP3    H228697   5.903   5.501   4.346 -1.5092  0.4018  0.4874
 2428TIP3   OH228698   4.196   3.437  15.936 -0.2921 -0.3837 -0.1849
 2428TIP3    H128699   4.178   3.366  15.875 -1.9855 -0.2866  0.1458
 2428TIP3    H228700   4.174   3.402  16.022 -1.1493  0.5147 -0.0156
 2429TIP3   OH228701   4.384   0.130   3.735  0.0122 -0.1621 -0.7456
 2429TIP3    H128702   4.397   0.053   3.791 -2.0434 -0.5935 -0.7910
 2429TIP3    H228703   4.365   0.201   3.796  1.2057  0.1845 -0.7464
 2430TIP3   OH228704   6.078   2.993   6.287  0.3121 -0.0276  0.1832
 2430TIP3    H128705   6.061   2.923   6.350  0.2763 -1.7082 -1.5909
 2430TIP3    H228706   6.020   3.064   6.314  0.6800 -0.4549  2.3275
 2431TIP3   OH228707   1.685   3.605   2.793 -0.2252 -0.1387 -0.4524
 2431TIP3    H128708   1.608   3.561   2.828 -0.5010  0.9654  0.3783
 2431TIP3    H228709   1.750   3.599   2.862 -0.0448  0.1841 -0.5921
 2432TIP3   OH228710   1.516   4.173  14.676 -0.6571 -0.9428  0.8902
 2432TIP3    H128711   1.472   4.173  14.591 -0.4071 -0.4135  0.7610
 2432TIP3    H228712   1.504   4.084  14.709 -2.2681 -0.6937  1.0899
 2433TIP3   OH228713   2.635   6.719  16.688  0.2912 -0.0462  0.2361
 2433TIP3    H128714   2.636   6.803  16.736 -2.7980  0.9741 -1.2275
 2433TIP3    H228715   2.558   6.674  16.722  0.8372 -1.4615 -0.3713
 2434TIP3   OH228716   2.031   0.854   2.609 -0.0665  0.6427  0.2752
 2434TIP3    H128717   2.024   0.774   2.557  1.2735  0.5853  0.1588
 2434TIP3    H228718   2.115   0.845   2.655  0.3849  2.2451 -0.1994
 2435TIP3   OH228719   0.328   1.961  13.030  0.9444 -0.0957 -0.0667
 2435TIP3    H128720   0.422   1.940  13.027  0.8214 -0.5088 -1.3643
 2435TIP3    H228721   0.305   1.951  13.122  2.4995  1.4872  0.5565
 2436TIP3   OH228722   1.243   1.145   1.182 -0.0006 -0.3654 -0.7208
 2436TIP3    H128723   1.224   1.052   1.167  2.4279 -1.2894  1.1307
 2436TIP3    H228724   1.251   1.152   1.277  0.5817  1.5825 -0.8716
 2437TIP3   OH228725   1.300   3.181  15.785 -0.6207  0.4522 -0.6208
 2437TIP3    H128726   1.388   3.201  15.752 -0.1726 -2.5722 -1.5757
 2437TIP3    H228727   1.248   3.167  15.706 -1.4394  0.2344 -0.0501
 2438TIP3   OH228728   2.309   1.628  12.780 -0.3929 -0.0492 -0.0993
 2438TIP3    H128729   2.337   1.547  12.823  1.5271  0.3620 -0.4938
 2438TIP3    H228730   2.332   1.697  12.842 -0.8725  0.2988 -0.3015
 2439TIP3   OH228731   2.707   5.076  12.721  0.0881 -0.0770  0.5064
 2439TIP3    H128732   2.765   5.001  12.736  1.3750  1.2061  2.1629
 2439TIP3    H228733   2.653   5.081  12.800 -1.1614 -0.2278 -0.3055
 2440TIP3   OH228734   0.305   4.729  16.215 -0.0859  0.2649  0.9747
 2440TIP3    H128735   0.360   4.652  16.203 -1.1576 -0.1317 -2.3526
 2440TIP3    H228736   0.365   4.803  16.208  0.6631 -0.1890  2.2598
 2441TIP3   OH228737   2.396   6.209  10.199 -0.1100 -0.0077 -0.5847
 2441TIP3    H128738   2.341   6.287  10.212 -1.8942 -1.1618 -0.7850
 2441TIP3    H228739   2.333   6.137  10.194  1.5198 -1.5466  0.1651
 2442TIP3   OH228740   0.544   5.138   2.244 -0.6003  0.1365 -0.0291
 2442TIP3    H128741   0.609   5.072   2.266  4.8124  4.7254 -0.0189
 2442TIP3    H228742   0.500   5.157   2.328 -0.6074 -1.6939  0.4186
 2443TIP3   OH228743   5.915   5.132   2.845  0.4989  0.6145  0.4196
 2443TIP3    H128744   5.944   5.169   2.929 -2.5473  2.0623  0.9632
 2443TIP3    H228745   5.934   5.201   2.781  1.7723 -0.0384  0.0526
 2444TIP3   OH228746   0.229   4.279  12.658 -0.3012  0.3907 -0.0062
 2444TIP3    H128747   0.293   4.260  12.726  0.4195  1.3090 -0.4059
 2444TIP3    H228748   0.145   4.259  12.698  0.0457  1.6436  1.4365
 2445TIP3   OH228749   2.008   4.531  12.467 -0.0161  0.3525 -0.1739
 2445TIP3    H128750   2.055   4.531  12.384 -0.1865 -1.0487 -0.2891
 2445TIP3    H228751   2.012   4.622  12.497  0.9418  0.6663 -1.2001
 2446TIP3   OH228752   2.899   2.741  13.833  0.2482  0.1246  0.4175
 2446TIP3    H128753   2.892   2.676  13.903 -0.1730  1.0975  1.2980
 2446TIP3    H228754   2.978   2.716  13.785  1.3760  0.2684  2.1199
 2447TIP3   OH228755   3.439   3.884  10.768 -0.4624  0.0052  0.4547
 2447TIP3    H128756   3.495   3.886  10.691 -0.2069  0.2669  0.6453
 2447TIP3    H228757   3.465   3.805  10.816  0.2814  0.5319  0.9368
 2448TIP3   OH228758   6.058   0.734   0.037 -0.5508  0.0615 -0.0260
 2448TIP3    H128759   6.044   0.805  -0.026 -1.2441 -0.0626 -0.0262
 2448TIP3    H228760   6.061   0.655  -0.017 -1.0565 -0.0361  0.0824
 2449TIP3   OH228761   2.696   0.253  16.227  0.4024  0.0336 -0.2861
 2449TIP3    H128762   2.704   0.194  16.152 -0.6168 -0.9193  0.3356
 2449TIP3    H228763   2.734   0.204  16.300  0.2974  0.4868  0.0761
 2450TIP3   OH228764   4.473   4.575  14.368  0.0412  0.1928 -0.0719
 2450TIP3    H128765   4.453   4.634  14.440  0.8452 -0.0987  0.4068
 2450TIP3    H228766   4.396   4.519  14.360 -2.5350  3.7037 -3.1134
 2451TIP3   OH228767   4.900   4.765  12.123  0.0215  0.1179 -0.0236
 2451TIP3    H128768   4.874   4.839  12.177 -0.7109  0.3198 -0.6385
 2451TIP3    H228769   4.992   4.782  12.101 -0.6555  1.9094 -1.7856
 2452TIP3   OH228770   2.881   5.636  11.047 -0.3019 -0.3566 -0.0597
 2452TIP3    H128771   2.886   5.562  11.107 -0.1500 -1.2722 -1.1728
 2452TIP3    H228772   2.885   5.597  10.960  0.7267  1.0205 -0.6716
 2453TIP3   OH228773   4.692   3.116  14.476 -0.1980 -0.7028 -0.6958
 2453TIP3    H128774   4.765   3.057  14.454 -0.5772 -1.4501  0.0064
 2453TIP3    H228775   4.730   3.179  14.537  0.0376 -0.6545 -0.8913
 2454TIP3   OH228776   5.274   1.910  11.867 -0.6458 -0.2377  0.0848
 2454TIP3    H128777   5.324   1.960  11.803 -1.7948  2.3134  1.0394
 2454TIP3    H228778   5.336   1.846  11.902  0.9205  0.5121 -1.1920
 2455TIP3   OH228779   0.170   6.543  15.414 -0.1148  0.7709 -0.1436
 2455TIP3    H128780   0.230   6.583  15.476  1.0784 -1.7949  0.5141
 2455TIP3    H228781   0.215   6.548  15.330  1.2677 -1.3815  0.3918
 2456TIP3   OH228782   4.216   5.038   4.001  0.0531 -0.2777  0.5739
 2456TIP3    H128783   4.252   5.074   3.919  0.9475 -1.6266  0.3320
 2456TIP3    H228784   4.143   5.095   4.022  0.0233  0.3196 -0.9862
 2457TIP3   OH228785   0.957   0.923   1.516  0.1260  0.7062  0.7330
 2457TIP3    H128786   0.888   0.985   1.540 -0.0914 -0.2255  2.7490
 2457TIP3    H228787   1.016   0.923   1.592 -0.4020 -2.2119  1.2624
 2458TIP3   OH228788   5.133   2.645   5.685 -0.2302  0.4699 -0.9285
 2458TIP3    H128789   5.135   2.731   5.725 -0.2275  1.2544 -2.5133
 2458TIP3    H228790   5.065   2.651   5.618 -1.9583 -1.5266  0.4984
 2459TIP3   OH228791   3.993   5.478  13.198  0.2839 -0.2137 -0.4139
 2459TIP3    H128792   4.005   5.571  13.181  4.1518 -0.5924 -0.7377
 2459TIP3    H228793   4.016   5.436  13.115  2.4455 -1.4921  0.7375
 2460TIP3   OH228794   4.710   2.323   1.344 -0.3030  0.3739  0.5383
 2460TIP3    H128795   4.762   2.404   1.349 -0.7846  0.8704 -1.3984
 2460TIP3    H228796   4.620   2.353   1.329 -0.3425 -0.4744 -1.2362
 2461TIP3   OH228797   5.411   0.062   0.527 -0.0664  0.0343  0.2133
 2461TIP3    H128798   5.427   0.003   0.600  0.1753  0.6344  0.6448
 2461TIP3    H228799   5.322   0.040   0.497  0.2648 -0.9852 -0.0448
 2462TIP3   OH228800   6.035   6.574   2.582 -0.2003  1.3338 -0.2066
 2462TIP3    H128801   6.000   6.504   2.528 -1.0059  1.3465  0.2890
 2462TIP3    H228802   5.989   6.566   2.665  1.6771  0.7396  0.8343
 2463TIP3   OH228803   0.094   4.190  12.026  0.3870  0.0930  0.3278
 2463TIP3    H128804   0.170   4.224  12.073  0.1907  0.6031  0.2810
 2463TIP3    H228805   0.027   4.181  12.094  0.7729 -1.2925  0.5596
 2464TIP3   OH228806   0.318   4.658   4.350  0.0319 -0.6584  0.2447
 2464TIP3    H128807   0.378   4.600   4.397 -0.5191 -0.2651  1.4936
 2464TIP3    H228808   0.372   4.732   4.324  0.1566 -0.4281  1.1272
 2465TIP3   OH228809   4.970   4.649  13.721 -0.6155 -0.7965 -0.1001
 2465TIP3    H128810   5.006   4.560  13.719 -2.1864 -1.4436 -1.0530
 2465TIP3    H228811   4.955   4.670  13.629 -1.1230  0.1076  0.1821
 2466TIP3   OH228812   1.464   0.444   1.697 -0.8085  0.8504  0.1440
 2466TIP3    H128813   1.443   0.495   1.619 -1.0582  0.4708 -0.0397
 2466TIP3    H228814   1.454   0.353   1.670 -0.2074  0.6944  0.4231
 2467TIP3   OH228815   3.178   1.831   5.438 -0.0391 -0.0474  0.2733
 2467TIP3    H128816   3.213   1.747   5.408  0.5979  0.6515 -1.0193
 2467TIP3    H228817   3.201   1.834   5.531  1.3997 -0.5842 -0.0346
 2468TIP3   OH228818   3.164   2.310   2.873 -0.7685 -0.6377 -0.5743
 2468TIP3    H128819   3.107   2.376   2.913 -0.1187 -1.3708  1.7036
 2468TIP3    H228820   3.105   2.241   2.845 -1.1810 -0.5136 -0.0324
 2469TIP3   OH228821   1.584   2.743  15.524  0.3537  0.1746  0.3826
 2469TIP3    H128822   1.587   2.720  15.431 -0.2145  3.2059 -0.4978
 2469TIP3    H228823   1.495   2.721  15.552  0.9800 -2.1633  0.6902
 2470TIP3   OH228824   1.435   5.514   3.836  0.2683 -0.1302 -0.0266
 2470TIP3    H128825   1.397   5.454   3.900  0.6284  1.6641  2.0286
 2470TIP3    H228826   1.363   5.537   3.778 -0.4764 -0.6903  0.6578
 2471TIP3   OH228827   3.212   4.611   0.675  0.4077  0.2699  0.3902
 2471TIP3    H128828   3.163   4.601   0.593 -1.8962  0.6154  1.6437
 2471TIP3    H228829   3.276   4.680   0.656 -0.8545  1.1739 -0.8080
 2472TIP3   OH228830   5.198   6.397   4.369 -0.0255  0.6457 -0.0094
 2472TIP3    H128831   5.217   6.416   4.460 -0.8859 -0.2770  0.3845
 2472TIP3    H228832   5.201   6.482   4.325  1.9783  0.9048  0.5514
 2473TIP3   OH228833   5.355   3.640   6.202 -0.2784  0.0503 -0.4707
 2473TIP3    H128834   5.304   3.638   6.283  0.5767  1.4472  0.1458
 2473TIP3    H228835   5.442   3.611   6.227  0.2027  1.2282 -0.6993
 2474TIP3   OH228836   1.336   3.235   4.503 -0.4597 -0.7457 -0.2596
 2474TIP3    H128837   1.293   3.152   4.485  0.0403 -1.8991  3.1729
 2474TIP3    H228838   1.380   3.222   4.587  3.0354  1.7335 -1.4559
 2475TIP3   OH228839   4.673   2.253  16.631  0.1804  0.3382 -0.7998
 2475TIP3    H128840   4.766   2.274  16.643  0.3939 -1.8301  2.9753
 2475TIP3    H228841   4.627   2.319  16.683  0.0861 -1.4499  1.5421
 2476TIP3   OH228842   4.626   5.676   6.300 -0.0381 -0.3087  0.7003
 2476TIP3    H128843   4.648   5.583   6.300  0.6025 -0.1585  0.2173
 2476TIP3    H228844   4.697   5.718   6.348 -0.8401 -0.1751  1.8145
 2477TIP3   OH228845   3.246   6.260   1.975  0.0492  0.2650 -0.7815
 2477TIP3    H128846   3.209   6.289   1.891 -3.4297 -1.1908  0.0790
 2477TIP3    H228847   3.261   6.341   2.023  0.4639  1.0341 -2.1335
 2478TIP3   OH228848   5.445   4.973  16.437  0.3352 -0.1766 -0.1736
 2478TIP3    H128849   5.494   4.913  16.381 -1.4082 -2.2836  0.4091
 2478TIP3    H228850   5.509   5.003  16.502  1.4420 -0.8095 -0.9347
 2479TIP3   OH228851   2.873   6.029  15.878 -0.2058  0.5060 -0.4252
 2479TIP3    H128852   2.798   6.057  15.826 -1.3707 -0.1307  0.8521
 2479TIP3    H228853   2.947   6.078  15.842 -0.7253 -0.7147 -3.3752
 2480TIP3   OH228854   5.194   0.466   0.149  0.4592  0.3277 -0.3577
 2480TIP3    H128855   5.156   0.535   0.095  1.2325 -0.7724 -2.4104
 2480TIP3    H228856   5.259   0.425   0.093  1.5049 -0.7331  1.5361
 2481TIP3   OH228857   2.385   1.511  10.141  0.7304  0.0949 -0.4874
 2481TIP3    H128858   2.398   1.471  10.226 -0.2202  0.5831 -0.0942
 2481TIP3    H228859   2.296   1.485  10.116  1.3567 -0.9304 -1.8304
 2482TIP3   OH228860   3.378   1.666  16.879 -0.3132 -0.9344 -0.6197
 2482TIP3    H128861   3.434   1.600  16.920  0.9374 -0.0633 -0.8772
 2482TIP3    H228862   3.435   1.710  16.816 -0.6882  1.3888  0.5635
 2483TIP3   OH228863   3.200   4.330  12.615  0.0719  0.3771 -0.4867
 2483TIP3    H128864   3.170   4.240  12.627  2.8673 -0.6156 -0.0695
 2483TIP3    H228865   3.215   4.338  12.520  1.5608 -0.2800 -0.3361
 2484TIP3   OH228866   0.603   2.417  14.258 -0.6476 -0.6436 -0.2675
 2484TIP3    H128867   0.534   2.419  14.192 -2.4746 -0.3710  1.5275
 2484TIP3    H228868   0.556   2.427  14.341  1.4057 -2.0969  1.1698
 2485TIP3   OH228869   0.548   2.919   4.323 -0.0156  0.1977  0.1423
 2485TIP3    H128870   0.537   2.867   4.243  1.1136  1.0288 -0.5879
 2485TIP3    H228871   0.527   3.009   4.297  1.1838  0.6166  0.5357
 2486TIP3   OH228872   1.528   1.595   2.977 -0.1060 -0.1332  0.1849
 2486TIP3    H128873   1.602   1.640   2.936 -0.9848  1.5216  0.3181
 2486TIP3    H228874   1.567   1.544   3.048  0.6877  3.0635  2.2408
 2487TIP3   OH228875   4.155   0.675  12.076 -0.4798  0.3560 -0.0731
 2487TIP3    H128876   4.194   0.662  12.163  0.3154  0.8069 -0.3523
 2487TIP3    H228877   4.190   0.759  12.047 -0.2048 -0.1032 -1.1156
 2488TIP3   OH228878   5.841   6.531  16.334  0.4580 -1.1522  0.1043
 2488TIP3    H128879   5.827   6.558  16.243 -0.7137  1.5285  0.9824
 2488TIP3    H228880   5.756   6.497  16.362  0.5158 -0.9827  0.4926
 2489TIP3   OH228881   0.315   2.643  16.109  0.5694  0.1735 -0.2954
 2489TIP3    H128882   0.394   2.681  16.069  0.6017  2.5238  1.7582
 2489TIP3    H228883   0.347   2.600  16.188 -0.1565  1.0512  0.4984
 2490TIP3   OH228884   2.132   0.652  16.573  0.6485 -0.0316 -0.1398
 2490TIP3    H128885   2.060   0.658  16.636  1.5185  2.1739  0.7400
 2490TIP3    H228886   2.211   0.665  16.625  1.3761  2.1667 -1.6620
 2491TIP3   OH228887   3.828   5.386  14.314 -0.9550 -0.4405  0.1088
 2491TIP3    H128888   3.809   5.293  14.323 -0.5017 -0.6332 -0.8302
 2491TIP3    H228889   3.758   5.421  14.259 -0.8939 -0.3064  0.1152
 2492TIP3   OH228890   5.761   1.902  14.601 -0.4854 -0.2931  0.2321
 2492TIP3    H128891   5.812   1.941  14.672  0.6683 -1.9128  0.3462
 2492TIP3    H228892   5.815   1.830  14.570 -1.7215 -0.6461 -1.1985
 2493TIP3   OH228893   3.738   0.589   3.885  0.5824 -0.2405 -0.3127
 2493TIP3    H128894   3.648   0.576   3.857  0.9852  0.7404 -2.2200
 2493TIP3    H228895   3.790   0.575   3.806  2.1316 -0.9349  0.7819
 2494TIP3   OH228896   2.140   1.794   2.248  0.1247  0.4320 -0.2408
 2494TIP3    H128897   2.133   1.820   2.340 -0.5770  0.0997 -0.1961
 2494TIP3    H228898   2.228   1.822   2.222  0.3378  0.5039  0.5370
 2495TIP3   OH228899   5.961   1.173  14.053 -0.6001 -0.0847  0.1096
 2495TIP3    H128900   5.969   1.206  13.964 -0.3767 -1.2788 -0.3349
 2495TIP3    H228901   6.045   1.195  14.094 -1.1490  1.5216  0.4120
 2496TIP3   OH228902   4.881   4.225  12.970 -1.0217 -0.2973  0.3157
 2496TIP3    H128903   4.949   4.264  12.914 -0.4172  0.0223  1.2598
 2496TIP3    H228904   4.855   4.145  12.923 -0.4756 -0.0797 -0.3846
 2497TIP3   OH228905   1.085   1.145   4.759 -0.5427  0.5780 -0.4104
 2497TIP3    H128906   1.004   1.186   4.789 -0.8873  0.6693 -1.4270
 2497TIP3    H228907   1.138   1.134   4.838 -1.3978  0.8538  0.2057
 2498TIP3   OH228908   5.996   0.217   1.409 -0.5691 -0.0354 -0.3885
 2498TIP3    H128909   5.916   0.213   1.461  0.4616 -0.6726  1.2369
 2498TIP3    H228910   5.968   0.191   1.321 -2.5800  2.1562 -0.4937
 2499TIP3   OH228911   4.811   4.123  10.448 -0.1671 -0.8649 -0.3364
 2499TIP3    H128912   4.870   4.193  10.417 -0.0861 -0.3262  0.9521
 2499TIP3    H228913   4.801   4.141  10.542 -2.2055 -1.0854 -0.4684
 2500TIP3   OH228914   0.659   0.056   4.605 -0.4824  0.3310 -0.1857
 2500TIP3    H128915   0.617   0.014   4.530 -0.2495 -0.8438  0.3136
 2500TIP3    H228916   0.695   0.138   4.570  0.7846 -0.8006 -1.6728
 2501TIP3   OH228917   4.285   6.429   3.517  0.0803  0.0693  0.3761
 2501TIP3    H128918   4.340   6.482   3.459  0.1624  0.6240  0.9569
 2501TIP3    H228919   4.342   6.407   3.591 -1.1273  2.7689  2.2523
 2502TIP3   OH228920   4.802   0.976   0.865 -0.0048  0.4617  0.3372
 2502TIP3    H128921   4.777   1.024   0.785 -0.4414 -0.8798 -0.3595
 2502TIP3    H228922   4.719   0.953   0.906  0.1040 -1.4365 -0.4166
 2503TIP3   OH228923   0.819   0.603   4.641  0.0644 -0.1212 -0.2218
 2503TIP3    H128924   0.751   0.628   4.579  0.8954  0.6053 -0.8573
 2503TIP3    H228925   0.900   0.609   4.592  0.6021 -1.0104  0.5150
 2504TIP3   OH228926   2.103   0.241   4.049 -0.6066 -0.5234  0.9135
 2504TIP3    H128927   2.127   0.305   3.981  2.1721 -2.0837  0.2622
 2504TIP3    H228928   2.045   0.179   4.005  1.5797 -1.8177 -0.3348
 2505TIP3   OH228929   1.515   1.815  12.796 -1.1314  0.2273  0.4896
 2505TIP3    H128930   1.476   1.893  12.834 -1.4509  0.7734 -0.8884
 2505TIP3    H228931   1.498   1.822  12.702 -0.3384 -1.0266  0.2107
 2506TIP3   OH228932   2.934   0.071  16.863 -0.2668  0.1789  0.0620
 2506TIP3    H128933   2.848   0.096  16.896 -0.9319 -0.6030 -1.0132
 2506TIP3    H228934   2.994   0.137  16.900 -1.4736  1.3861 -0.0362
 2507TIP3   OH228935   0.519   4.446   3.508  0.3810  0.1961 -0.2378
 2507TIP3    H128936   0.572   4.511   3.461  1.2455 -0.1068  0.2789
 2507TIP3    H228937   0.508   4.375   3.445  1.0414  0.0424 -0.1950
 2508TIP3   OH228938   0.975   1.680   6.058 -0.4499 -0.0213 -0.1613
 2508TIP3    H128939   1.030   1.635   6.121  0.9268  0.5815 -0.8702
 2508TIP3    H228940   0.887   1.679   6.096 -0.0076 -1.2682  0.8733
 2509TIP3   OH228941   0.206   6.700  14.374  0.3110 -0.1698  0.1631
 2509TIP3    H128942   0.138   6.735  14.431 -0.6116  0.5267 -1.3213
 2509TIP3    H228943   0.282   6.757  14.390 -0.4480  1.0733 -0.4774
 2510TIP3   OH228944   1.382   2.493   5.065 -0.2701  0.4572 -0.1673
 2510TIP3    H128945   1.384   2.587   5.082 -0.5796  0.5601 -0.6993
 2510TIP3    H228946   1.457   2.476   5.009 -1.0195  0.6251 -1.2479
 2511TIP3   OH228947   6.151   4.245   5.576  0.0952 -0.0799  0.3951
 2511TIP3    H128948   6.067   4.288   5.592 -1.4437 -2.8583  0.6131
 2511TIP3    H228949   6.149   4.167   5.632  2.8910 -0.2047  0.4582
 2512TIP3   OH228950   6.420   1.192   0.411  0.3151  0.3188 -0.3155
 2512TIP3    H128951   6.417   1.231   0.498  1.0121 -0.8293  0.2484
 2512TIP3    H228952   6.478   1.117   0.421 -2.8443 -2.4106 -0.7218
 2513TIP3   OH228953   5.887   4.379   5.626 -0.0188 -0.6754 -0.4995
 2513TIP3    H128954   5.889   4.386   5.530  2.2344  1.1048 -0.4101
 2513TIP3    H228955   5.795   4.388   5.649 -0.8818 -3.0772 -2.5570
 2514TIP3   OH228956   5.071   5.926   2.705  0.4620  0.4866  0.7688
 2514TIP3    H128957   5.136   5.857   2.694  2.0214  1.0261  4.8287
 2514TIP3    H228958   5.118   6.007   2.683 -0.3248  0.5817 -0.6915
 2515TIP3   OH228959   5.660   0.174  16.565  0.1199  0.5083 -0.2710
 2515TIP3    H128960   5.575   0.217  16.557 -0.4464 -0.4867  0.1581
 2515TIP3    H228961   5.724   0.245  16.559 -0.7840  1.4423  0.7418
 2516TIP3   OH228962   5.383   1.070  11.781 -0.2878 -0.3052  0.5512
 2516TIP3    H128963   5.294   1.095  11.757 -0.9744 -1.1167  2.1298
 2516TIP3    H228964   5.411   1.010  11.712 -0.2594  1.3034 -0.9009
 2517TIP3   OH228965   0.166   4.325   1.019 -0.4932  0.0195 -0.0138
 2517TIP3    H128966   0.075   4.306   1.040 -0.0400 -0.3518  1.7216
 2517TIP3    H228967   0.171   4.420   1.018 -1.1164  0.0652 -1.2397
 2518TIP3   OH228968   3.523   3.137  13.054  0.2983  0.3390 -0.2145
 2518TIP3    H128969   3.481   3.101  13.132 -2.7414  0.9719 -1.4034
 2518TIP3    H228970   3.582   3.204  13.088 -0.2693  0.0032  1.5684
 2519TIP3   OH228971   2.263   2.761  12.803  0.6783  0.1218 -0.6981
 2519TIP3    H128972   2.307   2.817  12.867  0.0555 -0.2677  0.0803
 2519TIP3    H228973   2.170   2.766  12.825  0.3147  0.8008 -2.2234
 2520TIP3   OH228974   1.183   2.716   6.211 -0.2983  0.9475 -0.6055
 2520TIP3    H128975   1.125   2.785   6.245 -0.0493 -0.3897  3.0344
 2520TIP3    H228976   1.138   2.634   6.233  2.5274 -0.1406  1.8810
 2521TIP3   OH228977   6.271   5.047  10.451  0.3149 -0.4338 -0.4551
 2521TIP3    H128978   6.199   4.999  10.492  0.9358 -0.1744  1.0009
 2521TIP3    H228979   6.346   5.033  10.509  1.0242  0.6370 -1.0682
 2522TIP3   OH228980   5.348   1.299   5.243  0.0336  0.3044  0.2303
 2522TIP3    H128981   5.272   1.261   5.287  0.1401 -0.3622 -0.1439
 2522TIP3    H228982   5.311   1.343   5.166  0.1375 -1.3174 -0.8056
 2523TIP3   OH228983   0.836   3.046   2.249 -0.5323  0.4012  0.6580
 2523TIP3    H128984   0.928   3.019   2.251 -1.1160 -1.6786  1.4739
 2523TIP3    H228985   0.803   3.016   2.165 -1.0401 -0.9777  1.3312
 2524TIP3   OH228986   5.507   3.253   3.214  0.2593 -0.0538  0.4433
 2524TIP3    H128987   5.578   3.317   3.215  1.0142 -0.7546 -2.1328
 2524TIP3    H228988   5.551   3.168   3.217 -0.6421 -0.5218  1.6765
 2525TIP3   OH228989   1.126   1.533   6.235  0.0669 -0.0547 -0.1073
 2525TIP3    H128990   1.078   1.485   6.304  0.6893  1.5621  1.5233
 2525TIP3    H228991   1.218   1.518   6.255  0.2964 -1.2315 -1.8523
 2526TIP3   OH228992   6.391   0.045   2.298  0.0404  0.2368  0.0520
 2526TIP3    H128993   6.422   0.105   2.365 -0.5537  0.4204  0.1624
 2526TIP3    H228994   6.321  -0.005   2.340 -2.2064  2.1447 -1.1304
 2527TIP3   OH228995   0.740   0.199  14.580 -1.1423  0.2412  0.5240
 2527TIP3    H128996   0.686   0.121  14.583 -3.4056  1.7190  0.8808
 2527TIP3    H228997   0.752   0.217  14.487 -1.1092 -0.1957  0.4444
 2528TIP3   OH228998   1.295   5.648  14.083 -0.4767  0.1251 -0.4478
 2528TIP3    H128999   1.231   5.643  14.154 -0.1552  0.8583 -0.0881
 2528TIP3    H229000   1.253   5.606  14.009 -1.4851  0.8265 -0.2933
 2529TIP3   OH229001   2.904   2.586   2.677  0.3896 -0.1559  0.6548
 2529TIP3    H129002   2.970   2.610   2.742  1.0924  1.0104 -0.4254
 2529TIP3    H229003   2.824   2.631   2.706  1.0235  1.4168  0.0691
 2530TIP3   OH229004   2.315   4.681  12.237 -0.2345 -0.1044 -0.0824
 2530TIP3    H129005   2.232   4.662  12.281  0.4135  1.6567  2.0779
 2530TIP3    H229006   2.293   4.753  12.177 -0.4507 -0.2741 -0.2102
 2531TIP3   OH229007   2.969   1.428  13.929  0.0963 -0.2491 -0.8315
 2531TIP3    H129008   2.888   1.389  13.895 -0.6774 -1.3185  1.9708
 2531TIP3    H229009   2.971   1.403  14.022  2.6149  1.4946 -0.3092
 2532TIP3   OH229010   5.115   0.881   2.036  0.1763 -0.0278 -0.9710
 2532TIP3    H129011   5.037   0.892   1.981 -0.3012  2.0509  0.0124
 2532TIP3    H229012   5.139   0.789   2.026 -2.2042 -0.6511 -1.5849
 2533TIP3   OH229013   5.681   0.352   3.800 -0.5425 -0.3711  0.2707
 2533TIP3    H129014   5.667   0.358   3.706 -2.3417  1.7232  0.5949
 2533TIP3    H229015   5.613   0.409   3.838 -0.3427 -1.7212  2.8638
 2534TIP3   OH229016   3.044   5.275  13.478 -0.1197 -1.1782  0.1191
 2534TIP3    H129017   2.968   5.325  13.509 -1.5014 -3.1098  0.0476
 2534TIP3    H229018   3.116   5.302  13.535 -0.7166  1.0299 -0.0847
 2535TIP3   OH229019   6.376   0.144  14.623 -0.0405 -0.4404  0.2681
 2535TIP3    H129020   6.389   0.086  14.547  0.3368  0.3903 -0.3171
 2535TIP3    H229021   6.458   0.193  14.629 -0.7934  0.8715  0.0193
 2536TIP3   OH229022   5.729   1.178   3.679 -0.1693  0.0509 -0.3028
 2536TIP3    H129023   5.652   1.171   3.734 -0.5126 -0.2654 -0.8086
 2536TIP3    H229024   5.737   1.092   3.637 -1.0488  0.8291 -2.2059
 2537TIP3   OH229025   4.783   6.710   2.684 -0.1041  1.0019  0.1033
 2537TIP3    H129026   4.775   6.762   2.764 -0.8204 -1.0981  1.4907
 2537TIP3    H229027   4.756   6.622   2.710 -0.9157  0.3513 -2.6122
 2538TIP3   OH229028   1.348   5.218   4.093  0.4591 -0.3908 -0.4495
 2538TIP3    H129029   1.286   5.264   4.149  0.3270 -1.2705  0.1373
 2538TIP3    H229030   1.334   5.125   4.111 -0.0128 -0.7452 -2.3662
 2539TIP3   OH229031   3.385   0.244   0.595  0.3150 -0.9999  0.1967
 2539TIP3    H129032   3.451   0.310   0.574 -0.7682  0.3439  0.8429
 2539TIP3    H229033   3.314   0.293   0.638 -0.7213 -2.5189  0.3219
 2540TIP3   OH229034   2.231   6.022  15.080  0.0623 -0.3271  0.3205
 2540TIP3    H129035   2.259   5.944  15.129 -0.3440  0.1514  1.3444
 2540TIP3    H229036   2.307   6.079  15.080 -0.5774  0.6442  2.4345
 2541TIP3   OH229037   2.106   5.835   1.155  0.4153  0.2372  0.2107
 2541TIP3    H129038   2.123   5.777   1.229 -0.1239  0.2602  0.3582
 2541TIP3    H229039   2.153   5.916   1.176 -0.1669  0.4321  0.7844
 2542TIP3   OH229040   2.774   2.277  16.904 -0.2902 -0.3194  0.7111
 2542TIP3    H129041   2.726   2.273  16.822  0.7129 -0.0753  0.0928
 2542TIP3    H229042   2.838   2.347  16.892 -0.4516  0.0587  1.8849
 2543TIP3   OH229043   6.494   2.025   4.029 -0.2020 -0.2103 -0.0669
 2543TIP3    H129044   6.498   2.120   4.042  0.0235 -0.4015  1.3760
 2543TIP3    H229045   6.401   2.004   4.036 -0.1933 -0.1690  0.1695
 2544TIP3   OH229046   6.367   3.150   2.898 -0.0576  0.2568  0.2521
 2544TIP3    H129047   6.337   3.093   2.828 -1.2357  1.5401 -0.3198
 2544TIP3    H229048   6.462   3.157   2.884 -0.0602 -0.6767 -0.3107
 2545TIP3   OH229049   2.722   5.951   5.327 -0.0514 -0.0912  0.3152
 2545TIP3    H129050   2.691   5.983   5.243  0.4858  0.6536  0.3953
 2545TIP3    H229051   2.657   5.885   5.353 -0.5399  0.1037 -0.3901
 2546TIP3   OH229052   6.097   5.736  14.147  0.2900 -0.4624 -0.1007
 2546TIP3    H129053   6.129   5.658  14.194 -0.1293 -0.0600  0.8844
 2546TIP3    H229054   6.174   5.770  14.102  1.2740  0.4148  2.1093
 2547TIP3   OH229055   4.310   5.957  11.059  0.1034 -0.8267  0.4259
 2547TIP3    H129056   4.301   5.864  11.038  1.6062 -0.6245 -1.2872
 2547TIP3    H229057   4.253   6.002  10.996  0.5741 -0.5027  0.2298
 2548TIP3   OH229058   2.840   1.621  16.256  0.1175 -0.0307  0.2671
 2548TIP3    H129059   2.847   1.686  16.325 -1.5395 -2.0116  2.4600
 2548TIP3    H229060   2.800   1.668  16.182 -1.1934  1.4022  1.8164
 2549TIP3   OH229061   0.360   6.161  14.773 -0.3524 -0.5888 -0.0025
 2549TIP3    H129062   0.450   6.188  14.793  1.3695 -4.4125 -1.6039
 2549TIP3    H229063   0.340   6.092  14.837 -1.6281 -0.7420 -0.5332
 2550TIP3   OH229064   2.821   4.507   2.316  0.7448  0.3586 -0.0894
 2550TIP3    H129065   2.875   4.527   2.240  2.3845  2.3841  1.4748
 2550TIP3    H229066   2.876   4.449   2.369 -0.2673 -0.8073 -0.2813
 2551TIP3   OH229067   1.438   3.835   0.021  0.1571 -0.1258 -0.5050
 2551TIP3    H129068   1.344   3.813   0.020 -0.0210  0.2433  2.0042
 2551TIP3    H229069   1.478   3.768   0.076  0.4214  2.6019  2.9753
 2552TIP3   OH229070   2.488   5.683  12.450  0.0754 -0.3010  0.1857
 2552TIP3    H129071   2.508   5.769  12.412  0.5988 -0.3769  0.2774
 2552TIP3    H229072   2.396   5.689  12.476 -0.0423  0.0483 -0.2995
 2553TIP3   OH229073   2.197   5.516  12.933  0.2849  0.4706 -0.3866
 2553TIP3    H129074   2.285   5.479  12.926 -0.5827 -1.6643 -1.0509
 2553TIP3    H229075   2.140   5.439  12.942 -1.6151  1.7113 -1.2117
 2554TIP3   OH229076   5.422   3.382  12.188 -0.3766 -0.4238 -0.3305
 2554TIP3    H129077   5.398   3.466  12.148 -2.1384 -0.8764 -0.3039
 2554TIP3    H229078   5.467   3.406  12.269 -0.3256  0.4935 -0.6185
 2555TIP3   OH229079   1.232   3.636  12.182 -0.4172 -0.2456  0.4564
 2555TIP3    H129080   1.169   3.588  12.235  1.0133 -0.7563  1.7354
 2555TIP3    H229081   1.301   3.662  12.243  0.4606  0.5952 -0.8390
 2556TIP3   OH229082   0.650   5.709   4.917  0.7418  0.5272 -0.1847
 2556TIP3    H129083   0.634   5.615   4.908  1.2324  0.4769 -0.6121
 2556TIP3    H229084   0.566   5.746   4.945  1.1520 -0.3495  2.5073
 2557TIP3   OH229085   1.487   0.537  13.250 -0.4857 -0.1376  0.1341
 2557TIP3    H129086   1.407   0.526  13.302  0.0310  0.6449  1.1168
 2557TIP3    H229087   1.487   0.629  13.225  0.6399  0.1326  1.0500
 2558TIP3   OH229088   2.028   0.222   1.820  0.6384  0.5729  0.2277
 2558TIP3    H129089   2.094   0.170   1.866  1.4346 -0.1272 -1.5784
 2558TIP3    H229090   2.004   0.291   1.881  3.4453  1.1566  0.8214
 2559TIP3   OH229091   2.093   5.902  16.277  0.2164  0.1783 -0.4355
 2559TIP3    H129092   2.094   5.920  16.371 -0.3370 -3.2574  0.3609
 2559TIP3    H229093   2.183   5.875  16.257  0.5876  1.8299 -1.1808
 2560TIP3   OH229094   2.960   2.894  12.893 -1.0811 -0.6369 -0.2474
 2560TIP3    H129095   3.011   2.860  12.967 -0.9068 -0.7604 -0.4228
 2560TIP3    H229096   3.024   2.941  12.839 -1.1531 -0.7900 -0.4676
 2561TIP3   OH229097   1.603   6.515  15.705  0.3285  0.0289 -0.3001
 2561TIP3    H129098   1.693   6.509  15.671  0.2645  1.0207 -0.6856
 2561TIP3    H229099   1.604   6.462  15.785  0.5559 -2.1498 -1.6698
 2562TIP3   OH229100   4.845   1.066  14.503  0.4829 -0.5070 -0.0819
 2562TIP3    H129101   4.929   1.105  14.479  0.0579 -0.9825 -2.6666
 2562TIP3    H229102   4.780   1.125  14.465 -0.3264 -0.8517  0.7373
 2563TIP3   OH229103   3.536   4.930   2.691 -0.2287  0.3764  0.4122
 2563TIP3    H129104   3.575   4.948   2.777 -0.5521  1.4737  0.3426
 2563TIP3    H229105   3.583   4.988   2.631 -1.0730  0.7703  0.1181
 2564TIP3   OH229106   3.192   3.011   0.991  0.1633  0.3448 -0.1613
 2564TIP3    H129107   3.118   3.067   1.014  1.3965  1.2769  1.8143
 2564TIP3    H229108   3.189   3.005   0.896 -1.8230  1.1978 -0.2047
 2565TIP3   OH229109   0.124   0.585   1.836 -0.4562 -0.5406  0.0087
 2565TIP3    H129110   0.047   0.598   1.780 -0.8914  0.8354  0.8673
 2565TIP3    H229111   0.088   0.550   1.918 -0.3281  0.9645  0.7509
 2566TIP3   OH229112   6.297   5.053  16.374 -0.5473  0.6130  0.2767
 2566TIP3    H129113   6.377   5.005  16.352  0.0364  1.7112 -0.0706
 2566TIP3    H229114   6.231   4.984  16.388  0.5523 -0.3260  1.0293
 2567TIP3   OH229115   4.238   5.439   3.660 -0.1025 -0.0573  0.3609
 2567TIP3    H129116   4.155   5.470   3.695  0.3341  2.4271 -0.6393
 2567TIP3    H229117   4.249   5.485   3.577  3.4716  1.8017  1.6421
 2568TIP3   OH229118   1.467   0.627   4.300 -0.6888  0.0554 -0.4252
 2568TIP3    H129119   1.427   0.654   4.217 -1.7013 -0.9245 -0.2837
 2568TIP3    H229120   1.461   0.704   4.357 -2.7814 -0.1854 -0.2769
 2569TIP3   OH229121   2.344   2.452  14.877  0.6592  0.3880  0.5295
 2569TIP3    H129122   2.367   2.359  14.885 -0.3628 -0.1169 -1.4875
 2569TIP3    H229123   2.267   2.463  14.932  0.7916  0.0241  0.7884
 2570TIP3   OH229124   2.430   1.562  10.757  0.1659  0.1675 -0.0891
 2570TIP3    H129125   2.428   1.581  10.851  1.2213  0.4609 -0.1052
 2570TIP3    H229126   2.338   1.559  10.731 -0.1349  1.5456  0.6761
 2571TIP3   OH229127   3.062   3.146   3.143  0.7024 -0.4903 -0.2261
 2571TIP3    H129128   3.025   3.062   3.172 -0.0884  0.8011  2.9291
 2571TIP3    H229129   2.986   3.197   3.118  0.9310  0.0670  0.1999
 2572TIP3   OH229130   1.893   3.557   6.194 -0.7840 -0.3567  0.0517
 2572TIP3    H129131   1.913   3.650   6.205 -2.2556  0.5791 -3.5957
 2572TIP3    H229132   1.804   3.549   6.228 -0.3582 -0.6579  1.1215
 2573TIP3   OH229133   5.125   4.070   0.935 -0.2571 -0.4001  0.5905
 2573TIP3    H129134   5.171   4.127   0.873 -0.2640  1.4130  2.1653
 2573TIP3    H229135   5.068   4.016   0.880  1.6612 -0.7701 -1.1898
 2574TIP3   OH229136   3.808   0.682  14.559 -0.4147  0.0709 -0.3165
 2574TIP3    H129137   3.837   0.759  14.510  0.4908 -0.9033 -1.3623
 2574TIP3    H229138   3.818   0.707  14.651  1.1635  0.7406 -0.6369
 2575TIP3   OH229139   4.246   3.271   4.693  0.4941 -0.2377  0.2743
 2575TIP3    H129140   4.261   3.240   4.604  1.8453 -0.6808  0.6417
 2575TIP3    H229141   4.158   3.241   4.714  0.9363 -1.9430 -0.1788
 2576TIP3   OH229142   5.440   0.857  10.569 -0.4560  0.3175  0.0065
 2576TIP3    H129143   5.499   0.848  10.644 -0.4776 -0.8483 -0.0993
 2576TIP3    H229144   5.488   0.817  10.497 -0.3352  1.6430 -0.6822
 2577TIP3   OH229145   2.890   0.497   4.472 -0.1412 -0.4225 -0.8781
 2577TIP3    H129146   2.984   0.490   4.453 -0.2802 -1.2109 -1.3098
 2577TIP3    H229147   2.880   0.584   4.511  0.7237 -0.2201 -1.0867
 2578TIP3   OH229148   2.069   1.952  14.594 -0.1402  0.2491 -0.6487
 2578TIP3    H129149   2.136   1.987  14.653  0.0269 -1.5526  0.2891
 2578TIP3    H229150   2.118   1.896  14.533 -0.6805 -0.4533 -0.4523
 2579TIP3   OH229151   2.500   5.878   6.377  0.7225 -0.0003  0.7697
 2579TIP3    H129152   2.475   5.788   6.354 -0.4510  0.5079 -0.0080
 2579TIP3    H229153   2.420   5.929   6.366  1.4618  1.2131  0.8389
 2580TIP3   OH229154   2.450   6.704  13.766  0.0355  0.1440  0.0050
 2580TIP3    H129155   2.399   6.677  13.843 -1.5859  1.0026 -0.7165
 2580TIP3    H229156   2.461   6.799  13.777 -0.5464  0.3327 -1.0051
 2581TIP3   OH229157   6.607   4.527   3.541  0.3203 -0.6876  0.0014
 2581TIP3    H129158   6.527   4.478   3.560 -1.8613  1.5380 -2.7673
 2581TIP3    H229159   6.592   4.613   3.579  2.5057 -0.8546  1.4649
 2582TIP3   OH229160   2.279   5.880  15.952  0.6688  0.1330  0.0321
 2582TIP3    H129161   2.315   5.893  16.039  1.8042 -2.1285 -0.0266
 2582TIP3    H229162   2.196   5.834  15.967  1.5808 -1.6466 -0.0520
 2583TIP3   OH229163   4.922   3.902   2.792 -0.2850 -0.4575 -0.1939
 2583TIP3    H129164   4.951   3.881   2.703  1.3310 -0.2104  0.2348
 2583TIP3    H229165   4.890   3.820   2.827  0.7019 -0.9691 -0.4397
 2584TIP3   OH229166   1.199   1.804  13.092  0.0449  0.3518  0.4372
 2584TIP3    H129167   1.177   1.852  13.013  1.1491 -0.2623 -0.2690
 2584TIP3    H229168   1.136   1.834  13.157 -0.0448  1.8417 -0.3126
 2585TIP3   OH229169   6.235   5.770  11.909 -0.1103 -0.0872 -0.5333
 2585TIP3    H129170   6.283   5.710  11.967  0.3249  0.0824 -0.7138
 2585TIP3    H229171   6.293   5.846  11.900 -0.7307  0.4326 -0.1767
 2586TIP3   OH229172   6.418   0.138   6.298 -0.3468 -0.4381 -0.6967
 2586TIP3    H129173   6.459   0.073   6.355  2.4990  0.0382 -2.0198
 2586TIP3    H229174   6.431   0.104   6.210 -1.0437  0.7464 -1.2818
 2587TIP3   OH229175   4.136   1.443   5.402 -0.1596  0.1193  0.0759
 2587TIP3    H129176   4.190   1.454   5.480 -1.3355  2.4831  0.6485
 2587TIP3    H229177   4.200   1.433   5.331  0.9462 -0.9057  1.1709
 2588TIP3   OH229178   5.669   2.271  13.927 -0.3340  0.0354 -0.5595
 2588TIP3    H129179   5.744   2.256  13.868 -0.7804  0.2978 -1.1979
 2588TIP3    H229180   5.656   2.365  13.925  0.6444  0.2505  1.2166
 2589TIP3   OH229181   0.358   6.202  14.507 -0.4105  0.6573 -0.5999
 2589TIP3    H129182   0.360   6.162  14.595 -0.3239 -0.5397 -1.1233
 2589TIP3    H229183   0.270   6.236  14.499 -0.8323 -0.3680 -0.5141
 2590TIP3   OH229184   2.558   3.347   5.869  0.0886  0.0063 -1.1984
 2590TIP3    H129185   2.574   3.432   5.827  0.5537  0.4409 -0.1771
 2590TIP3    H229186   2.464   3.332   5.857 -0.6582  2.0821  1.0762
 2591TIP3   OH229187   3.361   6.440  10.632 -0.3687  0.6838 -0.1703
 2591TIP3    H129188   3.284   6.478  10.590 -0.3455  1.3040  0.3339
 2591TIP3    H229189   3.424   6.428  10.561 -0.1704  2.1377 -0.2724
 2592TIP3   OH229190   4.146   1.559  14.564 -0.1775 -0.3009  0.4562
 2592TIP3    H129191   4.116   1.495  14.499 -0.3129  0.1802  0.0323
 2592TIP3    H229192   4.144   1.512  14.647 -1.8443 -0.3704  0.4079
 2593TIP3   OH229193   0.045   3.338   3.564  0.4765  0.2963 -0.4590
 2593TIP3    H129194  -0.034   3.346   3.618  1.1532  2.9638  0.2737
 2593TIP3    H229195   0.097   3.271   3.608 -0.0376  0.7200  0.8436
 2594TIP3   OH229196   3.825   0.331  13.857 -0.0638 -0.5677 -0.2423
 2594TIP3    H129197   3.902   0.356  13.807  0.7177  0.2309  1.2838
 2594TIP3    H229198   3.778   0.413  13.872  0.6204 -0.4760  1.7318
 2595TIP3   OH229199   2.487   1.995  16.226  0.6169  0.0156 -0.5689
 2595TIP3    H129200   2.496   1.957  16.314  1.5415 -0.3066 -0.7938
 2595TIP3    H229201   2.436   1.930  16.177 -2.5961  1.5266  0.5132
 2596TIP3   OH229202   4.986   2.412   0.539  0.5693  0.4934 -0.6690
 2596TIP3    H129203   4.935   2.371   0.609  0.0263  0.5568 -1.0246
 2596TIP3    H229204   5.077   2.387   0.558  0.4491  0.6618  0.1615
 2597TIP3   OH229205   0.304   0.914  16.484 -0.3011  0.0628  0.1662
 2597TIP3    H129206   0.209   0.917  16.479 -0.5979 -0.7866  3.4169
 2597TIP3    H229207   0.330   1.004  16.507 -0.3757  0.0710  0.2155
 2598TIP3   OH229208   0.289   2.428   3.716  0.3944 -0.2571  0.1028
 2598TIP3    H129209   0.271   2.423   3.622  0.0524  0.5344  0.1204
 2598TIP3    H229210   0.212   2.389   3.758  1.1012 -1.8286  0.0458
 2599TIP3   OH229211   0.331   4.267  15.089 -0.3905 -0.6298 -0.0037
 2599TIP3    H129212   0.368   4.279  15.176  0.5979 -0.0589 -0.4825
 2599TIP3    H229213   0.402   4.290  15.029 -1.6118  0.7928 -0.9660
 2600TIP3   OH229214   6.584   6.801   6.524  0.1337  0.4101 -0.1230
 2600TIP3    H129215   6.547   6.749   6.595  0.9534  0.2173  0.1819
 2600TIP3    H229216   6.672   6.823   6.554  0.3574  0.6443 -0.9179
 2601TIP3   OH229217   2.929   0.347   3.873  1.1068  0.3469  0.4539
 2601TIP3    H129218   2.983   0.366   3.797  0.4002 -2.1576 -0.7808
 2601TIP3    H229219   2.839   0.357   3.843  0.7814 -1.8123  0.5187
 2602TIP3   OH229220   0.780   1.256   4.266  0.0974 -0.8435 -0.0632
 2602TIP3    H129221   0.772   1.278   4.359  1.3402  0.6552 -0.2871
 2602TIP3    H229222   0.702   1.294   4.226 -0.9095 -2.2589  0.4494
 2603TIP3   OH229223   6.332   5.588  12.106  0.2160  0.2158  0.1026
 2603TIP3    H129224   6.371   5.509  12.070 -0.4453 -0.0693 -0.0133
 2603TIP3    H229225   6.240   5.565  12.119  0.2094  0.6710  0.9315
 2604TIP3   OH229226   1.378   4.988  13.799  0.8026  0.1026  0.4395
 2604TIP3    H129227   1.387   4.975  13.894  2.4684 -1.5536  0.1023
 2604TIP3    H229228   1.338   4.908  13.767  0.7521  0.4239 -0.3342
 2605TIP3   OH229229   0.811   3.378  14.989  1.0460  0.1196 -0.2265
 2605TIP3    H129230   0.876   3.448  14.995 -1.1313  2.3131 -0.9003
 2605TIP3    H229231   0.752   3.392  15.063  0.1894 -0.6071 -0.7470
 2606TIP3   OH229232   2.255   1.996   4.475  0.1922  0.1354 -0.2846
 2606TIP3    H129233   2.263   1.996   4.379  2.8944 -0.9786 -0.1410
 2606TIP3    H229234   2.181   1.937   4.493 -0.3880  0.4044 -1.6642
 2607TIP3   OH229235   2.615   5.831   1.519  0.5690 -0.0594  0.1742
 2607TIP3    H129236   2.639   5.882   1.442 -0.0724  0.9529  0.6198
 2607TIP3    H229237   2.667   5.751   1.512  0.8295  0.1966 -1.0807
 2608TIP3   OH229238   2.331   5.521  17.110  0.5059 -0.4009  0.0045
 2608TIP3    H129239   2.401   5.515  17.176 -1.5553 -1.7327  2.2351
 2608TIP3    H229240   2.341   5.608  17.072  2.5066 -0.0304  1.2333
 2609TIP3   OH229241   1.607   2.663   4.971  0.0421  0.1796 -0.0057
 2609TIP3    H129242   1.563   2.710   5.042  0.2023  0.7702 -0.2872
 2609TIP3    H229243   1.698   2.693   4.974 -0.0983  0.7698 -0.8907
 2610TIP3   OH229244   1.791   2.922  11.172 -0.0064 -0.0035 -0.3008
 2610TIP3    H129245   1.830   2.865  11.105 -0.7988 -0.7014 -0.1797
 2610TIP3    H229246   1.796   3.010  11.134  2.5416  0.1194  0.0932
 2611TIP3   OH229247   4.662   0.829  13.174 -0.3139  0.2507 -0.3496
 2611TIP3    H129248   4.686   0.737  13.183 -0.6274  0.0054 -1.7898
 2611TIP3    H229249   4.740   0.877  13.204  0.4133 -0.5112 -0.9555
 2612TIP3   OH229250   2.505   4.318   4.919  0.3110 -0.1801 -0.2914
 2612TIP3    H129251   2.423   4.334   4.874  0.6631  2.2427 -0.1812
 2612TIP3    H229252   2.512   4.388   4.983  2.4599 -0.3312 -0.2838
 2613TIP3   OH229253   6.548   3.391  15.740 -0.0213  0.1573  0.8245
 2613TIP3    H129254   6.600   3.469  15.717 -0.1122  0.3981  1.4007
 2613TIP3    H229255   6.613   3.321  15.750  0.0082  0.0202 -0.2342
 2614TIP3   OH229256   3.106   1.324   6.236 -0.2158  0.1271  0.0904
 2614TIP3    H129257   3.180   1.298   6.180  1.7740  1.4165  1.9700
 2614TIP3    H229258   3.051   1.246   6.239  0.1078 -0.3477 -2.7551
 2615TIP3   OH229259   5.413   1.891  12.357  0.0349  0.3529 -0.3885
 2615TIP3    H129260   5.327   1.934  12.360 -0.5253 -0.5559 -1.8701
 2615TIP3    H229261   5.464   1.943  12.295  0.0056 -0.0064 -0.7208
 2616TIP3   OH229262   1.592   1.425   3.187  0.2985 -0.0226  0.0422
 2616TIP3    H129263   1.591   1.330   3.201  2.1941 -0.1609 -0.4298
 2616TIP3    H229264   1.625   1.461   3.270 -0.0417  0.2015  0.0836
 2617TIP3   OH229265   0.796   5.637  15.150 -0.0819 -0.6176 -0.4157
 2617TIP3    H129266   0.800   5.543  15.137  1.4323 -0.4114 -1.8129
 2617TIP3    H229267   0.871   5.672  15.100 -1.0415  1.3769 -0.5784
 2618TIP3   OH229268   4.270   0.879  12.312 -0.1627 -0.2491 -0.1900
 2618TIP3    H129269   4.176   0.886  12.331 -0.8510 -2.0074 -2.4364
 2618TIP3    H229270   4.282   0.787  12.286  1.5432  0.6060 -2.8360
 2619TIP3   OH229271   1.956   2.105   5.066 -0.5136 -0.2522 -0.6608
 2619TIP3    H129272   1.996   2.037   5.012 -1.6366 -1.8069  0.3692
 2619TIP3    H229273   1.870   2.120   5.027 -0.6420 -0.1061 -0.3310
 2620TIP3   OH229274   1.905   6.211  14.153  0.3838  0.2963  0.2764
 2620TIP3    H129275   1.891   6.263  14.074  1.2079  1.1963  0.7201
 2620TIP3    H229276   1.837   6.143  14.148  0.6344  0.1178 -1.3736
 2621TIP3   OH229277   2.224   1.166   4.774 -0.3544 -0.2617  0.1014
 2621TIP3    H129278   2.312   1.202   4.763 -0.4501 -0.2771 -0.8197
 2621TIP3    H229279   2.182   1.223   4.839  0.0962  0.1850  0.0077
 2622TIP3   OH229280   4.296   6.786  14.244  0.1520  0.8716 -0.2497
 2622TIP3    H129281   4.350   6.783  14.166 -0.5754 -2.4641 -0.7853
 2622TIP3    H229282   4.357   6.772  14.317  0.3073 -1.3943 -0.7347
 2623TIP3   OH229283   2.863   5.603  12.393 -0.0885 -0.0249  0.0129
 2623TIP3    H129284   2.815   5.620  12.311 -1.1920  0.8816  0.8183
 2623TIP3    H229285   2.904   5.517  12.379 -0.0459  0.2137 -1.5746
 2624TIP3   OH229286   3.267   6.735   4.633  0.2462  0.6823 -0.8055
 2624TIP3    H129287   3.174   6.748   4.611  0.4704 -0.3944 -2.5830
 2624TIP3    H229288   3.291   6.815   4.680 -1.2614  1.5786 -1.4639
 2625TIP3   OH229289   3.133   5.891   1.271  0.2162 -0.1474  0.2942
 2625TIP3    H129290   3.227   5.898   1.285 -0.0491  1.9810  1.4600
 2625TIP3    H229291   3.122   5.899   1.176  1.1473  0.6985  0.2466
 2626TIP3   OH229292   2.842   5.093   3.263  0.1089 -0.8504 -0.2188
 2626TIP3    H129293   2.887   5.013   3.290  0.7442 -0.4658 -0.1260
 2626TIP3    H229294   2.805   5.072   3.177  1.1207 -0.9224 -0.6488
 2627TIP3   OH229295   5.846   5.189  13.101 -0.1317 -0.4983  0.0193
 2627TIP3    H129296   5.872   5.249  13.171  0.2161 -1.4699  0.7404
 2627TIP3    H229297   5.782   5.238  13.050 -0.0903  0.3699  0.7887
 2628TIP3   OH229298   6.742   6.627  12.342  0.0323 -0.3015 -0.1242
 2628TIP3    H129299   6.778   6.539  12.329 -0.1877 -0.4803  0.4476
 2628TIP3    H229300   6.663   6.629  12.288 -0.9868 -1.1030  1.2620
 2629TIP3   OH229301   6.495   0.867  14.505 -0.2469 -0.3676 -0.2465
 2629TIP3    H129302   6.561   0.798  14.509  1.5782  1.3137  2.3374
 2629TIP3    H229303   6.520   0.920  14.430 -1.4255 -2.1804 -2.0007
 2630TIP3   OH229304   1.543   0.517   1.275 -0.3180 -0.9102  0.4162
 2630TIP3    H129305   1.449   0.522   1.257 -0.6512 -0.5547  2.1391
 2630TIP3    H229306   1.555   0.432   1.318 -0.1199 -0.3168  1.5706
 2631TIP3   OH229307   4.657   4.515   2.167  0.3965  0.9320  0.0969
 2631TIP3    H129308   4.694   4.500   2.079  0.1598  1.7110 -0.1476
 2631TIP3    H229309   4.563   4.524   2.152  0.5017  2.5224  0.2127
 2632TIP3   OH229310   5.693   3.673   2.210  0.4188 -0.2708  0.1491
 2632TIP3    H129311   5.676   3.580   2.199 -1.5813 -0.0302  0.8818
 2632TIP3    H229312   5.759   3.693   2.143  0.2016 -1.9909 -0.6366
 2633TIP3   OH229313   4.649   2.195  15.201 -0.3388 -0.6556 -0.6532
 2633TIP3    H129314   4.724   2.148  15.238 -0.6973 -0.6450  0.1080
 2633TIP3    H229315   4.582   2.188  15.268 -0.6449  0.3009 -0.8551
 2634TIP3   OH229316   0.559   3.050  12.843 -0.3339 -0.4992  0.6145
 2634TIP3    H129317   0.539   3.135  12.802 -1.8527 -0.5863  1.1022
 2634TIP3    H229318   0.644   3.063  12.885 -0.5063  0.7681  0.6227
 2635TIP3   OH229319   4.982   3.177  13.140  0.2124 -0.0729  0.4869
 2635TIP3    H129320   4.892   3.167  13.172 -0.5982  0.6210 -1.4183
 2635TIP3    H229321   4.991   3.110  13.073 -0.0496  1.8549 -1.5934
 2636TIP3   OH229322   0.356   4.195  14.213  0.1869  0.1002  0.3731
 2636TIP3    H129323   0.341   4.280  14.170 -0.5923 -0.2404 -0.0561
 2636TIP3    H229324   0.424   4.212  14.277  1.4112  0.6341 -1.0191
 2637TIP3   OH229325   2.102   6.746   2.220  0.2818  0.1201 -0.4326
 2637TIP3    H129326   2.109   6.658   2.182  2.1124  0.3395 -0.7308
 2637TIP3    H229327   2.190   6.783   2.210 -0.1181  1.5222  0.8231
 2638TIP3   OH229328   5.738   1.432  13.870  0.2249  0.3627 -0.0217
 2638TIP3    H129329   5.672   1.406  13.806  0.6068 -0.1206 -0.2276
 2638TIP3    H229330   5.722   1.526  13.885 -0.0897  0.3965 -0.5595
 2639TIP3   OH229331   3.104   0.246  16.388  0.4666  0.2008 -0.0389
 2639TIP3    H129332   3.169   0.267  16.455  0.6960 -0.1274 -0.1588
 2639TIP3    H229333   3.027   0.298  16.413  0.4463 -0.1473  0.6508
 2640TIP3   OH229334   0.555   2.780   4.585 -0.3990 -0.0105 -0.1363
 2640TIP3    H129335   0.466   2.750   4.606 -0.3584 -0.6578 -0.8454
 2640TIP3    H229336   0.542   2.840   4.512 -0.6387  2.9219  2.1302
 2641TIP3   OH229337   2.596   0.601   5.636 -0.3006  0.1966 -0.2552
 2641TIP3    H129338   2.642   0.667   5.584  2.7160  0.0130  1.9329
 2641TIP3    H229339   2.555   0.650   5.707  1.3636 -0.1199  0.9793
 2642TIP3   OH229340   6.162   5.056   3.619  0.5198  0.5766  0.4036
 2642TIP3    H129341   6.112   5.065   3.700  0.3916  2.2795  0.1854
 2642TIP3    H229342   6.237   5.001   3.643  0.9388  1.7235  1.9158
 2643TIP3   OH229343   3.494   2.707  11.318 -0.1633  0.1055 -0.3572
 2643TIP3    H129344   3.587   2.691  11.303 -0.4576 -0.4422 -1.7932
 2643TIP3    H229345   3.483   2.801  11.302  0.0885  0.1171 -0.4703
 2644TIP3   OH229346   2.845   2.458  12.646 -0.5834 -0.2673 -0.6014
 2644TIP3    H129347   2.930   2.415  12.640  0.1950  1.1828 -0.0973
 2644TIP3    H229348   2.864   2.550  12.663 -2.2627 -0.3780  2.7742
 2645TIP3   OH229349   4.065   4.302  15.824 -0.2247  0.1559  0.2198
 2645TIP3    H129350   3.998   4.273  15.762  1.5919  0.1370 -1.8650
 2645TIP3    H229351   4.056   4.398  15.826  0.7208  0.3317 -1.4503
 2646TIP3   OH229352   6.210   3.573   0.105  0.0494 -0.0249 -0.0784
 2646TIP3    H129353   6.120   3.570   0.137  0.1607 -0.0448  0.2404
 2646TIP3    H229354   6.247   3.652   0.144  0.8801 -1.2315  1.7672
 2647TIP3   OH229355   3.836   3.450   6.205  0.0359  0.0963 -0.4633
 2647TIP3    H129356   3.926   3.421   6.194 -0.0834  0.1492 -1.8015
 2647TIP3    H229357   3.811   3.482   6.118 -0.8499  1.2804  0.1946
 2648TIP3   OH229358   1.299   1.643  12.387 -0.1064 -0.0863 -0.0501
 2648TIP3    H129359   1.258   1.559  12.366 -0.5635 -0.0894  0.8062
 2648TIP3    H229360   1.391   1.632  12.362 -0.6329  0.0218 -2.3432
 2649TIP3   OH229361   5.729   5.081   3.763  0.6666  0.4958  0.7345
 2649TIP3    H129362   5.648   5.099   3.811  1.1086  1.9124  1.0203
 2649TIP3    H229363   5.701   5.033   3.685 -0.4510  0.9054  0.8622
 2650TIP3   OH229364   0.992   2.610   1.618  0.4943 -0.7473 -0.7487
 2650TIP3    H129365   0.965   2.518   1.615  0.8487 -0.8357 -1.6242
 2650TIP3    H229366   0.910   2.659   1.623  0.3383 -1.1340  1.5554
 2651TIP3   OH229367   6.426   3.944  14.050  0.3500 -0.3150 -0.0908
 2651TIP3    H129368   6.430   4.030  14.093  0.4219  0.0906 -0.8788
 2651TIP3    H229369   6.465   3.959  13.964  1.8354 -1.5312  0.3481
 2652TIP3   OH229370   4.383   6.620   0.471 -0.1889  0.5651  0.5101
 2652TIP3    H129371   4.420   6.559   0.408  0.2909 -0.8316  2.0628
 2652TIP3    H229372   4.342   6.688   0.418  2.7114  1.0563 -1.2966
 2653TIP3   OH229373   3.981   6.245   2.431 -0.3581 -0.1034 -0.6430
 2653TIP3    H129374   4.055   6.270   2.487 -0.5619  2.1707 -1.2954
 2653TIP3    H229375   4.023   6.213   2.351 -0.1008 -1.4242 -0.0214
 2654TIP3   OH229376   4.759   4.085  14.550  0.1289 -0.5993  0.0514
 2654TIP3    H129377   4.691   4.150  14.570 -1.0058 -1.5472 -0.6447
 2654TIP3    H229378   4.831   4.108  14.609 -0.0836  1.5122 -0.4031
 2655TIP3   OH229379   5.813   0.795   5.310 -0.4801  0.0816  0.1305
 2655TIP3    H129380   5.756   0.847   5.253 -0.1470  0.4093  0.0995
 2655TIP3    H229381   5.900   0.802   5.271 -0.1543  0.7085  0.9535
 2656TIP3   OH229382   1.704   2.540  14.501 -0.3930  0.3739  0.6608
 2656TIP3    H129383   1.667   2.453  14.517 -0.4131 -0.1020 -1.5556
 2656TIP3    H229384   1.632   2.601  14.516 -0.1817  0.1471  2.9927
 2657TIP3   OH229385   2.368   2.465   3.642  0.2050 -0.5670  0.0622
 2657TIP3    H129386   2.371   2.551   3.601 -0.8482 -0.7205 -0.3677
 2657TIP3    H229387   2.373   2.403   3.569 -2.2088 -0.8471  0.0315
 2658TIP3   OH229388   1.848   5.957  10.583  0.1330  0.0307 -0.2661
 2658TIP3    H129389   1.765   5.996  10.608  0.5179  1.0610 -0.5051
 2658TIP3    H229390   1.825   5.876  10.538 -0.9141  1.5459 -2.6671
 2659TIP3   OH229391   6.254   5.273   0.827 -0.2700 -0.5053  0.1608
 2659TIP3    H129392   6.314   5.252   0.756  0.2964  1.6991 -0.0734
 2659TIP3    H229393   6.310   5.298   0.900 -0.8485  1.4054  0.0048
 2660TIP3   OH229394   2.556   6.798   2.892  0.1288  0.8295  0.0743
 2660TIP3    H129395   2.483   6.746   2.926  0.1994 -0.0528 -1.0614
 2660TIP3    H229396   2.588   6.846   2.968  0.7973 -1.6475  1.4932
 2661TIP3   OH229397   0.370   4.788  14.862  0.3347  0.1631 -0.0346
 2661TIP3    H129398   0.302   4.731  14.826  1.0236  0.1497 -1.3628
 2661TIP3    H229399   0.439   4.728  14.889  0.0185  0.2087  0.9119
 2662TIP3   OH229400   0.875   5.340   2.580  0.3538  0.0681  0.1539
 2662TIP3    H129401   0.881   5.415   2.522  0.4337 -0.6070 -0.7391
 2662TIP3    H229402   0.908   5.266   2.527 -1.3441 -0.9114  0.3956
 2663TIP3   OH229403   5.764   2.921  11.781  0.5879  0.5457  0.3545
 2663TIP3    H129404   5.818   2.897  11.706  1.1082 -1.2538  1.2424
 2663TIP3    H229405   5.677   2.886  11.759  0.4574  0.9945  0.1339
 2664TIP3   OH229406   3.561   4.488  14.990  0.4172 -0.3124 -0.4358
 2664TIP3    H129407   3.478   4.460  14.951 -0.7852  1.1464  0.9251
 2664TIP3    H229408   3.537   4.517  15.078  2.1397  1.3320 -0.4413
 2665TIP3   OH229409   2.430   0.867  16.498 -0.3566  0.3880  0.5530
 2665TIP3    H129410   2.459   0.781  16.467 -1.2358  0.2193  0.1683
 2665TIP3    H229411   2.508   0.905  16.539  0.2807 -0.2232 -0.0631
 2666TIP3   OH229412   4.886   3.818  12.249 -0.2641 -0.0326 -0.2517
 2666TIP3    H129413   4.800   3.782  12.268  0.3230 -0.4138  2.0902
 2666TIP3    H229414   4.942   3.742  12.238  0.0741  0.1820 -0.0566
 2667TIP3   OH229415   2.020   2.635   0.141  0.5005  0.4671  0.6066
 2667TIP3    H129416   1.925   2.638   0.141  0.4788  0.4358 -0.9220
 2667TIP3    H229417   2.042   2.587   0.221 -0.7642  0.3703  0.9161
 2668TIP3   OH229418   2.186   5.884  14.479  0.2835 -0.3356 -0.0452
 2668TIP3    H129419   2.179   5.791  14.498  1.2495 -0.4711 -0.2952
 2668TIP3    H229420   2.208   5.925  14.562  3.3407 -0.7839 -0.5288
 2669TIP3   OH229421   2.324   6.113   3.860 -0.6401 -0.4763  0.2329
 2669TIP3    H129422   2.336   6.021   3.836 -1.2557 -0.8454  1.3009
 2669TIP3    H229423   2.413   6.148   3.864 -0.4151 -0.9341 -0.4844
 2670TIP3   OH229424   4.196   4.774  14.442 -0.2038 -0.3828  0.6327
 2670TIP3    H129425   4.264   4.736  14.497 -0.5712 -3.5174 -0.8715
 2670TIP3    H229426   4.114   4.739  14.476 -0.5870 -0.8472 -0.7229
 2671TIP3   OH229427   4.276   3.381   2.013 -0.1792 -0.3640 -0.0359
 2671TIP3    H129428   4.225   3.301   2.024 -1.0009  0.2206  0.5181
 2671TIP3    H229429   4.210   3.450   2.001  0.4465  0.5128  1.3946
 2672TIP3   OH229430   2.559   4.072  11.562 -0.5079 -0.7527  0.0449
 2672TIP3    H129431   2.651   4.084  11.537 -0.6586  0.3017 -0.0288
 2672TIP3    H229432   2.554   4.101  11.653 -1.5033  3.0512 -1.0625
 2673TIP3   OH229433   6.512   1.839   5.355 -0.0460  0.1920  0.0533
 2673TIP3    H129434   6.590   1.786   5.371  0.9094  1.6865  0.6499
 2673TIP3    H229435   6.530   1.922   5.400 -2.1007  0.4963  0.4175
 2674TIP3   OH229436   4.205   6.600  16.215 -0.1390 -0.0334  0.2754
 2674TIP3    H129437   4.214   6.603  16.120  1.7812  1.2887  0.4473
 2674TIP3    H229438   4.218   6.690  16.244  0.2602 -0.5643  1.8525
 2675TIP3   OH229439   3.734   3.584   5.656 -0.6339 -0.4624  0.0460
 2675TIP3    H129440   3.807   3.595   5.717 -0.9526 -1.0830  0.5602
 2675TIP3    H229441   3.657   3.614   5.705 -0.6693  0.6319 -0.6570
 2676TIP3   OH229442   0.144   2.170   6.515  0.0739 -0.0506  0.0059
 2676TIP3    H129443   0.124   2.263   6.516 -2.2067 -0.4866 -0.3718
 2676TIP3    H229444   0.129   2.142   6.425  0.7445 -0.7889  0.1074
 2677TIP3   OH229445   4.097   4.143   4.795 -0.5641  0.1760 -0.2328
 2677TIP3    H129446   4.133   4.219   4.840 -2.0440  0.5470  0.3916
 2677TIP3    H229447   4.090   4.075   4.862 -1.1652  0.1736 -0.2863
 2678TIP3   OH229448   0.580   1.448   2.339  0.0603  0.2105  0.1448
 2678TIP3    H129449   0.665   1.446   2.296 -0.8962  1.4471 -1.9413
 2678TIP3    H229450   0.516   1.445   2.267 -1.6715 -0.3976  1.6240
 2679TIP3   OH229451   3.721   5.386   2.404  0.2666 -0.0834  0.1920
 2679TIP3    H129452   3.644   5.333   2.427 -0.0719 -0.1564 -1.0359
 2679TIP3    H229453   3.792   5.323   2.400  0.6558  0.1212  2.3197
 2680TIP3   OH229454   5.052   3.569   3.844  0.2246  0.3018  0.2701
 2680TIP3    H129455   5.002   3.579   3.925  1.0623  2.2398  0.6093
 2680TIP3    H229456   5.057   3.475   3.830 -1.0050 -0.0279  1.7940
 2681TIP3   OH229457   4.161   2.309   2.819 -0.6141  0.4039 -0.1679
 2681TIP3    H129458   4.132   2.383   2.872 -0.3867  1.6765 -1.7521
 2681TIP3    H229459   4.149   2.233   2.876  0.7832  1.7973  2.1611
 2682TIP3   OH229460   0.604   4.608  13.282  0.0462  0.2023  0.2409
 2682TIP3    H129461   0.528   4.551  13.294 -0.0857  0.2047 -0.5362
 2682TIP3    H229462   0.577   4.692  13.320 -0.6319  0.4283 -0.7154
 2683TIP3   OH229463   5.685   6.059   1.092 -0.1967  0.2584  0.7447
 2683TIP3    H129464   5.600   6.063   1.136 -0.4141 -0.4232  0.3901
 2683TIP3    H229465   5.679   5.983   1.035  0.0089  1.2362 -0.6138
 2684TIP3   OH229466   2.552   3.819  12.390  0.1443  0.4934  0.7599
 2684TIP3    H129467   2.487   3.798  12.324 -0.8690  0.6940  1.6717
 2684TIP3    H229468   2.619   3.751  12.381  0.0280  0.5272 -0.4526
 2685TIP3   OH229469   6.361   5.149  13.164  0.3535 -0.3374  0.1610
 2685TIP3    H129470   6.274   5.109  13.161  0.8932 -1.6362  0.8633
 2685TIP3    H229471   6.378   5.162  13.257  0.8991 -0.0533  0.0266
 2686TIP3   OH229472   1.827   4.354   2.963 -0.8890  0.0702  0.2296
 2686TIP3    H129473   1.835   4.283   2.899 -0.3054  0.9735 -0.7321
 2686TIP3    H229474   1.737   4.385   2.953 -1.3363 -0.8827  1.0671
 2687TIP3   OH229475   1.263   3.432  12.790 -0.2691 -0.0341  0.2076
 2687TIP3    H129476   1.279   3.424  12.884  2.7609 -0.1598 -0.1942
 2687TIP3    H229477   1.172   3.406  12.778 -0.7975  0.1794  3.1090
 2688TIP3   OH229478   0.478   1.052   1.349  0.4814 -0.2767 -0.4459
 2688TIP3    H129479   0.477   0.970   1.301 -1.4720 -0.2390 -0.5699
 2688TIP3    H229480   0.413   1.107   1.304  1.4501  1.2054 -0.1271
 2689TIP3   OH229481   5.131   2.681   4.783 -1.0508  0.2195 -0.2340
 2689TIP3    H129482   5.121   2.606   4.723 -2.5093  0.1978  0.0161
 2689TIP3    H229483   5.165   2.642   4.864 -1.0936 -0.0658 -0.3496
 2690TIP3   OH229484   4.338   3.345   2.849  0.2853  0.4599 -0.0550
 2690TIP3    H129485   4.322   3.323   2.941 -1.3018  1.0629 -0.1707
 2690TIP3    H229486   4.293   3.428   2.836  1.0975  0.7400 -1.2118
 2691TIP3   OH229487   1.011   5.762   5.760  0.5237 -0.1701  0.6732
 2691TIP3    H129488   1.005   5.746   5.854 -0.0828 -2.8782  0.2685
 2691TIP3    H229489   0.920   5.763   5.731  0.7173 -1.7540 -0.1437
 2692TIP3   OH229490   4.053   5.313  15.478 -0.2507 -0.0562 -0.1214
 2692TIP3    H129491   4.083   5.243  15.535  1.1668  1.0953  0.6104
 2692TIP3    H229492   4.006   5.373  15.537 -0.5996  0.1092 -0.5601
 2693TIP3   OH229493   3.615   3.091   4.548 -0.0554 -0.2012 -0.0036
 2693TIP3    H129494   3.668   3.050   4.480  0.8264 -0.9915  1.1187
 2693TIP3    H229495   3.526   3.089   4.514  0.4045 -0.3325 -1.2404
 2694TIP3   OH229496   6.068   5.473   4.891  0.0080  0.2121 -0.4486
 2694TIP3    H129497   6.042   5.383   4.906 -1.1668  0.7866  1.3246
 2694TIP3    H229498   6.147   5.467   4.838 -0.1113 -1.8353 -0.4622
 2695TIP3   OH229499   1.121   3.976  14.399 -0.4729  0.3442  0.0230
 2695TIP3    H129500   1.091   4.002  14.486 -0.8569  0.6872 -0.2043
 2695TIP3    H229501   1.205   3.933  14.414 -0.3113  0.8211  0.5180
 2696TIP3   OH229502   4.734   4.433  11.758 -0.3864  0.6341 -0.4582
 2696TIP3    H129503   4.676   4.357  11.758 -1.2565  1.2839 -0.1424
 2696TIP3    H229504   4.713   4.479  11.677 -1.3753  1.6417  0.3432
 2697TIP3   OH229505   1.417   5.722   0.388 -0.2876  0.6873  0.3076
 2697TIP3    H129506   1.491   5.736   0.447  0.4111  1.2015 -0.6543
 2697TIP3    H229507   1.378   5.640   0.417 -0.8566  1.6334  2.3735
 2698TIP3   OH229508   3.304   2.173   2.485 -0.0778 -0.0358 -0.0865
 2698TIP3    H129509   3.244   2.243   2.463  0.7782  0.1245 -2.0759
 2698TIP3    H229510   3.250   2.107   2.529 -1.3906  0.7470 -0.4972
 2699TIP3   OH229511   4.014   1.823   5.931  0.8071 -0.0422 -0.7635
 2699TIP3    H129512   4.070   1.787   6.000  0.5694 -1.4942 -1.2868
 2699TIP3    H229513   3.975   1.746   5.889 -0.1011  0.8623 -1.6477
 2700TIP3   OH229514   1.005   2.006   3.475 -0.3662  0.5148  0.1490
 2700TIP3    H129515   1.071   1.966   3.418  0.7247  0.6525  1.2810
 2700TIP3    H229516   0.989   1.940   3.542 -0.1175  1.1496  0.8413
 2701TIP3   OH229517   2.551   2.546  14.537  0.1619  0.0149  0.4141
 2701TIP3    H129518   2.640   2.529  14.505  0.2404  0.7777  0.2051
 2701TIP3    H229519   2.556   2.529  14.631  0.0073 -1.9411  0.1094
 2702TIP3   OH229520   4.830   1.557   6.542  0.5151  0.3489 -0.4234
 2702TIP3    H129521   4.911   1.602   6.517  0.1675  0.7356 -0.8546
 2702TIP3    H229522   4.847   1.465   6.519  1.1202  0.2943  0.2102
 2703TIP3   OH229523   1.907   3.329   2.864  0.2561  0.3623 -0.0509
 2703TIP3    H129524   1.844   3.319   2.793  0.2805  0.0828 -0.0325
 2703TIP3    H229525   1.970   3.259   2.851 -0.2022 -0.2091  0.7256
 2704TIP3   OH229526   6.237   1.868   4.855 -0.4806  0.0162 -0.1346
 2704TIP3    H129527   6.236   1.799   4.789  1.8547 -0.1380 -0.1176
 2704TIP3    H229528   6.310   1.925   4.828 -0.9165  1.2064  1.0884
 2705TIP3   OH229529   1.945   1.417  11.733  0.7088  0.0554 -0.5504
 2705TIP3    H129530   1.894   1.487  11.773  0.1391 -1.6565  1.9353
 2705TIP3    H229531   1.883   1.369  11.678 -0.2444 -1.3997  1.6561
 2706TIP3   OH229532   3.290   1.885  11.418 -0.4795 -0.0329 -0.1646
 2706TIP3    H129533   3.246   1.804  11.443  1.7212 -1.1825  0.2415
 2706TIP3    H229534   3.299   1.879  11.322 -1.4476  0.3616 -0.2873
 2707TIP3   OH229535   5.589   4.193   5.664  0.0630 -0.1796 -0.0310
 2707TIP3    H129536   5.613   4.168   5.753 -0.4484  3.5226  1.3208
 2707TIP3    H229537   5.500   4.228   5.671  0.7691  2.1650 -1.4743
 2708TIP3   OH229538   5.806   2.144   6.019 -0.1375 -0.1396 -0.0013
 2708TIP3    H129539   5.780   2.146   6.112  0.4252 -0.6746  0.1749
 2708TIP3    H229540   5.823   2.235   5.997  1.3881 -0.1681  0.9205
 2709TIP3   OH229541   6.770   1.122   3.031 -0.3175  0.1311 -0.3109
 2709TIP3    H129542   6.821   1.061   3.084  0.2601 -0.0168 -1.0271
 2709TIP3    H229543   6.826   1.200   3.023  0.3263 -0.4654 -2.0717
 2710TIP3   OH229544   0.565   1.557   4.598 -0.4064  0.3861  0.0375
 2710TIP3    H129545   0.473   1.580   4.586 -0.8228 -0.9160  0.5384
 2710TIP3    H229546   0.607   1.639   4.624 -2.1393  0.3504  3.6005
 2711TIP3   OH229547   6.443   3.339   3.992 -0.2881  0.4273  0.3747
 2711TIP3    H129548   6.493   3.381   4.062  0.6238  0.7545 -0.4555
 2711TIP3    H229549   6.503   3.336   3.918 -0.3751 -2.0943  0.2977
 2712TIP3   OH229550   4.311   0.901  11.441  0.0921  0.3213  0.5390
 2712TIP3    H129551   4.244   0.852  11.489 -0.5991 -0.3076 -1.0085
 2712TIP3    H229552   4.328   0.848  11.363  1.3622  1.1909  0.1997
 2713TIP3   OH229553   0.249   4.445   6.260  0.1466  0.4613  0.2225
 2713TIP3    H129554   0.159   4.419   6.242  0.2065  1.1443 -1.2269
 2713TIP3    H229555   0.268   4.407   6.345 -1.4435  0.1405  0.4733
 2714TIP3   OH229556   4.853   0.637   3.046  0.2753  0.2218  0.1286
 2714TIP3    H129557   4.935   0.680   3.070  0.0991 -0.1679  1.4860
 2714TIP3    H229558   4.873   0.591   2.964  1.1328  0.8810 -0.0551
 2715TIP3   OH229559   1.643   2.583  12.018  0.7596 -0.1172 -0.5417
 2715TIP3    H129560   1.674   2.665  12.057  0.6845 -0.3728  0.0675
 2715TIP3    H229561   1.551   2.600  11.997  0.6545 -0.1489 -0.1165
 2716TIP3   OH229562   5.634   6.666  11.457 -0.4502 -0.3437 -0.1819
 2716TIP3    H129563   5.562   6.705  11.408 -1.4482 -0.7890  0.8794
 2716TIP3    H229564   5.667   6.738  11.511 -0.4425 -0.2620 -0.2960
 2717TIP3   OH229565   2.565   2.190   3.525  0.2786  0.4627 -0.6107
 2717TIP3    H129566   2.610   2.186   3.609 -0.4903  2.5168 -0.0362
 2717TIP3    H229567   2.631   2.167   3.460  1.0483 -0.5293  0.5081
 2718TIP3   OH229568   0.282   4.327  16.511 -0.2980  0.1016 -0.4165
 2718TIP3    H129569   0.350   4.323  16.443 -0.6826  0.0400 -0.7996
 2718TIP3    H229570   0.308   4.260  16.575 -0.8480 -1.0430 -1.3561
 2719TIP3   OH229571   4.555   2.990  14.927 -0.9150  0.0430 -0.6167
 2719TIP3    H129572   4.479   3.009  14.981 -0.7049 -0.1155 -0.2613
 2719TIP3    H229573   4.626   2.972  14.989 -0.6477 -0.0562 -0.9413
 2720TIP3   OH229574   1.140   2.203   4.156 -0.2286 -0.1764  0.1472
 2720TIP3    H129575   1.164   2.129   4.101  1.0336  1.1060 -1.1066
 2720TIP3    H229576   1.064   2.242   4.112  2.1618  2.2416 -2.1958
 2721TIP3   OH229577   5.061   0.837  14.949  0.1524 -0.1684 -0.1176
 2721TIP3    H129578   5.002   0.887  14.891 -1.8058 -0.0729  1.8086
 2721TIP3    H229579   5.124   0.902  14.980  1.0036 -0.1440 -1.7987
 2722TIP3   OH229580   6.093   0.125  16.864  0.3134  0.5154 -0.2074
 2722TIP3    H129581   6.149   0.052  16.890 -0.3778  0.2765  0.6667
 2722TIP3    H229582   6.149   0.202  16.870  0.0478  0.6083  2.8904
 2723TIP3   OH229583   3.748   6.005   4.886 -0.7692  0.5905  0.0478
 2723TIP3    H129584   3.701   5.940   4.834 -0.9334  1.1538 -0.5186
 2723TIP3    H229585   3.835   6.008   4.848 -1.3919  2.2640 -1.3732
 2724TIP3   OH229586   3.450   5.011  14.101 -0.2199 -0.4425 -0.4833
 2724TIP3    H129587   3.380   4.952  14.072 -0.6537 -0.2603  0.1874
 2724TIP3    H229588   3.464   5.070  14.027 -2.4875  1.1117  0.2342
 2725TIP3   OH229589   0.281   0.445  12.816  0.2172  0.7285  0.1671
 2725TIP3    H129590   0.374   0.424  12.808  0.0788 -0.2423  0.8435
 2725TIP3    H229591   0.236   0.367  12.784 -0.3435  0.6724  1.0510
 2726TIP3   OH229592   2.979   6.394  11.295  0.3929  0.0240  0.9220
 2726TIP3    H129593   3.035   6.469  11.278 -0.3107  0.5047  0.6785
 2726TIP3    H229594   2.954   6.402  11.387 -0.3627  0.5647  0.6759
 2727TIP3   OH229595   2.532   4.299   4.066 -0.1410 -0.6370  0.1117
 2727TIP3    H129596   2.526   4.360   3.992 -1.0557  0.6622  1.2016
 2727TIP3    H229597   2.583   4.346   4.132  0.6658 -1.7810  0.3198
 2728TIP3   OH229598   2.573   0.935   4.065 -0.2315 -0.5296 -0.1027
 2728TIP3    H129599   2.514   0.902   3.997  1.1482 -0.7385 -1.2478
 2728TIP3    H229600   2.641   0.982   4.016 -0.3367  1.1494  1.2768
 2729TIP3   OH229601   5.645   2.195   5.451  0.1517  0.1339 -0.3946
 2729TIP3    H129602   5.569   2.137   5.464  0.5809 -0.3656 -0.0630
 2729TIP3    H229603   5.664   2.188   5.357 -0.1487  0.1746 -0.4591
 2730TIP3   OH229604   2.678   0.586   1.053  0.3764 -0.4969 -0.2439
 2730TIP3    H129605   2.746   0.652   1.064 -1.9630  1.8485  1.0244
 2730TIP3    H229606   2.624   0.618   0.981 -0.3542 -1.4813 -0.1620
 2731TIP3   OH229607   2.305   2.738  12.496  0.4932  0.4033  0.3985
 2731TIP3    H129608   2.318   2.776  12.583  0.3298 -0.0881  0.6411
 2731TIP3    H229609   2.276   2.811  12.442  1.4801  0.9208  0.5304
 2732TIP3   OH229610   2.953   2.658   0.656  0.1647  0.1175  0.0046
 2732TIP3    H129611   2.874   2.605   0.658  0.0857  0.2558  0.7432
 2732TIP3    H229612   2.924   2.746   0.681  0.4348  0.3223 -0.3840
 2733TIP3   OH229613   6.258   0.016  15.949 -0.1671 -0.1473  0.1464
 2733TIP3    H129614   6.174   0.052  15.979 -0.8941 -1.0785 -0.6971
 2733TIP3    H229615   6.319   0.036  16.019 -1.3480 -0.3953  1.2875
 2734TIP3   OH229616   3.514   2.381  12.028 -0.2889  0.1802 -0.2515
 2734TIP3    H129617   3.594   2.429  12.049 -0.9275  0.5556  1.5351
 2734TIP3    H229618   3.451   2.450  12.003 -0.6803  0.1123  0.5272
 2735TIP3   OH229619   1.196   0.967  13.889 -0.3265 -0.0581 -0.4613
 2735TIP3    H129620   1.149   0.898  13.936  0.8847 -1.6462 -1.4511
 2735TIP3    H229621   1.288   0.953  13.912  0.1692 -0.1472 -2.2834
 2736TIP3   OH229622   6.520   2.449  16.065  0.2841 -0.2126 -0.7447
 2736TIP3    H129623   6.601   2.477  16.107 -0.3296  1.5005 -0.6216
 2736TIP3    H229624   6.476   2.395  16.131 -0.0501  1.3343  0.3427
 2737TIP3   OH229625   0.034   5.036   0.346  0.6451  0.1996  0.1940
 2737TIP3    H129626   0.086   5.056   0.424  1.2905 -3.0318  0.7494
 2737TIP3    H229627   0.095   5.049   0.273  1.5984 -1.2803  0.6701
 2738TIP3   OH229628   4.024   5.590  16.669  1.0053 -0.1257 -0.2204
 2738TIP3    H129629   3.962   5.641  16.720  0.4993 -0.7498 -0.1953
 2738TIP3    H229630   4.095   5.650  16.650  0.0368  0.8366 -0.9108
 2739TIP3   OH229631   3.838   4.483  16.125  0.1248 -0.2134  0.4329
 2739TIP3    H129632   3.790   4.565  16.131  0.2523 -0.0748 -0.2903
 2739TIP3    H229633   3.928   4.505  16.147 -0.1393 -0.4856  1.8530
 2740TIP3   OH229634   3.551   2.709  13.213  0.7456  0.0366 -0.4288
 2740TIP3    H129635   3.536   2.686  13.122  0.4756 -1.0175 -0.1341
 2740TIP3    H229636   3.559   2.625  13.258  0.1699  0.5305  0.6395
 2741TIP3   OH229637   6.782   4.358   3.823 -0.0876  0.3981  0.3959
 2741TIP3    H129638   6.811   4.268   3.837  0.2466  0.0369 -2.0968
 2741TIP3    H229639   6.687   4.352   3.813  0.1050 -0.0771 -1.7651
 2742TIP3   OH229640   5.648   4.730   2.419  0.0499 -0.3726 -0.0761
 2742TIP3    H129641   5.743   4.737   2.412  0.0636 -0.0978  0.3525
 2742TIP3    H229642   5.627   4.771   2.503 -0.2617 -2.0959  0.7177
 2743TIP3   OH229643   4.030   1.608   1.872 -0.3006  0.6643 -0.3255
 2743TIP3    H129644   4.016   1.601   1.967  0.6513  1.2236 -0.1294
 2743TIP3    H229645   4.014   1.700   1.852 -4.0925 -0.0753 -1.3691
 2744TIP3   OH229646   5.207   0.026  15.152  0.0919 -0.0765  0.0949
 2744TIP3    H129647   5.185   0.108  15.197  1.3360  0.9784 -1.0987
 2744TIP3    H229648   5.203   0.049  15.059  1.6629 -1.0092 -0.2440
 2745TIP3   OH229649   1.261   5.511   0.447  0.0044  0.1745  0.4733
 2745TIP3    H129650   1.244   5.438   0.387  1.9202  0.4774 -0.5124
 2745TIP3    H229651   1.175   5.534   0.483 -1.0631 -0.6062 -1.4781
 2746TIP3   OH229652   2.080   4.854  13.671 -0.1011  0.0878 -0.0872
 2746TIP3    H129653   2.151   4.801  13.706 -0.7101  0.2189  1.4538
 2746TIP3    H229654   2.013   4.791  13.645  1.3484 -0.1799 -3.6055
 2747TIP3   OH229655   6.184   4.791   5.568  0.5929  0.1268 -0.8528
 2747TIP3    H129656   6.240   4.827   5.499  0.2180  1.2255 -0.6065
 2747TIP3    H229657   6.112   4.750   5.521  1.1379 -0.5279 -1.1445
 2748TIP3   OH229658   1.434   5.790   3.805  0.4217  0.4558  0.0482
 2748TIP3    H129659   1.458   5.853   3.873  4.0628  0.6587 -1.1842
 2748TIP3    H229660   1.437   5.705   3.849 -0.1777  0.7841  0.7476
 2749TIP3   OH229661   4.944   6.600   5.286  0.2005 -0.2723 -0.8121
 2749TIP3    H129662   4.904   6.577   5.369  1.4713 -0.7185 -0.3110
 2749TIP3    H229663   4.984   6.519   5.255 -1.9234 -0.6507 -2.8689
 2750TIP3   OH229664   1.674   1.660   3.805  0.0156  0.3566 -0.1680
 2750TIP3    H129665   1.743   1.716   3.771  0.9610 -0.0915  0.9435
 2750TIP3    H229666   1.694   1.573   3.771  0.2315  0.1528  0.4620
 2751TIP3   OH229667   3.821   0.794   1.571  0.2423 -0.1486  0.5256
 2751TIP3    H129668   3.770   0.716   1.549  1.1884 -0.5131 -0.4714
 2751TIP3    H229669   3.871   0.769   1.648 -0.6170  0.0069  1.1432
 2752TIP3   OH229670   1.454   1.819  15.254 -0.4356 -0.3343 -0.3693
 2752TIP3    H129671   1.463   1.727  15.276  0.1483 -0.4705 -1.1261
 2752TIP3    H229672   1.434   1.862  15.338 -0.8734 -1.1566 -0.0396
 2753TIP3   OH229673   3.521   1.193  12.570 -0.4176  0.0559  0.0235
 2753TIP3    H129674   3.570   1.264  12.612 -1.4638  1.5442 -1.1494
 2753TIP3    H229675   3.576   1.166  12.497 -1.3080  1.8351 -1.3907
 2754TIP3   OH229676   4.531   4.249  14.595 -0.0511 -0.3254  0.1378
 2754TIP3    H129677   4.485   4.244  14.511  0.5468  1.6725 -0.3799
 2754TIP3    H229678   4.462   4.264  14.659 -0.3658 -0.0386 -0.2587
 2755TIP3   OH229679   1.451   2.279  11.668 -0.3101 -0.1912 -0.0508
 2755TIP3    H129680   1.469   2.311  11.579  1.8359  0.5535  0.5789
 2755TIP3    H229681   1.531   2.299  11.716 -1.5806 -0.2137  2.1724
 2756TIP3   OH229682   4.570   2.913  15.597  0.8922 -0.1332 -0.1819
 2756TIP3    H129683   4.487   2.960  15.586  0.1671 -1.0025  1.3056
 2756TIP3    H229684   4.619   2.934  15.518 -0.2386  1.4092 -0.5343
 2757TIP3   OH229685   3.026   3.303  11.275  0.5787  0.1605  0.5205
 2757TIP3    H129686   3.012   3.374  11.212  1.6671  0.6347  0.7772
 2757TIP3    H229687   2.941   3.262  11.285 -0.2270  1.7971  0.7671
 2758TIP3   OH229688   6.016   4.652   6.069  0.5673  0.0398 -0.8991
 2758TIP3    H129689   5.950   4.586   6.051 -0.3254  1.3380 -2.7204
 2758TIP3    H229690   6.088   4.604   6.111 -1.0502 -1.5956  0.1299
 2759TIP3   OH229691   2.550   1.146  11.722 -0.1909  0.3961 -0.1511
 2759TIP3    H129692   2.514   1.111  11.641 -0.7596  0.2016  0.1782
 2759TIP3    H229693   2.609   1.078  11.754  1.6382  1.3181 -1.4439
 2760TIP3   OH229694   4.073   2.101  11.073 -0.1064  0.4963 -0.0140
 2760TIP3    H129695   4.051   2.059  10.989 -0.7564  0.9478 -0.0766
 2760TIP3    H229696   4.001   2.076  11.131  1.0325 -0.9807  0.8433
 2761TIP3   OH229697   2.332   3.182   2.901 -0.2577  0.0710  0.5354
 2761TIP3    H129698   2.402   3.177   2.836  0.7911  0.0864  1.6280
 2761TIP3    H229699   2.344   3.103   2.954 -2.1034 -0.7801 -0.2487
 2762TIP3   OH229700   5.566   4.955   0.735  0.3478 -0.4073  0.0019
 2762TIP3    H129701   5.578   4.863   0.709  1.0628 -0.7973  1.5714
 2762TIP3    H229702   5.577   4.954   0.830  1.0445  1.4096 -0.0217
 2763TIP3   OH229703   4.531   1.680  17.055 -0.1601  0.7280 -0.0028
 2763TIP3    H129704   4.526   1.629  17.135 -0.0134 -0.2309 -0.5789
 2763TIP3    H229705   4.486   1.626  16.989  0.8268  0.8867 -0.8444
 2764TIP3   OH229706   6.268   3.443  11.676  0.2745 -0.1460 -0.1382
 2764TIP3    H129707   6.225   3.376  11.729 -1.2371  0.5888 -0.3685
 2764TIP3    H229708   6.304   3.396  11.601 -0.1442 -0.7936  0.0651
 2765TIP3   OH229709   5.332   1.504   0.747 -0.0170  0.2543  0.1301
 2765TIP3    H129710   5.355   1.558   0.823  0.5606  0.0417  0.1080
 2765TIP3    H229711   5.393   1.532   0.679 -0.6147  0.5324 -0.2995
 2766TIP3   OH229712   6.068   2.211  11.322  0.1659 -0.2340 -0.4923
 2766TIP3    H129713   6.017   2.268  11.379 -1.5360 -1.2687 -0.9125
 2766TIP3    H229714   6.099   2.268  11.252 -0.5123  0.3945 -0.2876
 2767TIP3   OH229715   0.152   5.222  16.341 -0.5061  0.2627 -0.2199
 2767TIP3    H129716   0.089   5.150  16.338 -0.9509  0.4077  2.5420
 2767TIP3    H229717   0.226   5.187  16.390 -0.3526  1.4037  0.4111
 2768TIP3   OH229718   4.772   5.702  16.481 -0.0252  0.0406 -0.0573
 2768TIP3    H129719   4.851   5.755  16.467  0.4946 -0.4568  0.9487
 2768TIP3    H229720   4.747   5.674  16.393  1.9158 -1.2138 -0.2720
 2769TIP3   OH229721   3.296   5.277   4.020  0.4444 -0.2477 -0.5778
 2769TIP3    H129722   3.347   5.226   3.957  1.9723  0.1818  0.2445
 2769TIP3    H229723   3.349   5.356   4.035 -1.1778  0.9298 -0.7676
 2770TIP3   OH229724   3.811   2.466  15.503  0.3110  0.7095  0.3313
 2770TIP3    H129725   3.860   2.456  15.584 -1.3336  1.8997  1.5394
 2770TIP3    H229726   3.773   2.380  15.487  1.9677  0.0246 -0.1256
 2771TIP3   OH229727   0.493   2.512   1.532  0.0890  0.4213  0.3556
 2771TIP3    H129728   0.439   2.543   1.459  0.2858 -1.2436 -0.5520
 2771TIP3    H229729   0.432   2.503   1.605  0.1411  3.4950  0.9092
 2772TIP3   OH229730   6.135   1.853  14.395  0.0269 -0.2995  0.7933
 2772TIP3    H129731   6.139   1.825  14.487 -1.2730  1.5120  1.4592
 2772TIP3    H229732   6.187   1.933  14.392  0.1012 -0.3688 -0.0766
 2773TIP3   OH229733   0.052   0.566  13.652  0.1807  0.1645 -0.3189
 2773TIP3    H129734  -0.020   0.513  13.618  0.0933  0.2307 -0.2394
 2773TIP3    H229735   0.070   0.531  13.738  0.5179 -0.1133 -0.5003
 2774TIP3   OH229736   0.542   0.013   0.988  0.2664 -0.3522 -0.2974
 2774TIP3    H129737   0.508   0.070   0.920 -0.6217 -1.4842 -0.8286
 2774TIP3    H229738   0.466  -0.035   1.020  0.9437 -1.0596  0.3137
 2775TIP3   OH229739   4.362   2.276   3.811 -0.8710 -0.2819  0.5291
 2775TIP3    H129740   4.364   2.323   3.895 -1.6748 -0.7347  0.8104
 2775TIP3    H229741   4.269   2.259   3.796 -0.6001 -1.7547  0.4139
 2776TIP3   OH229742   0.848   4.419  13.258  0.5394  0.5956  0.2882
 2776TIP3    H129743   0.893   4.502  13.275  0.6796  1.2444 -2.7357
 2776TIP3    H229744   0.756   4.438  13.278  0.6262  1.3880 -0.0077
 2777TIP3   OH229745   3.518   4.149   3.162  0.2592  0.4305  0.2540
 2777TIP3    H129746   3.447   4.099   3.123  1.7052 -0.9422 -0.7407
 2777TIP3    H229747   3.529   4.225   3.104 -0.0827  0.3981  0.1459
 2778TIP3   OH229748   3.617   0.013  14.532 -0.2264 -0.5992  0.4210
 2778TIP3    H129749   3.526   0.043  14.535 -0.0311  0.1499 -0.5818
 2778TIP3    H229750   3.647   0.018  14.623 -1.2872 -1.2017  0.8155
 2779TIP3   OH229751   2.396   0.620  11.646 -0.0981 -0.9608 -0.1586
 2779TIP3    H129752   2.352   0.670  11.577 -1.1144  0.0567  1.1498
 2779TIP3    H229753   2.456   0.682  11.686 -1.1816 -0.8069  1.3233
 2780TIP3   OH229754   6.257   2.099   1.512  0.9755  0.0113 -0.2517
 2780TIP3    H129755   6.346   2.063   1.507 -0.0294 -2.5231 -2.7679
 2780TIP3    H229756   6.254   2.164   1.441  0.6038 -0.5180 -0.7267
 2781TIP3   OH229757   5.468   0.561  10.686 -0.1025  0.0489 -0.3209
 2781TIP3    H129758   5.497   0.559  10.777  0.3477  1.7339 -0.3936
 2781TIP3    H229759   5.395   0.622  10.686  1.4568  2.0435 -1.4489
 2782TIP3   OH229760   4.229   5.067  15.098 -0.0525 -0.2662 -0.3617
 2782TIP3    H129761   4.277   5.019  15.029  0.7596 -0.2785  0.2009
 2782TIP3    H229762   4.155   5.106  15.052 -0.9282 -2.2889 -0.8131
 2783TIP3   OH229763   5.556   3.071  10.801  0.7138  0.0783  0.0894
 2783TIP3    H129764   5.489   3.029  10.748  0.4661  0.1612  0.3375
 2783TIP3    H229765   5.604   2.998  10.841  1.6658 -0.0231 -1.1727
 2784TIP3   OH229766   0.087   0.134  16.967  0.2172 -0.5994 -0.4062
 2784TIP3    H129767   0.007   0.082  16.959  0.4637 -0.8198 -1.7403
 2784TIP3    H229768   0.121   0.139  16.877  0.0740  2.0513 -0.3978
 2785TIP3   OH229769   2.366   0.988   5.030  0.0449  0.3190  0.2531
 2785TIP3    H129770   2.418   0.994   4.949 -0.8649  0.1133 -0.3654
 2785TIP3    H229771   2.279   0.961   5.000  0.1359 -1.4874  1.4733
 2786TIP3   OH229772   6.353   2.490  14.269 -0.3303  0.3823 -0.2571
 2786TIP3    H129773   6.447   2.507  14.262  0.2470 -1.7677  1.1414
 2786TIP3    H229774   6.319   2.565  14.319  0.5853  1.2872 -0.9621
 2787TIP3   OH229775   1.567   5.503  12.440 -0.2104 -0.1707  0.3431
 2787TIP3    H129776   1.619   5.540  12.369 -0.4207  0.1330  0.3452
 2787TIP3    H229777   1.529   5.424  12.402  1.4152 -1.2037  0.7935
 2788TIP3   OH229778   4.059   6.653   0.268  0.5619  0.4049  0.1295
 2788TIP3    H129779   4.079   6.569   0.225  0.0527  0.1415  0.3987
 2788TIP3    H229780   3.967   6.669   0.248 -0.2216 -0.5930  2.5197
 2789TIP3   OH229781   3.837   6.455  15.656  0.1932  0.6794  0.3625
 2789TIP3    H129782   3.778   6.517  15.613  0.4281 -0.4201 -1.7066
 2789TIP3    H229783   3.795   6.435  15.739 -0.8789  2.0797  0.1924
 2790TIP3   OH229784   0.938   6.778   4.240 -0.5692  0.3120 -0.2804
 2790TIP3    H129785   0.912   6.864   4.272  0.1221 -0.0612  1.4281
 2790TIP3    H229786   0.857   6.726   4.244 -0.2533 -0.1320  2.4852
 2791TIP3   OH229787   2.730   5.950   0.358 -0.5217 -0.6149  0.4912
 2791TIP3    H129788   2.656   5.958   0.418 -0.0880  0.4827  0.9039
 2791TIP3    H229789   2.790   6.019   0.385  0.9939 -1.9097  0.6330
 2792TIP3   OH229790   3.426   1.058  14.295 -0.8733 -0.7157  0.3293
 2792TIP3    H129791   3.365   1.060  14.222  1.7563  0.8949 -2.0439
 2792TIP3    H229792   3.466   0.971  14.290  1.4566  0.3569 -2.2939
 2793TIP3   OH229793   4.362   5.213   4.992 -0.2488 -0.0441  0.2095
 2793TIP3    H129794   4.352   5.179   5.081  0.8193 -0.1592  0.2971
 2793TIP3    H229795   4.272   5.225   4.961 -0.6336 -0.8861  0.9582
 2794TIP3   OH229796   2.724   0.195   3.032  0.3992  0.3281  0.1093
 2794TIP3    H129797   2.817   0.173   3.040  1.0846  2.5249 -1.1880
 2794TIP3    H229798   2.716   0.283   3.069 -1.1527  0.2261  0.0898
 2795TIP3   OH229799   1.795   4.721  12.584 -0.6690  0.3955  0.6216
 2795TIP3    H129800   1.746   4.721  12.502 -0.5365  2.6164  0.4641
 2795TIP3    H229801   1.795   4.630  12.613 -1.2087 -0.3442 -1.5423
 2796TIP3   OH229802   6.799   3.756  14.207 -0.1217 -0.4054  0.2168
 2796TIP3    H129803   6.835   3.844  14.195 -3.7289  1.2298  0.1168
 2796TIP3    H229804   6.869   3.698  14.179  2.3184  2.3970 -0.0665
 2797TIP3   OH229805   4.267   4.714   5.996  0.0918 -0.3286 -0.0978
 2797TIP3    H129806   4.351   4.713   5.951 -0.5824 -0.3284 -1.4007
 2797TIP3    H229807   4.264   4.799   6.040 -0.0992  0.5623 -1.7766
 2798TIP3   OH229808   0.607   5.167   2.879  0.1830  0.1424 -0.6041
 2798TIP3    H129809   0.673   5.120   2.929 -0.4962  0.6114  0.7892
 2798TIP3    H229810   0.558   5.218   2.945 -1.1207  0.3302 -1.6677
 2799TIP3   OH229811   4.006   4.479  12.492  0.2610  0.1755  0.3143
 2799TIP3    H129812   4.056   4.483  12.573  0.3580  0.1671  0.2558
 2799TIP3    H229813   3.923   4.522  12.512  0.1905 -0.0422  0.4865
 2800TIP3   OH229814   5.190   0.173  14.377 -0.6002  0.1458 -0.0240
 2800TIP3    H129815   5.194   0.091  14.328  1.1271  0.5599 -0.6397
 2800TIP3    H229816   5.154   0.148  14.462 -0.3571 -1.2144 -0.2948
 2801TIP3   OH229817   0.165   1.583   3.747  0.6592  0.0023  0.2473
 2801TIP3    H129818   0.118   1.607   3.826 -1.2683 -0.0531 -0.8215
 2801TIP3    H229819   0.133   1.496   3.725  1.2834 -0.0459 -0.5226
 2802TIP3   OH229820   6.754   5.526  14.246 -0.5458 -0.0707  0.1023
 2802TIP3    H129821   6.722   5.440  14.220 -0.7745  0.2883 -0.8427
 2802TIP3    H229822   6.680   5.567  14.291  0.0707 -0.9580  2.0337
 2803TIP3   OH229823   6.242   2.947  11.679 -0.1041  0.0050 -0.1713
 2803TIP3    H129824   6.250   2.969  11.772 -1.1177  0.9385 -0.2842
 2803TIP3    H229825   6.164   2.994  11.650 -0.2644 -0.9271 -1.3107
 2804TIP3   OH229826   1.015   5.478   5.652  0.3056 -0.0115 -0.7729
 2804TIP3    H129827   1.007   5.560   5.701 -0.5575  0.8021 -2.2442
 2804TIP3    H229828   1.097   5.487   5.604  0.4935 -0.2649 -0.5066
 2805TIP3   OH229829   1.787   2.452   0.000  0.0894  0.1324  0.5351
 2805TIP3    H129830   1.836   2.382  -0.042  0.2400 -0.3349  1.4543
 2805TIP3    H229831   1.805   2.529  -0.053 -1.5083 -0.8428 -1.5522
 2806TIP3   OH229832   5.847   1.189  11.762  0.1500 -0.5910 -0.1277
 2806TIP3    H129833   5.887   1.183  11.675  0.5271  0.6076 -0.0630
 2806TIP3    H229834   5.887   1.267  11.800  0.9471 -1.7958  1.6316
 2807TIP3   OH229835   1.495   1.947   2.649  0.0538  0.3950 -0.0980
 2807TIP3    H129836   1.457   2.024   2.607 -1.3249 -0.7869 -1.1307
 2807TIP3    H229837   1.515   1.975   2.739 -1.0137  1.7702 -0.2656
 2808TIP3   OH229838   4.054   5.403   1.582 -0.0876  0.4566 -0.1243
 2808TIP3    H129839   4.079   5.336   1.518  0.1490 -0.2691  0.7197
 2808TIP3    H229840   3.989   5.361   1.637  0.5444  0.6984  0.8257
 2809TIP3   OH229841   4.405   6.370  16.661 -0.3142  0.4030 -0.1097
 2809TIP3    H129842   4.399   6.388  16.567 -0.9114  0.4295 -0.0683
 2809TIP3    H229843   4.319   6.393  16.695 -0.1866  0.1276  0.4010
 2810TIP3   OH229844   2.931   5.087  16.539 -0.0850  0.0030 -0.5057
 2810TIP3    H129845   2.950   5.167  16.489 -0.1725  0.7013  0.5498
 2810TIP3    H229846   2.846   5.058  16.507 -1.5043  2.0474  1.1595
 2811TIP3   OH229847   5.264   4.612  16.517 -0.2245  0.5563 -0.1364
 2811TIP3    H129848   5.270   4.691  16.463 -2.4577  0.1515 -1.1028
 2811TIP3    H229849   5.233   4.643  16.602 -0.5042  0.8025 -0.3261
 2812TIP3   OH229850   3.576   6.309  11.840  0.0681 -0.3684  0.1527
 2812TIP3    H129851   3.638   6.378  11.862  1.0234 -0.7991 -1.0322
 2812TIP3    H229852   3.494   6.334  11.883  0.2061  1.8125 -0.7574
 2813TIP3   OH229853   2.963   0.339   5.323 -0.0227 -0.4210 -0.3907
 2813TIP3    H129854   2.961   0.281   5.399 -1.7184  1.2448  0.9394
 2813TIP3    H229855   2.900   0.301   5.262 -1.3368  0.1038  0.5892
 2814TIP3   OH229856   0.155   6.449   3.174 -0.2008 -0.2292  0.2194
 2814TIP3    H129857   0.246   6.431   3.148 -0.2127 -1.3470  0.8614
 2814TIP3    H229858   0.139   6.539   3.145  0.5789 -0.5548 -1.3621
 2815TIP3   OH229859   3.869   6.611   4.955  0.0619 -0.4264 -0.3742
 2815TIP3    H129860   3.823   6.530   4.932 -0.3620  0.2946 -2.2235
 2815TIP3    H229861   3.900   6.646   4.871 -0.1516  1.5627  0.3252
 2816TIP3   OH229862   2.292   2.520   3.110 -0.2088  0.1855 -0.4213
 2816TIP3    H129863   2.264   2.586   3.173 -1.2884 -0.9217  0.3180
 2816TIP3    H229864   2.369   2.480   3.150  0.1228  0.6248 -0.6152
 2817TIP3   OH229865   5.996   2.586   0.925  0.5235 -0.3355  0.2638
 2817TIP3    H129866   5.998   2.525   0.852  0.7165  1.7803 -1.5876
 2817TIP3    H229867   6.085   2.621   0.930 -0.2444  2.0117 -0.7812
 2818TIP3   OH229868   2.062   3.369  13.020  0.1961 -0.1417  0.9724
 2818TIP3    H129869   2.035   3.361  13.111 -1.8450 -0.1530  0.4258
 2818TIP3    H229870   2.108   3.288  13.001  2.0035  0.5061  2.3738
 2819TIP3   OH229871   0.409   5.965  12.090 -0.4929 -0.2350  0.0271
 2819TIP3    H129872   0.500   5.938  12.102 -0.1509  0.2401 -1.3302
 2819TIP3    H229873   0.376   5.980  12.179  0.5250 -1.1293  0.5727
 2820TIP3   OH229874   2.259   0.176   5.725 -0.6788 -0.3304  0.2716
 2820TIP3    H129875   2.350   0.206   5.732 -0.7134  0.7828 -2.5808
 2820TIP3    H229876   2.266   0.081   5.724  0.4663 -0.2694  0.2898
 2821TIP3   OH229877   3.507   1.322   0.542 -0.0158  0.2617  1.3325
 2821TIP3    H129878   3.534   1.335   0.451 -1.3028  1.5847  1.1083
 2821TIP3    H229879   3.459   1.240   0.541  0.8206 -0.2347  1.0217
 2822TIP3   OH229880   1.319   4.826  15.431  0.0879  0.0513 -0.4823
 2822TIP3    H129881   1.282   4.741  15.408 -1.4414  0.1239  1.4738
 2822TIP3    H229882   1.251   4.889  15.408  0.0344  0.4541  0.7382
 2823TIP3   OH229883   1.647   6.089   3.160  0.0345  0.5587  0.4162
 2823TIP3    H129884   1.638   6.152   3.231 -1.8096  1.2883 -0.3841
 2823TIP3    H229885   1.676   6.008   3.203 -0.0995  1.2446  1.8487
 2824TIP3   OH229886   5.986   3.316  15.470  0.1570 -0.2256  0.0082
 2824TIP3    H129887   5.954   3.252  15.407  1.2924 -0.9356  0.1109
 2824TIP3    H229888   5.978   3.400  15.425  1.2354 -0.7408 -1.2440
 2825TIP3   OH229889   3.237   3.304   1.999  0.2632 -0.3313 -0.1452
 2825TIP3    H129890   3.320   3.261   1.983  1.2382  1.2745  0.3668
 2825TIP3    H229891   3.260   3.390   2.032 -1.6141 -0.3171  1.3088
 2826TIP3   OH229892   3.315   4.281   3.691  0.1364 -0.6413 -0.4384
 2826TIP3    H129893   3.309   4.341   3.766 -0.6488 -0.5629 -0.5494
 2826TIP3    H229894   3.358   4.203   3.727 -1.6570 -1.2530  0.5604
 2827TIP3   OH229895   3.476   1.883   4.322 -0.2067  0.1197 -0.0888
 2827TIP3    H129896   3.555   1.834   4.300  0.0434  1.2592 -1.9352
 2827TIP3    H229897   3.497   1.927   4.404 -0.7519 -3.4038  2.1775
 2828TIP3   OH229898   2.056   4.528   6.169  0.1865 -0.1392 -0.5235
 2828TIP3    H129899   2.078   4.435   6.163  0.6802  0.0234 -1.5095
 2828TIP3    H229900   1.960   4.530   6.168  0.1731 -0.6285 -0.8481
 2829TIP3   OH229901   0.430   5.864   3.286  0.2222  0.1279  0.6117
 2829TIP3    H129902   0.413   5.955   3.260  1.4803  0.2911  0.3135
 2829TIP3    H229903   0.491   5.872   3.360  0.1795 -0.4766  0.7131
 2830TIP3   OH229904   3.574   1.045  13.833  0.7275  0.5198  0.5068
 2830TIP3    H129905   3.624   1.048  13.752  1.8931 -0.6875  1.1374
 2830TIP3    H229906   3.621   1.104  13.892  1.1112 -0.2002  0.9341
 2831TIP3   OH229907   6.224   2.977  12.877 -0.0072  0.0454 -0.3937
 2831TIP3    H129908   6.244   2.895  12.922  0.6183  0.5299  0.2376
 2831TIP3    H229909   6.297   2.989  12.816  0.9367  1.0639  0.8584
 2832TIP3   OH229910   4.617   0.726   1.968  0.0587  0.2979  0.2087
 2832TIP3    H129911   4.689   0.761   2.020 -0.4022  0.3676  0.8086
 2832TIP3    H229912   4.539   0.739   2.022 -0.4786  0.6477 -0.6235
 2833TIP3   OH229913   0.696   5.175  11.000  0.0846 -0.5465  0.3030
 2833TIP3    H129914   0.636   5.100  10.998  0.7212 -1.0638 -1.6183
 2833TIP3    H229915   0.679   5.221  10.918  1.5968 -0.1295  0.2030
 2834TIP3   OH229916   0.352   2.340  15.994 -0.5000 -0.3003 -0.6405
 2834TIP3    H129917   0.438   2.378  15.972 -0.8141  1.5095  0.9234
 2834TIP3    H229918   0.362   2.247  15.979  1.2824  0.0483 -1.9320
 2835TIP3   OH229919   0.457   5.359   2.998  0.2608  0.2257  0.7481
 2835TIP3    H129920   0.482   5.450   2.987 -0.7689  0.4414  0.0891
 2835TIP3    H229921   0.399   5.359   3.075  0.1891  0.1388  0.6941
 2836TIP3   OH229922   3.516   4.954   2.200 -0.0949 -0.2427 -0.1796
 2836TIP3    H129923   3.590   4.943   2.140  0.0302  1.4328 -0.3781
 2836TIP3    H229924   3.445   4.985   2.144  0.0936  1.5821  0.5322
 2837TIP3   OH229925   6.583   4.990   1.676 -0.7510  0.2192 -0.3834
 2837TIP3    H129926   6.666   4.977   1.630 -0.0521  0.1984  0.8157
 2837TIP3    H229927   6.564   4.904   1.714  0.4341  0.9373  2.0706
 2838TIP3   OH229928   4.180   0.658   5.759  0.5423 -0.4115  0.2335
 2838TIP3    H129929   4.139   0.664   5.845  2.4927 -1.2259  1.2970
 2838TIP3    H229930   4.166   0.568   5.732 -1.3996  0.2262 -1.0746
 2839TIP3   OH229931   3.151   5.811  15.778  0.2130 -0.2339  0.3295
 2839TIP3    H129932   3.167   5.781  15.867 -2.0347 -0.0030  0.8558
 2839TIP3    H229933   3.101   5.740  15.737  2.9135 -1.2544 -1.4624
 2840TIP3   OH229934   4.993   5.928   1.179  0.0259  0.4322  0.2050
 2840TIP3    H129935   4.917   5.873   1.164  0.5484  0.3689 -2.7479
 2840TIP3    H229936   4.957   6.016   1.192 -0.6016  0.5561 -1.9764
 2841TIP3   OH229937   2.773   6.587   3.673 -0.0597 -0.6811  0.0238
 2841TIP3    H129938   2.736   6.510   3.716 -0.0306  0.1653  1.6352
 2841TIP3    H229939   2.743   6.660   3.727  1.9667  0.2323 -0.0261
 2842TIP3   OH229940   4.687   3.013  12.141  0.1728 -0.4703 -0.9356
 2842TIP3    H129941   4.722   3.023  12.230  1.1471  1.3448 -1.4656
 2842TIP3    H229942   4.705   3.097  12.099  0.2713 -1.4805 -3.0502
 2843TIP3   OH229943   2.292   1.545   4.961  0.3006  0.0408 -0.1272
 2843TIP3    H129944   2.219   1.482   4.958 -1.0150  1.4970 -0.0973
 2843TIP3    H229945   2.295   1.581   4.872  1.9299 -0.9899 -0.5209
 2844TIP3   OH229946   4.486   1.261  13.629  0.1625 -0.1690  0.4947
 2844TIP3    H129947   4.494   1.235  13.720  0.2989 -0.8000  0.3069
 2844TIP3    H229948   4.413   1.323  13.627  0.4202  0.1565  1.0921
 2845TIP3   OH229949   2.404   3.666  16.294  0.3150 -0.6190 -0.4373
 2845TIP3    H129950   2.410   3.579  16.333 -1.1300 -0.2138  0.8033
 2845TIP3    H229951   2.481   3.673  16.237  0.5021 -2.6578 -0.5080
 2846TIP3   OH229952   5.916   6.663  11.431  0.0185 -0.5971  0.4910
 2846TIP3    H129953   5.830   6.626  11.449 -1.5040  1.3358 -2.0223
 2846TIP3    H229954   5.916   6.747  11.477 -0.1116  0.0670 -0.6552
 2847TIP3   OH229955   6.249   1.768   5.665  0.0037  0.8887  0.1934
 2847TIP3    H129956   6.175   1.745   5.609  2.0667 -0.4484 -2.1642
 2847TIP3    H229957   6.298   1.687   5.677  1.9430  1.9941  0.3327
 2848TIP3   OH229958   5.860   2.734   1.777 -0.1030 -0.1566  0.3748
 2848TIP3    H129959   5.894   2.762   1.862  0.3855 -1.8701  0.7927
 2848TIP3    H229960   5.828   2.645   1.792  0.7728 -0.8280 -1.4107
 2849TIP3   OH229961   1.376   0.588  12.953 -0.0436  0.1601 -0.3529
 2849TIP3    H129962   1.382   0.495  12.975 -0.3821  0.4185  0.8923
 2849TIP3    H229963   1.357   0.631  13.036 -0.1751  1.3182 -0.9672
 2850TIP3   OH229964   5.110   6.473   4.947  0.2896  0.2142  0.1196
 2850TIP3    H129965   5.036   6.523   4.913 -1.6281 -2.3319  0.2603
 2850TIP3    H229966   5.111   6.393   4.894  3.1564  0.2731 -0.0466
 2851TIP3   OH229967   5.009   2.102   5.782  0.0287  0.1851 -0.1382
 2851TIP3    H129968   4.959   2.183   5.789 -1.5499 -0.6338 -1.3524
 2851TIP3    H229969   5.021   2.073   5.873  0.2680  1.5339  0.2817
 2852TIP3   OH229970   3.809   1.791   0.204  0.4278 -0.0076 -0.3719
 2852TIP3    H129971   3.885   1.841   0.234  0.6792 -0.5373 -0.1157
 2852TIP3    H229972   3.758   1.773   0.283  1.8611 -2.7062  0.0662
 2853TIP3   OH229973   2.817   0.106   0.070  0.5955  0.3667 -0.2841
 2853TIP3    H129974   2.766   0.085  -0.008 -0.3849 -1.9597  0.8914
 2853TIP3    H229975   2.817   0.202   0.073 -0.4304  0.4888 -2.4165
 2854TIP3   OH229976   5.724   3.584   0.129 -0.4444 -0.4245  0.3084
 2854TIP3    H129977   5.654   3.649   0.138  0.2170  0.3450  0.0122
 2854TIP3    H229978   5.680   3.506   0.098 -1.0132  0.4287 -1.1111
 2855TIP3   OH229979   1.566   4.276  16.817 -0.0300 -0.2337 -0.0239
 2855TIP3    H129980   1.477   4.256  16.846 -0.6667 -0.5934 -2.0608
 2855TIP3    H229981   1.568   4.371  16.808 -1.0621 -0.3733 -2.3521
 2856TIP3   OH229982   6.267   4.308   2.946  0.0668  0.3627  0.0230
 2856TIP3    H129983   6.262   4.384   2.889  0.6204  0.8056  0.5555
 2856TIP3    H229984   6.192   4.317   3.005  0.2164  0.5700  0.1806
 2857TIP3   OH229985   4.528   4.998   2.558  0.4615 -0.2888 -0.2332
 2857TIP3    H129986   4.564   4.940   2.625 -0.7769  1.0432  1.7017
 2857TIP3    H229987   4.465   4.944   2.511 -2.4956 -0.1344  3.0918
 2858TIP3   OH229988   3.875   4.019   3.859  0.2623  0.1042 -0.2131
 2858TIP3    H129989   3.816   4.044   3.788  0.8008 -0.9014 -1.0345
 2858TIP3    H229990   3.959   4.058   3.835  0.3549  0.0781  0.0691
 2859TIP3   OH229991   1.366   0.589  11.033 -0.2569 -0.3746 -0.2894
 2859TIP3    H129992   1.425   0.566  10.961 -0.5743 -0.4294 -0.5351
 2859TIP3    H229993   1.402   0.545  11.110  0.3415  0.0450 -0.3181
 2860TIP3   OH229994   5.101   1.414   0.881  0.2804  0.2241  0.1217
 2860TIP3    H129995   5.131   1.489   0.830  1.5428 -0.3926 -0.0777
 2860TIP3    H229996   5.107   1.340   0.821 -1.8702  0.0804  0.0168
 2861TIP3   OH229997   2.684   2.204  13.879 -0.3348  0.5245 -0.0581
 2861TIP3    H129998   2.767   2.195  13.832  0.3319 -2.0787  1.4135
 2861TIP3    H229999   2.639   2.121  13.865 -1.0962  0.5093  2.0157
 2862TIP3   OH230000   4.042   6.287   0.620  0.8032 -0.1518  0.2229
 2862TIP3    H130001   4.056   6.276   0.714  2.1179  1.9042  0.3292
 2862TIP3    H230002   4.126   6.317   0.586  0.3191 -0.7116 -1.6118
 2863TIP3   OH230003   3.482   1.407  16.021 -0.0278 -0.2927  0.2637
 2863TIP3    H130004   3.445   1.361  15.946 -1.7049  1.3431  0.0411
 2863TIP3    H230005   3.486   1.340  16.090  1.1542 -1.7096 -1.0930
 2864TIP3   OH230006   4.155   1.816   1.426 -0.0431  0.2773 -0.2467
 2864TIP3    H130007   4.153   1.752   1.355 -0.6087  0.6293 -0.5582
 2864TIP3    H230008   4.127   1.898   1.385  0.3694  0.6571  0.2170
 2865TIP3   OH230009   2.832   3.647  15.158  0.3853  0.1621 -0.6483
 2865TIP3    H130010   2.851   3.614  15.245 -3.9851 -0.2510  0.3685
 2865TIP3    H230011   2.787   3.574  15.114  1.8471  0.5978 -3.0684
 2866TIP3   OH230012   5.534   3.807  14.253  0.0892  0.2138 -0.2426
 2866TIP3    H130013   5.459   3.788  14.310  1.0526  0.2014  1.0716
 2866TIP3    H230014   5.496   3.846  14.175 -1.3092 -0.0465  0.2839
 2867TIP3   OH230015   1.735   2.560   4.503 -0.1226 -0.4909 -0.8599
 2867TIP3    H130016   1.645   2.558   4.470 -0.2184  0.8261 -0.7393
 2867TIP3    H230017   1.780   2.492   4.454 -1.2096 -1.2514 -0.8420
 2868TIP3   OH230018   4.438   2.219  13.222 -0.1060  0.0778 -0.4183
 2868TIP3    H130019   4.407   2.172  13.300  1.9941  1.0487  1.0681
 2868TIP3    H230020   4.360   2.265  13.189 -0.8210  0.5299  1.7666
 2869TIP3   OH230021   5.154   1.653   0.506 -0.1712 -0.0253 -0.0043
 2869TIP3    H130022   5.197   1.723   0.554 -1.2760  1.7353 -1.4505
 2869TIP3    H230023   5.063   1.655   0.536 -0.8009  0.8813 -1.8030
 2870TIP3   OH230024   6.352   3.301  10.581 -0.6282  0.1268  0.5516
 2870TIP3    H130025   6.376   3.391  10.604 -1.0698 -0.2166  2.4397
 2870TIP3    H230026   6.257   3.298  10.589 -0.7679 -0.1750 -0.8685
 2871TIP3   OH230027   1.079   1.633   3.711  0.3964 -0.3789  0.6971
 2871TIP3    H130028   1.022   1.710   3.713 -0.2602 -0.8233 -0.4305
 2871TIP3    H230029   1.156   1.662   3.661 -0.8423 -1.0759 -1.7406
 2872TIP3   OH230030   4.181   2.662  12.623  0.6459 -0.1254 -0.4016
 2872TIP3    H130031   4.182   2.572  12.656 -0.2572 -0.4862 -1.3022
 2872TIP3    H230032   4.272   2.679  12.598  0.5915 -1.2662 -1.4563
 2873TIP3   OH230033   4.877   0.998   0.238  0.0664  0.1095  0.0239
 2873TIP3    H130034   4.841   0.926   0.186  0.1840  0.1749 -0.1473
 2873TIP3    H230035   4.911   0.956   0.316 -1.1268  0.1279  0.5796
 2874TIP3   OH230036   1.679   0.147   2.817 -0.3571  0.4351  0.0048
 2874TIP3    H130037   1.733   0.068   2.819 -1.1683 -0.1379  1.7332
 2874TIP3    H230038   1.633   0.143   2.733  0.3947 -0.3715 -0.3797
 2875TIP3   OH230039   1.193   4.288  14.434 -0.3276 -0.1673 -0.9942
 2875TIP3    H130040   1.276   4.252  14.405  0.3494  0.9094 -0.4729
 2875TIP3    H230041   1.147   4.214  14.474 -0.6128 -1.3073 -3.2816
 2876TIP3   OH230042   6.551   1.299  14.079  0.3317 -0.3364 -1.1523
 2876TIP3    H130043   6.610   1.224  14.081 -0.0970 -0.6777 -1.0449
 2876TIP3    H230044   6.507   1.292  13.994 -0.9822 -1.2220 -0.4383
 2877TIP3   OH230045   5.015   5.682  13.816 -0.3305 -0.2175 -0.1994
 2877TIP3    H130046   4.990   5.621  13.885 -1.3288 -1.2677 -1.4333
 2877TIP3    H230047   4.932   5.711  13.778  0.1532  1.3528 -0.1297
 2878TIP3   OH230048   0.401   0.459  12.279  0.4704  0.2767  0.0854
 2878TIP3    H130049   0.490   0.442  12.312  0.0503 -0.8391  0.6777
 2878TIP3    H230050   0.414   0.475  12.186  1.3027  0.2601  0.1820
 2879TIP3   OH230051   5.520   6.111   5.523 -0.0195 -0.5117 -0.3404
 2879TIP3    H130052   5.539   6.093   5.431 -0.7438 -1.6153 -0.2890
 2879TIP3    H230053   5.592   6.167   5.551 -0.4689  0.9683 -1.9163
 2880TIP3   OH230054   3.090   4.188  16.179  0.4304  0.2572 -0.4908
 2880TIP3    H130055   3.041   4.157  16.255  0.9482  0.3251 -0.1241
 2880TIP3    H230056   3.068   4.126  16.110 -1.8755  1.4717 -0.9772
 2881TIP3   OH230057   4.776   2.885   2.027  0.4884 -0.4483 -0.2268
 2881TIP3    H130058   4.688   2.848   2.018  0.0032  0.7837 -0.7748
 2881TIP3    H230059   4.771   2.940   2.105  1.2232 -1.5636  0.6230
 2882TIP3   OH230060   4.382   6.400  16.045 -0.1950 -0.1757  0.4638
 2882TIP3    H130061   4.319   6.453  15.996  0.4531 -1.3316 -1.7707
 2882TIP3    H230062   4.438   6.464  16.090 -0.3300  1.0192 -0.9890
 2883TIP3   OH230063   4.127   3.432   4.058  0.1039  0.0233 -0.2800
 2883TIP3    H130064   4.046   3.391   4.086  0.1928 -0.1420 -0.2608
 2883TIP3    H230065   4.148   3.390   3.975  1.1078 -1.2227  0.5749
 2884TIP3   OH230066   5.741   3.041  14.511  0.2501  0.1368  0.4972
 2884TIP3    H130067   5.665   3.028  14.568  0.5759  0.7857  1.0949
 2884TIP3    H230068   5.813   2.997  14.557  0.3954  0.1681  0.3001
 2885TIP3   OH230069   0.634   6.790  13.207 -0.1024  0.2030  0.4509
 2885TIP3    H130070   0.581   6.745  13.273 -0.6504  1.0182  0.5720
 2885TIP3    H230071   0.626   6.883  13.228  1.9308  0.3258  0.8835
 2886TIP3   OH230072   2.050   5.821  13.867  0.4587  0.1303  0.0687
 2886TIP3    H130073   2.039   5.848  13.958 -1.6297 -2.1727  0.5905
 2886TIP3    H230074   1.969   5.849  13.824  0.7685 -0.1723 -0.7184
 2887TIP3   OH230075   5.046   1.655  12.362  0.4037  1.0787  0.1729
 2887TIP3    H130076   5.098   1.677  12.440  0.1223  0.8053  0.4378
 2887TIP3    H230077   5.050   1.734  12.308  1.7110  0.8154 -0.1570
 2888TIP3   OH230078   1.373   0.992  11.783  0.1067 -0.3940  0.1215
 2888TIP3    H130079   1.330   1.077  11.766 -0.7173 -0.7621  0.3029
 2888TIP3    H230080   1.396   0.995  11.876 -0.7473 -0.7160  0.3553
 2889TIP3   OH230081   6.110   1.676   2.825 -0.1650  0.4084 -0.4094
 2889TIP3    H130082   6.125   1.653   2.917  0.1545  0.6234 -0.4051
 2889TIP3    H230083   6.066   1.599   2.788  2.1944 -0.8742 -0.7646
 2890TIP3   OH230084   3.841   1.573   1.662 -0.1295  0.8638  0.1361
 2890TIP3    H130085   3.894   1.533   1.730 -0.8483  2.0802  1.4690
 2890TIP3    H230086   3.883   1.657   1.645  0.6044  0.1893 -1.6803
 2891TIP3   OH230087   3.765   2.292  13.651 -0.0656 -0.2495  0.3932
 2891TIP3    H130088   3.791   2.313  13.561  0.8187  1.5182  1.0028
 2891TIP3    H230089   3.840   2.245  13.687  1.3064  2.4427  1.3152
 2892TIP3   OH230090   5.171   4.378  11.332  0.1461 -0.1582 -0.0101
 2892TIP3    H130091   5.167   4.470  11.306  2.3737  0.5604  1.7844
 2892TIP3    H230092   5.081   4.354  11.352 -0.4326  1.7622 -0.1424
 2893TIP3   OH230093   2.203   6.464  10.966 -0.0823  0.0435 -0.3735
 2893TIP3    H130094   2.141   6.459  10.894 -0.0205  0.3522 -0.4459
 2893TIP3    H230095   2.256   6.385  10.957 -0.4026 -0.1745 -0.3669
 2894TIP3   OH230096   4.141   4.078   0.378 -0.5923  0.5595 -0.2268
 2894TIP3    H130097   4.091   4.005   0.342 -1.0792  1.4679 -1.4692
 2894TIP3    H230098   4.082   4.119   0.441 -2.1964  2.6150 -2.8529
 2895TIP3   OH230099   3.251   5.389   1.333 -0.2455  0.0932  0.2716
 2895TIP3    H130100   3.208   5.353   1.256 -0.4558  0.2588  0.3092
 2895TIP3    H230101   3.315   5.451   1.298  0.4913 -0.7041  0.1882
 2896TIP3   OH230102   0.456   2.054  13.394  0.0893  0.4246  0.2408
 2896TIP3    H130103   0.469   2.065  13.489  0.7735 -1.0473  0.3481
 2896TIP3    H230104   0.378   2.106  13.375 -0.3518  0.3744  1.7115
 2897TIP3   OH230105   0.307   5.435  15.807 -0.1085  0.7771 -0.0425
 2897TIP3    H130106   0.305   5.398  15.719  3.0687 -0.6392  0.3303
 2897TIP3    H230107   0.266   5.521  15.798 -2.3037 -0.3788 -2.2497
 2898TIP3   OH230108   4.698   0.065   3.753 -0.0506  0.2960  0.2343
 2898TIP3    H130109   4.640   0.040   3.681 -1.3463  4.3055 -0.3672
 2898TIP3    H230110   4.783   0.078   3.711 -0.0817 -0.1942  0.0097
 2899TIP3   OH230111   0.199   4.560   2.700  0.0041  0.4752  0.4208
 2899TIP3    H130112   0.159   4.640   2.667  0.2283  0.7501  0.8028
 2899TIP3    H230113   0.285   4.557   2.658 -0.2815  0.0584 -0.1438
 2900TIP3   OH230114   0.000   6.799  11.773  0.0153 -0.3283  0.1668
 2900TIP3    H130115  -0.069   6.784  11.837 -0.5513  0.8443 -0.1527
 2900TIP3    H230116   0.011   6.714  11.730 -0.9038 -0.6413  0.5243
 2901TIP3   OH230117   1.588   0.200   3.057  0.0310 -0.9925 -0.4567
 2901TIP3    H130118   1.614   0.178   2.968 -0.7218  2.9216 -1.8362
 2901TIP3    H230119   1.492   0.199   3.055 -0.0268  0.8123 -0.2776
 2902TIP3   OH230120   2.650   0.490  16.062 -0.1691 -0.5771 -0.4312
 2902TIP3    H130121   2.661   0.422  16.128 -0.9181  2.5858  3.3641
 2902TIP3    H230122   2.727   0.546  16.073 -2.0526  2.0334  0.6139
 2903TIP3   OH230123   4.202   2.003  15.474  0.0189  0.1170 -0.1940
 2903TIP3    H130124   4.126   1.959  15.437  0.2472 -0.4027 -0.0498
 2903TIP3    H230125   4.166   2.080  15.518 -0.2577  0.7705 -1.5047
 2904TIP3   OH230126   5.297   0.735  15.147 -0.1817  0.0013  0.2017
 2904TIP3    H130127   5.339   0.688  15.074 -0.0034 -0.4237  0.5727
 2904TIP3    H230128   5.259   0.665  15.201  0.8570  0.2161  1.2429
 2905TIP3   OH230129   2.159   0.514   4.812  0.5977  0.2783  0.2908
 2905TIP3    H130130   2.206   0.588   4.850  1.3278 -0.3717  0.6903
 2905TIP3    H230131   2.121   0.549   4.732  0.4787  1.2205  0.7429
 2906TIP3   OH230132   0.085   4.177  14.853  0.4523 -0.0889  0.1074
 2906TIP3    H130133   0.084   4.218  14.939 -0.2685 -1.4654  0.7987
 2906TIP3    H230134   0.171   4.197  14.817  0.1350  1.9809  0.3839
 2907TIP3   OH230135   6.252   6.151   3.765 -0.0536  0.0413 -0.4797
 2907TIP3    H130136   6.307   6.202   3.824 -0.7922  0.8663 -0.4917
 2907TIP3    H230137   6.218   6.215   3.703 -1.5912 -0.3352 -0.0543
 2908TIP3   OH230138   6.432   5.005  14.829 -0.0656  0.1635 -0.0880
 2908TIP3    H130139   6.439   4.930  14.770 -1.7007  0.6163 -0.9119
 2908TIP3    H230140   6.437   4.967  14.917  0.8734 -0.6905 -0.4852
 2909TIP3   OH230141   4.417   5.878   6.259  0.2590 -0.0634 -0.7426
 2909TIP3    H130142   4.453   5.966   6.254 -0.2552  0.0612 -3.6266
 2909TIP3    H230143   4.485   5.826   6.302  0.8057  1.5683  0.4410
 2910TIP3   OH230144   6.524   1.757  14.400  0.1378  0.3305  0.2496
 2910TIP3    H130145   6.539   1.847  14.429 -0.5311  0.0837  1.4289
 2910TIP3    H230146   6.452   1.726  14.456 -2.2757  0.2933 -2.6563
 2911TIP3   OH230147   0.657   5.919   2.733 -1.4184  0.4789  0.2698
 2911TIP3    H130148   0.622   5.958   2.813 -0.6871  1.4487  0.1364
 2911TIP3    H230149   0.580   5.904   2.679 -1.9810 -0.7341  1.3705
 2912TIP3   OH230150   3.704   0.026   4.379 -0.0141  0.2641 -0.4303
 2912TIP3    H130151   3.653   0.061   4.453 -0.0067  0.4107 -0.4939
 2912TIP3    H230152   3.671  -0.063   4.368 -0.4765  0.4560 -0.6660
 2913TIP3   OH230153   3.048   2.085  13.215  0.7131  0.0652 -0.0516
 2913TIP3    H130154   3.115   2.115  13.276  1.1434 -1.7811  0.4525
 2913TIP3    H230155   3.092   2.020  13.161 -0.5698 -0.9493  0.0698
 2914TIP3   OH230156   6.452   1.910   2.094 -0.4117  0.4331 -0.8372
 2914TIP3    H130157   6.413   1.970   2.032 -0.4990  0.9619 -0.2831
 2914TIP3    H230158   6.489   1.966   2.162  1.1207 -0.0580 -1.2289
 2915TIP3   OH230159   0.408   3.842  11.167  0.1783 -0.4767  0.0080
 2915TIP3    H130160   0.349   3.876  11.234  0.7422 -1.9099  1.2927
 2915TIP3    H230161   0.389   3.895  11.089 -1.8218 -0.0009  0.7543
 2916TIP3   OH230162   2.020   4.533  12.157  0.6918  0.0819  0.6111
 2916TIP3    H130163   2.058   4.472  12.094 -0.2372 -1.7351  1.7216
 2916TIP3    H230164   1.998   4.611  12.106  2.6925 -0.1429 -0.6941
 2917TIP3   OH230165   1.869   2.338   1.825 -0.9059  0.2807  0.1506
 2917TIP3    H130166   1.862   2.286   1.905  2.8788  0.6541  0.9222
 2917TIP3    H230167   1.922   2.414   1.851  0.0497  0.6386 -2.5682
 2918TIP3   OH230168   2.224   6.700  14.481  0.0678  0.2805 -0.6606
 2918TIP3    H130169   2.151   6.760  14.468  0.3543  0.7176 -0.3034
 2918TIP3    H230170   2.186   6.612  14.473 -0.7383  0.4763  0.7478
 2919TIP3   OH230171   2.179   1.940   2.507  0.8394 -0.0189  0.3943
 2919TIP3    H130172   2.186   1.937   2.603  0.2625 -2.0462  0.4208
 2919TIP3    H230173   2.270   1.933   2.477  1.0690  1.1238  0.7738
 2920TIP3   OH230174   1.204   6.052   2.026 -0.1589 -0.0547  0.1113
 2920TIP3    H130175   1.142   6.085   1.961 -0.4521 -1.4571 -0.3538
 2920TIP3    H230176   1.288   6.091   2.002  0.2312 -2.2462 -2.5140
 2921TIP3   OH230177   3.228   1.780   0.342 -0.1700  0.1034 -0.6946
 2921TIP3    H130178   3.211   1.871   0.366 -0.0391 -0.2505  0.8297
 2921TIP3    H230179   3.239   1.734   0.425  1.2874 -1.0306 -1.4473
 2922TIP3   OH230180   3.362   3.244  12.047  0.0026  0.2456 -0.5384
 2922TIP3    H130181   3.395   3.331  12.071  0.1623  0.1374 -0.3633
 2922TIP3    H230182   3.355   3.247  11.951  0.0236  0.4437 -0.5346
 2923TIP3   OH230183   0.715   2.295  14.909 -0.0203  0.1029 -0.3817
 2923TIP3    H130184   0.740   2.243  14.985  0.1656  0.5188 -0.1539
 2923TIP3    H230185   0.777   2.269  14.840  1.4592  1.5594  0.3503
 2924TIP3   OH230186   4.991   0.000  12.166  0.2000  0.2506  0.2031
 2924TIP3    H130187   4.937  -0.076  12.145  1.1053 -0.2555 -0.3669
 2924TIP3    H230188   4.950   0.073  12.119  0.4642 -0.2895 -0.9026
 2925TIP3   OH230189   5.280   1.551   5.453 -0.0412  0.0370 -0.1776
 2925TIP3    H130190   5.283   1.568   5.548  0.0834  0.7384 -0.2983
 2925TIP3    H230191   5.358   1.499   5.436  0.1241  0.1997  0.0577
 2926TIP3   OH230192   2.809   5.345   0.378  0.0182 -0.3746 -0.5858
 2926TIP3    H130193   2.753   5.416   0.409 -1.8865 -1.6702 -0.8831
 2926TIP3    H230194   2.873   5.387   0.321  0.4886  1.3869  1.1581
 2927TIP3   OH230195   3.185   2.898   3.780  0.5342  0.6632  0.3087
 2927TIP3    H130196   3.098   2.927   3.807  0.3251 -0.7242  1.2249
 2927TIP3    H230197   3.169   2.836   3.710  0.8269  0.8458  0.0773
 2928TIP3   OH230198   2.254   1.474  15.582 -0.1869  0.2304 -0.2296
 2928TIP3    H130199   2.223   1.407  15.643 -1.5616  0.0235 -1.1044
 2928TIP3    H230200   2.349   1.475  15.593 -0.3219 -0.4527  1.2214
 2929TIP3   OH230201   1.838   4.816  16.258  0.5465 -0.0312 -0.3416
 2929TIP3    H130202   1.785   4.763  16.318 -0.1799 -0.9985 -1.7629
 2929TIP3    H230203   1.920   4.831  16.305 -0.7748  1.1624  1.7724
 2930TIP3   OH230204   1.411   0.964   5.102  0.4260  0.5593  0.2531
 2930TIP3    H130205   1.470   0.892   5.123  0.1544  0.1892 -0.2446
 2930TIP3    H230206   1.468   1.032   5.065  0.4401 -0.1037 -0.9779
 2931TIP3   OH230207   1.161   0.111   1.135 -0.3567 -0.0904  0.5016
 2931TIP3    H130208   1.087   0.074   1.182 -1.8592  0.9380 -0.9458
 2931TIP3    H230209   1.236   0.056   1.160 -2.2295 -3.4480 -0.6906
 2932TIP3   OH230210   3.478   4.088  14.934 -0.0786 -0.3446 -0.1065
 2932TIP3    H130211   3.491   4.044  15.018 -0.1351  1.5576  0.9543
 2932TIP3    H230212   3.425   4.165  14.955  0.7144  0.7063 -1.7224
 2933TIP3   OH230213   1.594   5.103  16.866 -0.5144 -0.5223  0.1935
 2933TIP3    H130214   1.634   5.147  16.791  1.9133 -2.4328  0.2466
 2933TIP3    H230215   1.587   5.170  16.933 -1.9521  1.0244 -1.4049
 2934TIP3   OH230216   6.805   4.039   2.380 -0.1291 -0.2231 -0.2836
 2934TIP3    H130217   6.883   4.063   2.330  0.1053  0.2431  0.2817
 2934TIP3    H230218   6.837   4.030   2.470 -1.0262  1.8220  0.3100
 2935TIP3   OH230219   4.321   4.421   0.440  0.1241  0.2057  0.0963
 2935TIP3    H130220   4.244   4.470   0.470 -0.1412 -0.8793  1.2354
 2935TIP3    H230221   4.332   4.448   0.348  0.2036  2.6651  0.7467
 2936TIP3   OH230222   2.910   1.174   5.233  0.1432  0.0433  0.3249
 2936TIP3    H130223   2.890   1.224   5.153  0.2777  0.8093  0.7679
 2936TIP3    H230224   3.005   1.164   5.232  0.0019 -1.5718 -0.5637
 2937TIP3   OH230225   5.042   3.559   6.616 -0.5807 -0.0657 -0.2881
 2937TIP3    H130226   4.982   3.553   6.541 -1.0560 -1.1685  0.1561
 2937TIP3    H230227   5.042   3.471   6.653 -0.6097  0.5354  1.2155
 2938TIP3   OH230228   3.100   2.663   1.178 -0.5285 -0.0292 -0.0671
 2938TIP3    H130229   3.181   2.700   1.144  0.1316 -1.0818  0.3367
 2938TIP3    H230230   3.045   2.739   1.197  1.2357  0.8465  1.8710
 2939TIP3   OH230231   4.058   4.013   2.775  0.3618 -0.0475  0.2332
 2939TIP3    H130232   3.972   3.971   2.780  1.1849 -1.7205  1.8391
 2939TIP3    H230233   4.084   4.004   2.683 -0.6923 -0.5592 -0.0273
 2940TIP3   OH230234   0.223   2.381   3.473  0.8712 -0.1868 -0.2976
 2940TIP3    H130235   0.202   2.442   3.403 -0.0990 -0.3227 -0.1365
 2940TIP3    H230236   0.305   2.341   3.445  0.6797  0.0105 -1.1933
 2941TIP3   OH230237   3.203   5.910   5.845 -0.2237 -0.1118 -0.2706
 2941TIP3    H130238   3.213   6.002   5.819 -1.9961 -0.1758 -1.4058
 2941TIP3    H230239   3.244   5.905   5.932  0.6725  1.5337 -0.5494
 2942TIP3   OH230240   6.681   2.738   3.020  0.0461 -0.2270 -0.5294
 2942TIP3    H130241   6.721   2.662   3.065  0.4991  0.3423  0.0603
 2942TIP3    H230242   6.590   2.713   3.007 -0.3628 -0.0704  1.5952
 2943TIP3   OH230243   5.874   5.364  16.663  0.4849 -0.6361  0.5198
 2943TIP3    H130244   5.883   5.457  16.680  0.5430 -0.2109 -1.5912
 2943TIP3    H230245   5.855   5.325  16.749  0.2312  1.3249  1.3933
 2944TIP3   OH230246   2.152   6.390  13.211 -0.4982  0.2790  0.7996
 2944TIP3    H130247   2.226   6.334  13.235 -0.6651 -0.3133 -0.0277
 2944TIP3    H230248   2.189   6.454  13.151 -0.7522 -0.4085 -0.1265
 2945TIP3   OH230249   4.156   2.660   2.446  0.4668 -0.5142  0.6369
 2945TIP3    H130250   4.212   2.596   2.402  0.5524 -0.4425  0.6402
 2945TIP3    H230251   4.214   2.734   2.464  0.4307 -0.5429  0.8696
 2946TIP3   OH230252   1.614   0.202   1.879  0.3719  0.9960 -0.0582
 2946TIP3    H130253   1.666   0.199   1.959  0.1667 -0.1388  0.0589
 2946TIP3    H230254   1.667   0.252   1.817  0.8693  1.2340  0.5561
 2947TIP3   OH230255   3.552   5.591   1.100 -0.9178  0.3096  0.2741
 2947TIP3    H130256   3.642   5.598   1.131 -1.1974 -1.2605  1.5489
 2947TIP3    H230257   3.546   5.657   1.031  0.7289  1.5775  1.2512
 2948TIP3   OH230258   4.167   1.327   0.118 -0.5487 -0.0173 -0.6913
 2948TIP3    H130259   4.248   1.278   0.132 -0.4553  0.0670 -0.9362
 2948TIP3    H230260   4.099   1.273   0.158 -0.2229  0.4316  0.5264
 2949TIP3   OH230261   5.737   3.499  15.002  0.0446 -0.0551  0.4117
 2949TIP3    H130262   5.801   3.429  14.995  0.7909  0.3642  2.4246
 2949TIP3    H230263   5.757   3.543  15.085 -1.3581  1.5829 -0.0354
 2950TIP3   OH230264   6.697   1.150  16.034  0.0705  0.2478  0.2299
 2950TIP3    H130265   6.719   1.105  15.952  0.3564 -1.9245  1.4011
 2950TIP3    H230266   6.773   1.203  16.054  0.3434  0.1398 -0.4924
 2951TIP3   OH230267   6.608   3.430  12.548 -0.3205 -0.0052  0.4712
 2951TIP3    H130268   6.608   3.433  12.452 -1.5628  0.4483  0.4772
 2951TIP3    H230269   6.691   3.472  12.572  1.5427 -2.8543 -0.4211
 2952TIP3   OH230270   0.103   1.014  14.118  0.3627  0.4358  0.2667
 2952TIP3    H130271   0.031   0.953  14.103 -0.3313  1.3971 -0.4435
 2952TIP3    H230272   0.070   1.074  14.186  0.3852  1.0204 -0.2274
 2953TIP3   OH230273   0.344   6.308  16.830  0.3364 -0.6028  0.0755
 2953TIP3    H130274   0.279   6.290  16.897 -1.8651  1.5247 -1.2963
 2953TIP3    H230275   0.409   6.365  16.872 -1.1550  0.9176  0.4158
 2954TIP3   OH230276   4.146   4.169  11.501  0.0464  0.1758 -0.0066
 2954TIP3    H130277   4.061   4.210  11.483 -0.5459  0.1996  2.4358
 2954TIP3    H230278   4.197   4.237  11.545  1.9095  0.6041 -2.6375
 2955TIP3   OH230279   4.200   4.447   1.928  0.1640  0.0563 -0.4344
 2955TIP3    H130280   4.151   4.368   1.950  0.6524 -0.5404 -1.4182
 2955TIP3    H230281   4.139   4.499   1.875 -0.0770  0.2456  0.0203
 2956TIP3   OH230282   0.213   4.988   4.318 -0.2067 -0.0212 -0.0432
 2956TIP3    H130283   0.304   4.962   4.328  0.6608  1.4670 -2.9702
 2956TIP3    H230284   0.184   5.009   4.407  1.6382 -2.3757  1.2185
 2957TIP3   OH230285   0.049   5.257  13.755 -0.3560  0.7762 -0.5480
 2957TIP3    H130286   0.035   5.333  13.698 -0.3737  0.6507 -0.7100
 2957TIP3    H230287   0.040   5.182  13.698  1.1215  0.6824 -0.6974
 2958TIP3   OH230288   6.225   1.297  12.640 -0.1041  0.3523 -0.1999
 2958TIP3    H130289   6.226   1.390  12.617 -0.7288  0.2965 -0.4844
 2958TIP3    H230290   6.155   1.289  12.705 -0.5596 -0.0336 -0.7224
 2959TIP3   OH230291   4.483   4.551  13.321 -0.0327 -0.1685  0.0836
 2959TIP3    H130292   4.526   4.581  13.241 -1.3646  1.9131  0.0819
 2959TIP3    H230293   4.403   4.508  13.291  0.9478 -2.2172  0.2001
 2960TIP3   OH230294   0.733   4.746   0.241  0.0699  0.6325  0.0481
 2960TIP3    H130295   0.814   4.796   0.242 -1.1457  2.7840 -1.0994
 2960TIP3    H230296   0.761   4.654   0.236  2.3928  1.2458  0.7311
 2961TIP3   OH230297   5.597   4.177  16.006  0.2971 -0.0278  0.1988
 2961TIP3    H130298   5.617   4.106  15.945 -0.8256  0.7395 -1.1230
 2961TIP3    H230299   5.615   4.257  15.957  1.8987  0.6550  1.7848
 2962TIP3   OH230300   3.651   1.207  15.050  0.1619 -0.1381  0.1839
 2962TIP3    H130301   3.619   1.120  15.074  0.1184 -0.3102 -0.4736
 2962TIP3    H230302   3.603   1.267  15.107  0.2107 -0.5466  0.6569
 2963TIP3   OH230303   4.028   5.149   4.734 -0.0569 -0.1558 -0.3409
 2963TIP3    H130304   4.104   5.203   4.711 -0.4980  0.9669  0.6939
 2963TIP3    H230305   4.042   5.066   4.688  0.9430  0.6309 -1.5073
 2964TIP3   OH230306   4.117   6.565   4.260  0.2970 -0.3105 -0.2128
 2964TIP3    H130307   4.052   6.568   4.331  0.7044  0.4707  0.1464
 2964TIP3    H230308   4.120   6.655   4.227  1.7006 -0.1488  0.2606
 2965TIP3   OH230309   0.938   2.209   3.738  0.4320 -0.0329  0.3147
 2965TIP3    H130310   0.985   2.287   3.768 -0.9401  0.6682  0.7160
 2965TIP3    H230311   0.932   2.220   3.643 -0.1751  0.6072  0.4202
 2966TIP3   OH230312   4.064   2.345  15.017 -0.1936 -0.0233 -0.3593
 2966TIP3    H130313   4.000   2.294  14.967 -0.3800 -0.9632  0.7760
 2966TIP3    H230314   4.014   2.418  15.053 -0.3094  0.0326 -0.6339
 2967TIP3   OH230315   4.505   4.614   2.905 -0.2198 -0.2533 -0.7284
 2967TIP3    H130316   4.554   4.542   2.942  0.8307  0.6043 -0.3892
 2967TIP3    H230317   4.441   4.638   2.972  1.8515  1.4730  0.7434
 2968TIP3   OH230318   3.367   6.782  11.857 -0.2583 -0.5969  0.1225
 2968TIP3    H130319   3.275   6.771  11.833 -0.3275 -1.4967  0.7659
 2968TIP3    H230320   3.414   6.771  11.775 -0.6604 -1.1263 -0.0457
 2969TIP3   OH230321   3.726   4.651  12.428 -0.2225  0.0746  0.1992
 2969TIP3    H130322   3.660   4.703  12.383 -0.3115  0.5714  0.8875
 2969TIP3    H230323   3.685   4.566  12.442 -0.3799  0.0841 -0.1945
 2970TIP3   OH230324   5.553   1.609  10.873  0.3000 -0.2949  0.2225
 2970TIP3    H130325   5.620   1.546  10.848 -0.4359 -2.1187  2.4507
 2970TIP3    H230326   5.582   1.642  10.958  0.2329  1.8035 -0.5119
 2971TIP3   OH230327   4.943   0.963  11.298  0.1042  0.4243 -0.7966
 2971TIP3    H130328   4.868   1.021  11.290 -1.6794 -1.8438 -1.6143
 2971TIP3    H230329   4.954   0.926  11.210  1.2873 -0.3496 -0.3484
 2972TIP3   OH230330   5.832   0.986  11.966 -0.2588 -0.2635  0.0184
 2972TIP3    H130331   5.843   1.051  11.897  0.7231 -0.0765  0.3364
 2972TIP3    H230332   5.921   0.955  11.985 -0.5518 -0.6050  0.9162
 2973TIP3   OH230333   5.324   5.702  14.040  0.0614 -0.8272  0.5659
 2973TIP3    H130334   5.287   5.676  14.124  1.0641 -1.8419  0.7186
 2973TIP3    H230335   5.382   5.776  14.060 -1.7623  0.7406  0.3314
 2974TIP3   OH230336   6.530   3.070  16.626 -0.7087 -0.1151 -0.4022
 2974TIP3    H130337   6.545   3.075  16.721  0.9759 -1.4392 -0.5513
 2974TIP3    H230338   6.441   3.036  16.618 -1.9315  2.5812  0.6255
 2975TIP3   OH230339   0.627   6.229   2.786 -0.1186 -0.3545  0.5669
 2975TIP3    H130340   0.703   6.284   2.805 -0.5522 -0.4214  2.7020
 2975TIP3    H230341   0.553   6.289   2.787 -0.3414 -0.6306  0.5727
 2976TIP3   OH230342   3.178   4.650   5.634 -0.4740 -0.3433 -0.2015
 2976TIP3    H130343   3.155   4.559   5.652 -0.9157 -0.1466  0.2502
 2976TIP3    H230344   3.101   4.700   5.660 -1.2549 -0.0268 -2.8112
 2977TIP3   OH230345   3.552   2.681   6.061  0.2954  0.1348 -0.5134
 2977TIP3    H130346   3.487   2.635   6.008  0.3734 -0.1878 -0.3284
 2977TIP3    H230347   3.557   2.768   6.022  1.3127 -0.4966 -1.8608
 2978TIP3   OH230348   1.331   5.237   3.746  0.3027 -0.7125  0.0245
 2978TIP3    H130349   1.250   5.187   3.733  0.8712 -2.0055  1.0818
 2978TIP3    H230350   1.352   5.272   3.660 -2.1415  0.9104 -0.0040
 2979TIP3   OH230351   0.848   2.847  15.295  0.5394 -0.2038 -0.0193
 2979TIP3    H130352   0.820   2.885  15.378  1.9127  1.2119 -0.1725
 2979TIP3    H230353   0.886   2.763  15.319 -2.8774 -1.8321  0.2917
 2980TIP3   OH230354   3.038   5.414  12.497 -0.0035  0.6383 -0.5545
 2980TIP3    H130355   3.031   5.392  12.589  0.2927  3.2097  0.1699
 2980TIP3    H230356   3.075   5.336  12.456 -1.2107 -0.9660  1.2747
 2981TIP3   OH230357   4.654   1.001  12.957  0.0324  0.5653 -0.3906
 2981TIP3    H130358   4.743   0.999  12.924 -0.5529 -0.9205 -2.0680
 2981TIP3    H230359   4.650   0.930  13.021  0.0396  0.5827 -0.3711
 2982TIP3   OH230360   6.338   6.674  13.150  0.0911  0.2279  0.4211
 2982TIP3    H130361   6.271   6.741  13.135 -0.6568 -0.5036  0.4170
 2982TIP3    H230362   6.337   6.620  13.071  0.7095  0.2190  0.4116
 2983TIP3   OH230363   5.239   3.971   5.803  0.2108 -0.0658  0.2175
 2983TIP3    H130364   5.334   3.958   5.802  0.1854 -0.4587 -2.2063
 2983TIP3    H230365   5.226   4.057   5.764 -0.4760 -1.1807 -2.2168
 2984TIP3   OH230366   0.401   3.146   0.727  0.3701 -0.2510  0.0267
 2984TIP3    H130367   0.367   3.111   0.644  0.1990  0.2448 -0.1205
 2984TIP3    H230368   0.404   3.241   0.713 -0.7759 -0.0426  0.9848
 2985TIP3   OH230369   1.872   4.461  12.924  0.3673  0.2759  0.6309
 2985TIP3    H130370   1.812   4.388  12.940 -0.3573  0.8395  0.5450
 2985TIP3    H230371   1.891   4.456  12.830  0.9181 -0.2398  0.7615
 2986TIP3   OH230372   3.506   3.306  13.764 -0.1372  0.2621 -0.6020
 2986TIP3    H130373   3.462   3.367  13.704 -1.9905 -1.1373 -0.7537
 2986TIP3    H230374   3.447   3.301  13.839  1.0738  0.2897  0.3746
 2987TIP3   OH230375   4.242   3.541  13.500 -0.3203 -0.2517  0.2831
 2987TIP3    H130376   4.264   3.621  13.453 -1.0674  1.4388  2.6010
 2987TIP3    H230377   4.325   3.493  13.507  0.3398  0.7683 -0.3462
 2988TIP3   OH230378   3.140   0.038  11.411  0.5288  0.1290 -0.2342
 2988TIP3    H130379   3.071   0.104  11.408  0.5225  0.0883 -1.0599
 2988TIP3    H230380   3.117  -0.017  11.486  0.6476  1.1804  0.5996
 2989TIP3   OH230381   4.292   2.143   5.242 -0.6119 -0.7796  0.6683
 2989TIP3    H130382   4.386   2.151   5.226 -1.0588  1.1965 -1.6984
 2989TIP3    H230383   4.270   2.055   5.211  0.4049 -1.1173  0.8832
 2990TIP3   OH230384   0.427   2.726  15.560  0.5495 -0.2156 -0.0651
 2990TIP3    H130385   0.463   2.640  15.579  0.2646 -0.3751 -0.2270
 2990TIP3    H230386   0.459   2.747  15.472  1.3158  0.2236  0.3111
 2991TIP3   OH230387   0.029   0.582  12.323  0.1556  0.0066  0.1399
 2991TIP3    H130388  -0.048   0.640  12.316  1.8873  2.5871  1.0198
 2991TIP3    H230389   0.001   0.512  12.382 -1.8034  0.3228 -0.3463
 2992TIP3   OH230390   0.723   2.883   5.267  0.3368  0.1665 -0.0236
 2992TIP3    H130391   0.665   2.946   5.223 -0.3525 -1.5385 -1.6871
 2992TIP3    H230392   0.804   2.885   5.216  0.9571  0.9029  0.9498
 2993TIP3   OH230393   1.280   6.154  14.418 -0.0054  0.4865  0.1248
 2993TIP3    H130394   1.253   6.064  14.438  1.3609 -0.2920 -1.3419
 2993TIP3    H230395   1.262   6.203  14.499  0.3410 -1.3528  1.3683
 2994TIP3   OH230396   4.438   0.368  14.996  0.1207 -0.4929 -0.2045
 2994TIP3    H130397   4.523   0.323  14.996  0.5632  0.2233 -2.4422
 2994TIP3    H230398   4.415   0.376  14.904 -0.6969  2.4250  0.1396
 2995TIP3   OH230399   2.189   2.211   2.240  0.4141 -0.4809 -0.7717
 2995TIP3    H130400   2.131   2.244   2.309 -0.6636 -0.2448 -1.7483
 2995TIP3    H230401   2.142   2.134   2.205  1.8736 -1.8066  0.0510
 2996TIP3   OH230402   4.394   4.947   1.957 -0.2173 -0.2758  0.4533
 2996TIP3    H130403   4.340   4.999   2.016 -3.0753 -0.9081 -1.3657
 2996TIP3    H230404   4.345   4.866   1.945  1.3857 -1.0997 -0.9661
 2997TIP3   OH230405   3.322   6.761   2.608  0.3897 -0.0945 -0.5663
 2997TIP3    H130406   3.239   6.805   2.622  0.2097 -0.8589  0.9526
 2997TIP3    H230407   3.373   6.821   2.554 -0.9926  0.5540 -1.1873
 2998TIP3   OH230408   3.561   2.475   6.486 -0.0477 -0.4450 -0.0326
 2998TIP3    H130409   3.563   2.457   6.580 -1.4300  0.4035  0.1973
 2998TIP3    H230410   3.621   2.548   6.474  1.5170 -1.6955 -0.1296
 2999TIP3   OH230411   2.066   4.589  10.529 -0.5223  0.0320  0.2930
 2999TIP3    H130412   2.035   4.639  10.453 -1.0532 -0.3728  0.2382
 2999TIP3    H230413   2.139   4.537  10.495  0.5257  1.3152  0.5220
 3000TIP3   OH230414   5.895   6.012   1.895  0.7287 -0.1977 -0.2852
 3000TIP3    H130415   5.827   6.079   1.907  2.9994  2.1702  0.3687
 3000TIP3    H230416   5.893   5.993   1.802 -0.3083  0.3830 -0.4048
 3001TIP3   OH230417   2.362   2.149   5.947  0.1578 -0.9010  0.3769
 3001TIP3    H130418   2.266   2.152   5.937  0.0081  0.4575  1.7697
 3001TIP3    H230419   2.396   2.186   5.866 -0.6378  1.2729  0.9599
 3002TIP3   OH230420   5.613   6.416  10.902  0.0868 -0.0015  0.3190
 3002TIP3    H130421   5.635   6.365  10.825  0.3508  0.5680  0.0059
 3002TIP3    H230422   5.517   6.415  10.906 -0.0098  1.3469 -0.9910
 3003TIP3   OH230423   1.193   6.532   0.427 -0.4653 -0.5978 -0.9787
 3003TIP3    H130424   1.274   6.482   0.422 -0.3264 -0.3169 -1.8172
 3003TIP3    H230425   1.164   6.540   0.336 -0.5928  0.6551 -0.8500
 3004TIP3   OH230426   0.409   6.665  12.484 -0.6701 -0.2249 -0.4206
 3004TIP3    H130427   0.393   6.576  12.453  0.6478 -0.5391 -0.2918
 3004TIP3    H230428   0.493   6.659  12.530 -1.3607  0.7437  1.0525
 3005TIP3   OH230429   0.573   2.002   4.535  0.6208 -0.1479  0.3204
 3005TIP3    H130430   0.596   2.091   4.564  0.6991  0.2198 -0.8197
 3005TIP3    H230431   0.567   2.009   4.440 -1.4718 -0.8896  0.3609
 3006TIP3   OH230432   4.757   1.699  14.555  0.2107 -0.1487 -0.1844
 3006TIP3    H130433   4.763   1.702  14.459 -2.3076  1.4390 -0.3976
 3006TIP3    H230434   4.742   1.790  14.581 -1.5594 -0.8356  1.4500
 3007TIP3   OH230435   3.863   3.064  16.547 -0.7578  0.7397 -0.1673
 3007TIP3    H130436   3.938   3.070  16.488  0.2301 -2.3806  0.6124
 3007TIP3    H230437   3.787   3.060  16.489 -0.0390  0.4260 -1.1092
 3008TIP3   OH230438   2.063   2.084  13.857  0.3897 -0.1352  0.1446
 3008TIP3    H130439   1.977   2.097  13.897  0.1322  0.5410 -0.6025
 3008TIP3    H230440   2.045   2.035  13.777  0.5479  0.9626 -0.5881
 3009TIP3   OH230441   4.809   3.237  17.063  0.2161  0.2382  0.2460
 3009TIP3    H130442   4.781   3.162  17.115 -0.4947  0.1398 -0.2674
 3009TIP3    H230443   4.785   3.215  16.973 -1.1848  1.6018  0.2341
 3010TIP3   OH230444   3.830   6.599  16.731  0.1672  0.2354  0.1902
 3010TIP3    H130445   3.765   6.541  16.771  0.6465  1.0101  2.2692
 3010TIP3    H230446   3.880   6.543  16.672  1.1458 -1.7651  2.7001
 3011TIP3   OH230447   5.393   3.811   5.349  0.3593 -0.9162  0.9000
 3011TIP3    H130448   5.404   3.719   5.373  1.7119 -0.9029  0.4019
 3011TIP3    H230449   5.459   3.858   5.401  1.1811 -0.5102 -0.4691
 3012TIP3   OH230450   1.126   2.100  11.102 -0.1044  0.1973 -0.0186
 3012TIP3    H130451   1.168   2.108  11.016  1.2806 -0.3958  0.5816
 3012TIP3    H230452   1.184   2.042  11.152  1.1331  3.3928  2.5783
 3013TIP3   OH230453   4.924   2.321  14.818  0.3312  0.0507  0.4060
 3013TIP3    H130454   4.843   2.269  14.810  0.6811 -0.6395  1.1901
 3013TIP3    H230455   4.898   2.409  14.793 -1.1965  0.3014  2.5593
 3014TIP3   OH230456   5.689   4.456   2.246  0.6634  0.3701 -0.4597
 3014TIP3    H130457   5.619   4.426   2.187  3.3849 -1.0026 -3.2625
 3014TIP3    H230458   5.725   4.534   2.204  0.9345  1.0017  0.8845
 3015TIP3   OH230459   1.307   1.138   4.025 -0.2086  0.1826 -0.0476
 3015TIP3    H130460   1.288   1.070   4.090 -0.5864 -2.1576 -2.4522
 3015TIP3    H230461   1.239   1.204   4.039 -3.7203 -2.8258 -1.3853
 3016TIP3   OH230462   0.284   5.939   0.977  0.4425 -0.1913  0.6459
 3016TIP3    H130463   0.221   5.926   0.906  1.8037 -2.1283 -0.2973
 3016TIP3    H230464   0.237   5.911   1.056  0.1283 -1.7281 -0.0535
 3017TIP3   OH230465   2.604   4.997   4.167 -0.1028 -0.1344 -0.6861
 3017TIP3    H130466   2.610   5.091   4.147  0.3531  0.1814  0.8141
 3017TIP3    H230467   2.531   4.991   4.229 -0.0132 -0.7604 -0.6377
 3018TIP3   OH230468   3.992   4.295   2.029 -0.1740  0.0290  0.2172
 3018TIP3    H130469   3.934   4.368   2.050 -0.5488 -0.0105 -0.6561
 3018TIP3    H230470   3.981   4.234   2.103 -0.2706  0.5960  0.6815
 3019TIP3   OH230471   0.317   0.221  11.025  0.2322 -0.2413 -0.2155
 3019TIP3    H130472   0.295   0.299  10.974  1.3076 -0.2007 -0.6588
 3019TIP3    H230473   0.383   0.177  10.972  0.2906 -0.9785  0.4641
 3020TIP3   OH230474   2.618   6.662  12.516 -0.7440 -0.1360  0.0412
 3020TIP3    H130475   2.548   6.676  12.452 -0.5760 -0.7718 -0.2944
 3020TIP3    H230476   2.688   6.620  12.466 -0.1900  0.3179  0.4154
 3021TIP3   OH230477   6.725   2.290   5.616  0.0123 -0.1002 -0.6098
 3021TIP3    H130478   6.700   2.212   5.665 -1.6396  0.8436  0.1349
 3021TIP3    H230479   6.697   2.272   5.526 -1.9893  0.2483 -0.1158
 3022TIP3   OH230480   5.861   1.733   1.565  0.0530  0.3936  0.2169
 3022TIP3    H130481   5.945   1.766   1.532  1.6024 -0.4707  2.9850
 3022TIP3    H230482   5.803   1.809   1.560  0.6676  0.8029 -2.5404
 3023TIP3   OH230483   3.458   6.788   4.106 -0.2139  0.4402 -0.3688
 3023TIP3    H130484   3.400   6.831   4.042 -0.3604  1.0767  0.1825
 3023TIP3    H230485   3.412   6.799   4.190 -0.6408 -1.4779 -0.3159
 3024TIP3   OH230486   1.030   3.459   1.457 -0.0322  0.1323  0.5188
 3024TIP3    H130487   0.988   3.374   1.473 -1.0380  0.6526  0.6904
 3024TIP3    H230488   1.029   3.503   1.541 -0.0944  0.5762  0.2866
 3025TIP3   OH230489   0.124   1.178   0.012 -0.2114 -0.2768 -0.4778
 3025TIP3    H130490   0.062   1.117  -0.029  0.2878 -1.1690  0.0738
 3025TIP3    H230491   0.209   1.136   0.003 -0.1912 -1.0748  2.4228
 3026TIP3   OH230492   0.649   0.220   2.293 -0.2337 -0.2101 -0.0315
 3026TIP3    H130493   0.682   0.166   2.222 -0.2683 -1.3300  0.7895
 3026TIP3    H230494   0.554   0.211   2.287 -0.2072 -1.1380  0.7754
 3027TIP3   OH230495   5.165   2.589   2.898 -0.3892  0.1675 -0.4268
 3027TIP3    H130496   5.161   2.514   2.957  0.3670  1.0521  0.7919
 3027TIP3    H230497   5.253   2.586   2.860 -0.3526  0.4226 -0.3708
 3028TIP3   OH230498   3.496   3.424  15.416 -0.5864 -0.0596  0.2315
 3028TIP3    H130499   3.428   3.461  15.474 -0.6486 -1.1148  0.8557
 3028TIP3    H230500   3.447   3.373  15.352 -0.4320  0.0440  0.0302
 3029TIP3   OH230501   4.791   0.399   5.741  0.2937 -0.2103  0.3039
 3029TIP3    H130502   4.702   0.372   5.721  0.1448 -0.0931  0.7829
 3029TIP3    H230503   4.796   0.491   5.716 -0.8437  0.8872  3.5233
 3030TIP3   OH230504   2.025   1.752  12.508 -0.0167 -0.1782 -0.0806
 3030TIP3    H130505   2.103   1.784  12.462 -0.7896  1.4074 -0.3617
 3030TIP3    H230506   2.020   1.804  12.588 -1.0461  0.0909 -0.3014
 3031TIP3   OH230507   0.939   3.475   3.875 -0.7265 -0.5082 -0.0232
 3031TIP3    H130508   0.911   3.565   3.864 -0.1037 -0.3849 -0.6340
 3031TIP3    H230509   0.966   3.447   3.788 -0.5703 -1.1702  0.2303
 3032TIP3   OH230510   3.639   2.994   4.810  0.0257 -0.2515 -0.4991
 3032TIP3    H130511   3.635   3.012   4.716  0.0465  0.7642 -0.3174
 3032TIP3    H230512   3.725   3.025   4.837  0.5208 -1.6959 -0.3613
 3033TIP3   OH230513   6.801   4.987  16.288  0.1578 -0.5226 -0.1341
 3033TIP3    H130514   6.844   4.932  16.353  1.5980  0.0044 -0.5992
 3033TIP3    H230515   6.714   4.950  16.278  0.8452 -2.2643  0.1017
 3034TIP3   OH230516   2.977   6.410  12.717  0.1366  0.5466  0.3214
 3034TIP3    H130517   2.985   6.315  12.729 -0.0121  0.5333  0.3166
 3034TIP3    H230518   3.055   6.446  12.760 -0.2805  0.4838  1.1563
 3035TIP3   OH230519   5.728   0.033   5.190 -0.5076  1.0279 -0.2795
 3035TIP3    H130520   5.667  -0.032   5.154 -0.8036  0.0907  1.7671
 3035TIP3    H230521   5.683   0.066   5.268  0.0692  3.0106 -0.7575
 3036TIP3   OH230522   0.454   6.272  11.774 -0.3835  0.3088 -0.2118
 3036TIP3    H130523   0.484   6.322  11.698 -0.5005  0.4833 -0.1453
 3036TIP3    H230524   0.534   6.251  11.822 -0.3070  0.1817 -0.3905
 3037TIP3   OH230525   5.184   4.534  10.429 -0.5793  0.2421 -0.2007
 3037TIP3    H130526   5.222   4.597  10.368  0.6100  0.1989  0.4634
 3037TIP3    H230527   5.256   4.509  10.486 -1.2853 -0.9182  0.2337
 3038TIP3   OH230528   6.081   1.774  13.326 -0.3322  0.1156  0.3685
 3038TIP3    H130529   6.116   1.791  13.239 -1.6053 -0.6090 -0.3206
 3038TIP3    H230530   6.117   1.689  13.350 -2.4081 -1.1894 -0.8389
 3039TIP3   OH230531   5.053   2.925  14.628 -0.2142  0.0188 -0.3467
 3039TIP3    H130532   4.982   2.951  14.570 -1.0255  0.0715  0.6393
 3039TIP3    H230533   5.009   2.894  14.707  0.8584 -0.2330  0.1658
 3040TIP3   OH230534   5.379   0.458  12.075 -0.5460  0.0217 -0.3457
 3040TIP3    H130535   5.433   0.497  12.006 -0.6693 -0.8458 -0.9511
 3040TIP3    H230536   5.358   0.370  12.042 -0.3357 -0.5353  0.9293
 3041TIP3   OH230537   5.377   3.882  16.535 -0.3437 -0.6669 -0.0145
 3041TIP3    H130538   5.322   3.803  16.538 -1.0807 -0.1543  0.1717
 3041TIP3    H230539   5.406   3.887  16.444 -0.9285 -0.7298 -0.2130
 3042TIP3   OH230540   6.158   5.457  11.390  0.1436  0.0568 -0.1198
 3042TIP3    H130541   6.107   5.453  11.470  1.3124  0.8438  0.7119
 3042TIP3    H230542   6.126   5.536  11.345 -0.4751 -0.3543 -0.4073
 3043TIP3   OH230543   5.423   6.084   0.072 -0.6829 -0.4800  0.1000
 3043TIP3    H130544   5.495   6.051   0.126 -0.3776  0.9008  0.5941
 3043TIP3    H230545   5.466   6.143   0.010 -1.3077 -0.1763 -0.0538
 3044TIP3   OH230546   0.037   6.550   5.080 -0.1628  0.3068 -0.0934
 3044TIP3    H130547   0.108   6.607   5.110 -0.1429  0.1533  0.1531
 3044TIP3    H230548   0.082   6.478   5.036 -0.0936 -0.3989  1.0725
 3045TIP3   OH230549   4.561   6.451  11.233  0.4567 -0.3936  0.4355
 3045TIP3    H130550   4.622   6.485  11.299 -0.4977  0.1389  1.0549
 3045TIP3    H230551   4.528   6.529  11.188 -1.7845 -0.4145  1.8976
 3046TIP3   OH230552   2.676   2.514  13.819 -0.6192  0.4196  0.0868
 3046TIP3    H130553   2.674   2.446  13.886  2.2932  0.5420  0.4409
 3046TIP3    H230554   2.589   2.553  13.821 -0.9717 -0.3070  3.0251
 3047TIP3   OH230555   3.621   5.941   2.378  0.5789 -0.2835 -0.5185
 3047TIP3    H130556   3.643   5.855   2.412  0.4799 -0.0113  0.2527
 3047TIP3    H230557   3.569   5.982   2.447  0.8602  0.4958 -0.7584
 3048TIP3   OH230558   2.358   0.332   0.521 -0.2504 -0.0298  0.6369
 3048TIP3    H130559   2.433   0.388   0.500 -1.0517  1.1946  0.8963
 3048TIP3    H230560   2.291   0.393   0.553 -1.2333 -1.1313  0.7561
 3049TIP3   OH230561   1.540   1.464   3.510 -0.0929  0.5523  0.1250
 3049TIP3    H130562   1.491   1.382   3.521 -1.2175  1.3280  1.0627
 3049TIP3    H230563   1.617   1.454   3.566 -0.8330  0.5912  1.1751
 3050TIP3   OH230564   0.915   3.234   2.789 -0.5994 -0.3770 -0.1693
 3050TIP3    H130565   0.887   3.317   2.828 -1.0332 -1.8049  2.7942
 3050TIP3    H230566   1.010   3.243   2.779 -0.8592  1.1635 -1.8445
 3051TIP3   OH230567   3.143   0.513   2.269  0.1998  0.3820 -0.2233
 3051TIP3    H130568   3.077   0.581   2.279 -1.3864 -0.6195 -2.7800
 3051TIP3    H230569   3.154   0.504   2.175  1.2857 -2.0129  0.0546
 3052TIP3   OH230570   1.889   4.329  13.508 -0.0683 -0.5505  0.4007
 3052TIP3    H130571   1.973   4.334  13.462  0.1902  0.7300  0.9526
 3052TIP3    H230572   1.842   4.258  13.465 -0.9041  2.1134 -3.6495
 3053TIP3   OH230573   2.847   4.386  12.582 -0.2530  0.0530  0.0502
 3053TIP3    H130574   2.867   4.364  12.674  2.8968 -1.4102 -0.8260
 3053TIP3    H230575   2.783   4.320  12.555 -3.2620  2.0358  1.7536
 3054TIP3   OH230576   4.333   4.772   5.681  0.3330  0.5738 -0.1932
 3054TIP3    H130577   4.305   4.681   5.668 -0.8341  1.1318 -2.0648
 3054TIP3    H230578   4.392   4.769   5.756  0.8121 -1.8266 -0.5889
 3055TIP3   OH230579   3.485   0.190  16.555  0.3504  0.1419 -0.5031
 3055TIP3    H130580   3.537   0.209  16.477  2.2622 -0.8727  0.4328
 3055TIP3    H230581   3.546   0.142  16.612 -1.0014  0.7794  1.5710
 3056TIP3   OH230582   3.276   4.669  12.419  0.3558  0.0762 -0.8301
 3056TIP3    H130583   3.186   4.662  12.389  0.4188 -1.8089 -0.6934
 3056TIP3    H230584   3.273   4.647  12.512  0.8881  0.4976 -0.7054
 3057TIP3   OH230585   1.770   3.776  14.696 -0.2528 -0.6530  0.0329
 3057TIP3    H130586   1.728   3.715  14.636 -0.1250  1.4600 -2.3886
 3057TIP3    H230587   1.862   3.773  14.673 -0.3691  1.0635 -0.7642
 3058TIP3   OH230588   1.759   3.139  13.157 -0.2109  0.1464  0.1004
 3058TIP3    H130589   1.824   3.209  13.155  1.3475 -1.2607 -0.2070
 3058TIP3    H230590   1.770   3.094  13.073 -2.3254  0.4878 -0.4237
 3059TIP3   OH230591   2.853   4.123   1.599 -0.2858  0.4952  0.5256
 3059TIP3    H130592   2.777   4.066   1.588 -0.5066  0.7832  0.5463
 3059TIP3    H230593   2.852   4.147   1.692 -0.3676  0.7696  0.4569
 3060TIP3   OH230594   1.995   0.030  14.395  0.2540 -0.2241 -0.3092
 3060TIP3    H130595   2.013   0.078  14.314  2.7162  0.0570  0.3256
 3060TIP3    H230596   1.923  -0.029  14.372 -1.2969  2.0619 -1.7689
 3061TIP3   OH230597   1.608   1.444   4.247  0.2697 -0.0539  0.0916
 3061TIP3    H130598   1.630   1.529   4.284 -0.7798 -0.1084  0.8864
 3061TIP3    H230599   1.524   1.421   4.287  0.5701 -1.5048 -0.0512
 3062TIP3   OH230600   4.668   3.637  13.791 -0.7846  0.2069 -0.3396
 3062TIP3    H130601   4.665   3.695  13.714  1.1181  1.1312  0.2259
 3062TIP3    H230602   4.702   3.554  13.758  0.6552  0.8042 -0.4150
 3063TIP3   OH230603   3.344   5.631  14.568 -0.0899 -0.3756  0.5902
 3063TIP3    H130604   3.277   5.691  14.601  0.8301  0.0811  1.7219
 3063TIP3    H230605   3.398   5.610  14.645  1.0162 -0.7775 -0.2571
 3064TIP3   OH230606   3.021   4.573   1.364  0.0787  0.1016  0.7820
 3064TIP3    H130607   2.931   4.542   1.372 -0.3212  0.7838 -0.6991
 3064TIP3    H230608   3.051   4.539   1.280  0.9162  0.5759  0.8746
 3065TIP3   OH230609   4.676   0.598   0.421 -0.3254 -0.0404 -0.3544
 3065TIP3    H130610   4.618   0.579   0.347 -0.2367 -1.7743 -0.0158
 3065TIP3    H230611   4.757   0.551   0.400 -0.5531 -1.1901  1.1737
 3066TIP3   OH230612   6.103   0.334   4.486 -0.5025  0.6536  0.2405
 3066TIP3    H130613   6.019   0.368   4.453 -2.0894 -1.8078  1.4207
 3066TIP3    H230614   6.116   0.380   4.569  0.5353  2.6363 -0.9363
 3067TIP3   OH230615   4.303   3.549  12.149  0.1035 -0.1113  0.2499
 3067TIP3    H130616   4.262   3.473  12.107  0.0390  0.5183 -0.8540
 3067TIP3    H230617   4.277   3.542  12.241  0.7925 -1.8891  0.3661
 3068TIP3   OH230618   0.900   0.856  12.103 -0.5423  0.5079  0.4361
 3068TIP3    H130619   0.806   0.851  12.085 -0.3984  0.2793 -0.2897
 3068TIP3    H230620   0.913   0.944  12.135 -0.6564  1.3611 -1.6886
 3069TIP3   OH230621   0.982   1.939  15.080  0.1507 -0.1609  0.3018
 3069TIP3    H130622   0.975   1.850  15.045  1.8184 -0.6018  0.9869
 3069TIP3    H230623   1.048   1.933  15.148  0.0271  1.5484  0.6267
 3070TIP3   OH230624   4.734   2.597   6.523  0.1005  0.2185 -0.5278
 3070TIP3    H130625   4.655   2.559   6.561 -0.7022  1.5097 -0.8414
 3070TIP3    H230626   4.795   2.606   6.597  0.7705 -2.5958 -0.6057
 3071TIP3   OH230627   5.888   0.313  14.825  0.3060  0.3287 -0.4139
 3071TIP3    H130628   5.850   0.288  14.741  0.3587 -0.2588 -0.2657
 3071TIP3    H230629   5.942   0.389  14.805  1.0247 -0.3406 -1.0780
 3072TIP3   OH230630   5.060   4.229   3.239 -0.3743  0.3783  0.7960
 3072TIP3    H130631   5.053   4.325   3.243  0.5985  0.6188 -1.5366
 3072TIP3    H230632   4.992   4.198   3.298  0.2676  2.4889  2.8012
 3073TIP3   OH230633   4.353   5.754   4.198 -0.2909  0.0654 -0.8408
 3073TIP3    H130634   4.412   5.829   4.207  1.5842 -1.5244  1.1266
 3073TIP3    H230635   4.373   5.718   4.111  0.9408  0.1642 -0.6219
 3074TIP3   OH230636   2.773   0.492  13.205 -0.1212 -0.3394 -0.1299
 3074TIP3    H130637   2.867   0.504  13.215  0.3039 -2.8117 -0.5152
 3074TIP3    H230638   2.735   0.547  13.274  1.7788 -1.7228  2.2258
 3075TIP3   OH230639   3.598   1.123  16.745 -0.1663 -0.2199 -0.5861
 3075TIP3    H130640   3.536   1.193  16.765 -2.1270 -1.5201 -1.7547
 3075TIP3    H230641   3.585   1.105  16.652 -0.5044 -2.8117 -0.1149
 3076TIP3   OH230642   5.531   6.694   2.427  0.2839 -0.2786  0.3931
 3076TIP3    H130643   5.558   6.638   2.354 -2.1775 -0.3456 -0.5386
 3076TIP3    H230644   5.580   6.659   2.503  1.4403 -1.4248 -0.8244
 3077TIP3   OH230645   0.132   2.606   1.775  0.4562 -0.0356 -0.0888
 3077TIP3    H130646   0.127   2.687   1.725 -0.0538  0.8608  1.3315
 3077TIP3    H230647   0.041   2.585   1.796  0.6348 -0.5900  0.1538
 3078TIP3   OH230648   4.549   2.127   5.143 -0.1437 -0.0494  0.1350
 3078TIP3    H130649   4.637   2.159   5.162 -0.0622 -0.2336  0.0697
 3078TIP3    H230650   4.556   2.032   5.146 -0.4394 -0.0606  0.5738
 3079TIP3   OH230651   1.195   6.429  12.548 -0.0367  0.1295 -0.9110
 3079TIP3    H130652   1.189   6.503  12.609  0.4366 -1.1059  0.7072
 3079TIP3    H230653   1.185   6.468  12.462  0.6648  2.1474 -0.1359
 3080TIP3   OH230654   3.252   0.101   2.942  0.0230  0.8371 -0.4253
 3080TIP3    H130655   3.259   0.126   2.850  1.6386  2.6446  0.1418
 3080TIP3    H230656   3.336   0.060   2.963 -0.9249 -1.0859 -0.1195
 3081TIP3   OH230657   1.648   3.088  16.306 -0.2430 -0.7077 -0.1544
 3081TIP3    H130658   1.563   3.104  16.266 -1.0670 -1.8822  1.0708
 3081TIP3    H230659   1.706   3.152  16.265 -1.9687  0.9680 -0.0860
 3082TIP3   OH230660   0.715   1.266   1.397  0.0617  0.2981  0.1100
 3082TIP3    H130661   0.670   1.189   1.363  1.4939 -0.5334  0.0496
 3082TIP3    H230662   0.789   1.279   1.338 -1.9438  3.7968 -1.9680
 3083TIP3   OH230663   3.100   5.261   3.779 -0.6205 -0.2319  0.3037
 3083TIP3    H130664   3.181   5.249   3.729  0.3382  0.4705  1.6230
 3083TIP3    H230665   3.116   5.339   3.832 -1.5008 -1.0551  1.8523
 3084TIP3   OH230666   3.820   6.536   1.399 -0.4236  0.3700  1.1335
 3084TIP3    H130667   3.859   6.595   1.463  1.6720  1.3115 -0.8829
 3084TIP3    H230668   3.843   6.449   1.430  3.7558  0.8533 -0.0165
 3085TIP3   OH230669   4.952   4.967  15.080  0.2615  0.5708  0.2087
 3085TIP3    H130670   4.935   4.875  15.059 -0.2016  0.3140  1.6104
 3085TIP3    H230671   4.931   5.014  14.999 -1.1617 -0.3761 -0.0031
 3086TIP3   OH230672   3.093   4.907   5.027 -0.1402  0.4931 -0.4499
 3086TIP3    H130673   3.065   4.951   5.108 -0.0116 -0.6177  0.2121
 3086TIP3    H230674   3.048   4.823   5.028  0.3750  0.1951 -1.2107
 3087TIP3   OH230675   0.702   1.326  14.276  0.1156 -0.3746  0.4740
 3087TIP3    H130676   0.620   1.352  14.234  0.2050  0.6101  0.8721
 3087TIP3    H230677   0.763   1.313  14.203 -0.2641 -0.6248  0.2020
 3088TIP3   OH230678   3.689   1.741  11.526  0.1666  0.4288 -0.8265
 3088TIP3    H130679   3.748   1.667  11.514  0.1576  0.1282  0.7491
 3088TIP3    H230680   3.617   1.725  11.465  0.7408 -0.2332 -1.3389
 3089TIP3   OH230681   0.976   6.771  15.134 -0.7466  0.0346 -0.1106
 3089TIP3    H130682   0.960   6.723  15.215  1.0292 -1.1544 -0.3896
 3089TIP3    H230683   0.926   6.724  15.067 -0.6291 -0.1893 -0.0404
 3090TIP3   OH230684   1.819   4.924  11.451  0.0052  0.6010 -0.0435
 3090TIP3    H130685   1.881   4.850  11.460  0.5732  0.9104 -1.2314
 3090TIP3    H230686   1.742   4.885  11.411 -0.4660  0.2829  1.1242
 3091TIP3   OH230687   1.427   0.102   6.145 -0.1924 -0.1639 -0.2628
 3091TIP3    H130688   1.357   0.100   6.210  0.0615  0.7114  0.0540
 3091TIP3    H230689   1.384   0.132   6.064  0.1297  2.3271  0.4010
 3092TIP3   OH230690   5.405   3.379  11.580 -0.2120  0.0251  0.4183
 3092TIP3    H130691   5.326   3.379  11.526  0.4588 -2.6335 -0.6904
 3092TIP3    H230692   5.473   3.416  11.524  0.8883 -4.3069 -1.4320
 3093TIP3   OH230693   4.571   2.599   5.394 -0.5707  0.4518  0.2383
 3093TIP3    H130694   4.533   2.677   5.352 -0.3433 -0.4061 -1.6757
 3093TIP3    H230695   4.605   2.547   5.321 -0.3509 -1.2601  1.5026
 3094TIP3   OH230696   3.184   4.120   2.839 -0.2802 -0.1946 -0.1334
 3094TIP3    H130697   3.154   4.187   2.900  3.2265  2.5350 -1.0646
 3094TIP3    H230698   3.138   4.140   2.757  0.7641  1.2866 -0.4188
 3095TIP3   OH230699   5.284   1.001  15.034 -0.5878 -0.3768 -0.0816
 3095TIP3    H130700   5.300   0.988  14.941 -1.3864 -0.5146 -0.2096
 3095TIP3    H230701   5.280   0.913  15.071  2.2963 -0.3278  0.5854
 3096TIP3   OH230702   3.790   6.132   5.779  0.0714 -0.4869 -0.1382
 3096TIP3    H130703   3.864   6.192   5.791  1.0506 -1.5698 -0.5622
 3096TIP3    H230704   3.822   6.067   5.717 -1.3713 -0.7905 -0.5995
 3097TIP3   OH230705   2.407   5.738   5.651 -0.0604  0.5365 -0.0297
 3097TIP3    H130706   2.384   5.653   5.688 -1.2537  1.9692  2.8272
 3097TIP3    H230707   2.323   5.775   5.622  0.0315  1.7285  1.1258
 3098TIP3   OH230708   2.906   2.811  13.406  0.0514  0.8050 -0.4715
 3098TIP3    H130709   2.830   2.753  13.405  1.3472 -1.0563  0.5264
 3098TIP3    H230710   2.897   2.865  13.328 -1.2671 -0.7509 -1.4637
 3099TIP3   OH230711   0.853   6.128  10.305  0.2467  0.0885 -0.7326
 3099TIP3    H130712   0.848   6.052  10.247 -0.3378 -1.5199  1.3293
 3099TIP3    H230713   0.772   6.125  10.357  0.6379  1.6053  0.0388
 3100TIP3   OH230714   4.325   5.386  14.550  0.6139 -0.1562  0.0192
 3100TIP3    H130715   4.252   5.339  14.511  1.3058 -0.6627 -0.6945
 3100TIP3    H230716   4.290   5.473  14.569 -0.5349 -0.7848  0.8995
 3101TIP3   OH230717   2.435   1.298   4.476  0.3503  0.2339 -0.2008
 3101TIP3    H130718   2.439   1.385   4.437 -2.0988  0.4629 -0.0970
 3101TIP3    H230719   2.467   1.239   4.408  0.4501  1.0611 -0.8725
 3102TIP3   OH230720   0.276   0.154  15.960 -0.3056 -0.7191  0.2701
 3102TIP3    H130721   0.298   0.244  15.984 -2.1734 -0.7079  2.3272
 3102TIP3    H230722   0.225   0.162  15.879 -0.1612  0.0271  0.2524
 3103TIP3   OH230723   4.478   3.407  13.310  1.4229  0.0003 -0.1083
 3103TIP3    H130724   4.525   3.384  13.390 -0.7920 -0.0728  1.2484
 3103TIP3    H230725   4.426   3.329  13.289  1.1648  0.3996 -1.0141
 3104TIP3   OH230726   2.452   6.792   4.010  0.1228 -0.0924  0.0446
 3104TIP3    H130727   2.411   6.873   3.983 -0.8785  0.0746  1.8963
 3104TIP3    H230728   2.396   6.723   3.974 -0.9495  0.1183  1.2204
 3105TIP3   OH230729   2.908   3.432   0.319 -0.6342 -0.2339 -0.4944
 3105TIP3    H130730   2.927   3.496   0.388 -0.8283 -1.7422  1.0021
 3105TIP3    H230731   2.992   3.418   0.276 -0.2876 -0.0285  0.0934
 3106TIP3   OH230732   5.059   6.082   4.680 -0.2728  0.5414 -0.0441
 3106TIP3    H130733   5.012   6.000   4.694 -1.1405  0.9575 -0.4436
 3106TIP3    H230734   5.138   6.057   4.631 -0.6717 -0.0206 -0.4111
 3107TIP3   OH230735   3.940   5.893   2.662 -0.7021 -0.1320  0.3657
 3107TIP3    H130736   4.008   5.827   2.653  1.8283  2.3843 -0.6424
 3107TIP3    H230737   3.882   5.879   2.587  2.1332  1.1233 -2.2865
 3108TIP3   OH230738   5.678   3.265   5.693 -0.0734  0.8606  0.1078
 3108TIP3    H130739   5.712   3.182   5.658 -1.2511  0.7781 -0.8992
 3108TIP3    H230740   5.666   3.249   5.786  0.8433  0.2904  0.1358
 3109TIP3   OH230741   0.255   0.239  13.422  0.3921 -1.1219  0.0710
 3109TIP3    H130742   0.265   0.182  13.346  2.1556 -1.2184  0.3336
 3109TIP3    H230743   0.242   0.326  13.385  2.7630 -0.9034 -0.4448
 3110TIP3   OH230744   2.199   3.430   2.969  0.6492 -0.3106  0.8692
 3110TIP3    H130745   2.142   3.414   3.045  1.2606  0.4921  1.5254
 3110TIP3    H230746   2.260   3.357   2.968 -0.9552 -1.7080 -0.4264
 3111TIP3   OH230747   0.451   0.107   4.797 -0.2993 -0.3355  0.1122
 3111TIP3    H130748   0.477   0.169   4.729 -2.3148 -0.2635 -0.6779
 3111TIP3    H230749   0.523   0.044   4.802  1.5924  1.7798  0.6185
 3112TIP3   OH230750   6.645   2.703   4.724  0.3472  0.1391 -0.5370
 3112TIP3    H130751   6.648   2.764   4.651 -1.7453 -0.0322 -0.8161
 3112TIP3    H230752   6.560   2.718   4.765  0.9789 -0.6068  1.1562
 3113TIP3   OH230753   5.112   2.095  13.758 -0.0561 -0.4298  0.6128
 3113TIP3    H130754   5.019   2.080  13.776  0.3390 -0.8508  2.5114
 3113TIP3    H230755   5.127   2.052  13.674 -1.1412 -2.1306  1.2389
 3114TIP3   OH230756   5.410   6.350  15.764  0.1271  0.2629  0.2305
 3114TIP3    H130757   5.472   6.422  15.758 -0.8078  1.2424  1.6354
 3114TIP3    H230758   5.445   6.294  15.834  0.9462 -0.7980 -0.9760
 3115TIP3   OH230759   4.685   1.409  15.713  0.2138 -0.1512  0.4692
 3115TIP3    H130760   4.638   1.363  15.783 -0.3294 -0.2784  0.0248
 3115TIP3    H230761   4.651   1.372  15.632  0.1259  0.6807  0.1138
 3116TIP3   OH230762   5.159   1.172   6.648 -0.3013 -0.1637 -0.1836
 3116TIP3    H130763   5.243   1.126   6.649 -0.3844 -0.3120  0.7484
 3116TIP3    H230764   5.165   1.234   6.721 -0.6315  0.5163 -0.7191
 3117TIP3   OH230765   2.424   1.214   3.855  0.2535 -0.0699  0.0387
 3117TIP3    H130766   2.369   1.283   3.819  0.5234 -0.5703 -1.3899
 3117TIP3    H230767   2.363   1.158   3.904 -0.0809  0.7674  0.5962
 3118TIP3   OH230768   1.873   5.345  12.749 -0.3368 -0.0556 -0.3901
 3118TIP3    H130769   1.846   5.331  12.659 -0.3799  0.3817 -0.4473
 3118TIP3    H230770   1.814   5.413  12.782 -0.5111 -0.4179  0.0573
 3119TIP3   OH230771   5.394   2.678   4.621  0.4756 -0.1902 -0.2283
 3119TIP3    H130772   5.452   2.753   4.635  1.1199 -0.9093  1.1207
 3119TIP3    H230773   5.311   2.704   4.659  0.1554  0.4886 -1.3379
 3120TIP3   OH230774   2.662   4.421  16.616  0.1525 -0.3494  0.2110
 3120TIP3    H130775   2.725   4.423  16.544 -1.3793  0.5196 -1.1754
 3120TIP3    H230776   2.598   4.355  16.591  0.5351 -1.2979  1.6507
 3121TIP3   OH230777   5.963   4.079  14.173  0.6292 -0.4874 -0.5759
 3121TIP3    H130778   6.043   4.074  14.120 -0.0030 -0.2574 -1.5850
 3121TIP3    H230779   5.925   3.992  14.166  1.5598 -1.0776  1.1921
 3122TIP3   OH230780   4.720   6.222  13.748  0.0299  0.7532 -0.0283
 3122TIP3    H130781   4.776   6.258  13.816  1.2636 -0.0866 -0.5689
 3122TIP3    H230782   4.757   6.254  13.666 -1.0150  1.1717 -0.3569
 3123TIP3   OH230783   4.941   3.511  15.823  0.1456  0.2626  0.9526
 3123TIP3    H130784   4.986   3.448  15.767  0.5790  0.7857  0.7079
 3123TIP3    H230785   4.848   3.495  15.806  0.2663  0.2011  0.3222
 3124TIP3   OH230786   0.567   6.793  14.504 -0.6110  0.6268  0.4414
 3124TIP3    H130787   0.532   6.786  14.593 -2.3106  2.4881 -0.0115
 3124TIP3    H230788   0.490   6.812  14.450  0.6306  1.2233 -1.1845
 3125TIP3   OH230789   2.178   6.028  10.151 -0.5335 -0.0303  0.5982
 3125TIP3    H130790   2.162   5.958  10.215 -2.1409 -2.7845 -2.4885
 3125TIP3    H230791   2.096   6.077  10.148 -0.9380 -0.7257 -0.1865
 3126TIP3   OH230792   0.393   2.165  14.471  0.2311  0.1915 -0.0896
 3126TIP3    H130793   0.481   2.187  14.501  0.1361 -0.7667  0.9775
 3126TIP3    H230794   0.398   2.073  14.446 -0.1051  0.5432 -1.5399
 3127TIP3   OH230795   3.055   0.804   0.217 -0.6130  0.3474 -0.2008
 3127TIP3    H130796   3.145   0.776   0.232  0.4516  1.8983 -2.9092
 3127TIP3    H230797   3.061   0.898   0.205 -2.4057  0.3425 -1.5340
 3128TIP3   OH230798   1.959   4.261  12.398  0.5444  0.2902 -0.0195
 3128TIP3    H130799   1.938   4.354  12.407 -3.6433 -0.3292 -1.0348
 3128TIP3    H230800   1.957   4.246  12.303  0.6475 -0.9140  0.1565
 3129TIP3   OH230801   2.671   4.675   1.943 -0.2142 -0.3740  0.2674
 3129TIP3    H130802   2.619   4.677   1.863  0.8259  2.0778 -0.4457
 3129TIP3    H230803   2.616   4.628   2.006 -2.3329  0.1660 -1.0668
 3130TIP3   OH230804   6.446   1.295  12.384  0.3877 -0.6188  0.5151
 3130TIP3    H130805   6.379   1.294  12.316  0.3846  1.5135  0.4062
 3130TIP3    H230806   6.443   1.384  12.419  4.8275  0.4449 -1.1854
 3131TIP3   OH230807   4.196   3.249  16.929 -0.4955 -0.1595 -0.3168
 3131TIP3    H130808   4.273   3.306  16.926 -0.4696 -0.1992 -0.4200
 3131TIP3    H230809   4.121   3.309  16.936 -0.3821 -0.1578  1.1526
 3132TIP3   OH230810   0.452   2.469  14.505 -0.9125 -0.0654 -0.5636
 3132TIP3    H130811   0.476   2.560  14.525 -1.6226 -0.1001  0.5150
 3132TIP3    H230812   0.448   2.426  14.591 -0.9817 -1.0242 -1.0352
 3133TIP3   OH230813   3.322   5.681   2.365  0.1520  0.3535 -0.2414
 3133TIP3    H130814   3.381   5.667   2.438 -1.2968 -0.0031  0.9190
 3133TIP3    H230815   3.235   5.685   2.405 -1.0434 -2.6447 -2.1184
 3134TIP3   OH230816   3.955   1.232   2.851 -0.1130 -0.2382  0.3077
 3134TIP3    H130817   3.996   1.195   2.772 -0.1792  2.3353 -1.0161
 3134TIP3    H230818   3.924   1.155   2.899  1.0527 -1.9700 -1.5331
 3135TIP3   OH230819   3.157   1.480   5.529 -0.0205  1.1281 -0.2071
 3135TIP3    H130820   3.150   1.384   5.532 -1.1751  1.1280 -1.6935
 3135TIP3    H230821   3.213   1.502   5.603  1.3016 -0.7938 -0.5632
 3136TIP3   OH230822   5.951   5.831   4.529 -0.2109 -0.1162  0.2353
 3136TIP3    H130823   5.886   5.836   4.459 -0.3607 -0.7485  0.3186
 3136TIP3    H230824   6.021   5.891   4.502 -0.6902  0.3356 -0.0036
 3137TIP3   OH230825   0.896   4.780   1.900  0.2357 -0.1581 -0.0725
 3137TIP3    H130826   0.969   4.815   1.848  1.3091  0.7211  1.9201
 3137TIP3    H230827   0.825   4.843   1.886  0.1815 -0.4483 -1.1955
 3138TIP3   OH230828   3.054   5.216   4.985 -0.2670 -0.4512 -0.4129
 3138TIP3    H130829   3.040   5.129   5.021 -0.9882  0.3243  1.2659
 3138TIP3    H230830   3.133   5.207   4.931 -0.6720 -2.2607 -0.7771
 3139TIP3   OH230831   5.113   6.631  16.578  0.1042  0.6881 -0.0297
 3139TIP3    H130832   5.029   6.671  16.559  1.1048  2.9737  0.0470
 3139TIP3    H230833   5.101   6.538  16.557 -2.6752  0.7583  0.8682
 3140TIP3   OH230834   5.450   6.027   3.951  0.5217 -0.2164 -0.2097
 3140TIP3    H130835   5.480   6.111   3.917  0.4779 -1.0532 -2.4676
 3140TIP3    H230836   5.384   6.049   4.016  1.8252  1.5146  0.6057
 3141TIP3   OH230837   4.464   5.234   3.287 -0.1316 -0.2063 -0.0082
 3141TIP3    H130838   4.514   5.248   3.367 -1.7087 -2.4146  1.5193
 3141TIP3    H230839   4.529   5.234   3.217  1.5616  0.0191  1.4914
 3142TIP3   OH230840   1.540   5.895  10.949  0.4013  0.2071  0.0337
 3142TIP3    H130841   1.611   5.954  10.925  1.9784 -0.5177  2.5408
 3142TIP3    H230842   1.536   5.899  11.045 -2.0660 -0.7996  0.0485
 3143TIP3   OH230843   1.213   4.305  15.861 -0.7032  0.2605  0.5917
 3143TIP3    H130844   1.135   4.250  15.863 -0.7869  0.2638 -1.1614
 3143TIP3    H230845   1.275   4.257  15.806 -0.7039  1.7898 -0.8243
 3144TIP3   OH230846   1.746   1.343  14.300 -0.2141  0.5397  0.2417
 3144TIP3    H130847   1.668   1.329  14.353  0.2821  0.7593  1.0547
 3144TIP3    H230848   1.752   1.265  14.245 -0.7051  0.2715  0.5585
 3145TIP3   OH230849   0.355   5.306  15.532 -0.0463 -0.2919  0.2588
 3145TIP3    H130850   0.422   5.262  15.480 -0.5846 -0.4381 -0.3231
 3145TIP3    H230851   0.298   5.236  15.564 -0.5024 -0.0875 -0.0885
 3146TIP3   OH230852   2.190   1.534  12.463  0.1259 -0.6408  0.6103
 3146TIP3    H130853   2.246   1.531  12.540 -0.2017  2.4703  1.0949
 3146TIP3    H230854   2.111   1.578  12.492  0.3052  1.3511 -1.6247
 3147TIP3   OH230855   3.885   4.589  15.829  0.3378  0.4820  0.2696
 3147TIP3    H130856   3.969   4.587  15.876  0.0287  1.5694  0.9200
 3147TIP3    H230857   3.882   4.677  15.790 -0.4348  0.4076  0.1473
 3148TIP3   OH230858   6.201   2.379   4.817  0.0679  0.5649 -0.3466
 3148TIP3    H130859   6.174   2.379   4.725  0.1314 -1.3487 -0.4132
 3148TIP3    H230860   6.232   2.468   4.833  0.2918  0.8736 -2.2470
 3149TIP3   OH230861   4.194   4.260   4.240  0.9817 -0.0322  0.0980
 3149TIP3    H130862   4.172   4.353   4.244  0.1834 -0.2497  2.7040
 3149TIP3    H230863   4.289   4.257   4.242  1.1031  0.7229 -2.0730
 3150TIP3   OH230864   6.349   2.198  16.494 -0.0209 -0.2770  0.0106
 3150TIP3    H130865   6.405   2.244  16.556 -0.3377  0.7177 -0.4017
 3150TIP3    H230866   6.406   2.135  16.451  0.8863  0.9086 -0.5962
 3151TIP3   OH230867   5.650   2.630   3.064 -0.3650  0.5719  0.0586
 3151TIP3    H130868   5.655   2.574   2.986 -0.4727  0.4676  0.1258
 3151TIP3    H230869   5.734   2.674   3.067  0.1820 -0.4610  0.6510
 3152TIP3   OH230870   3.329   5.049   6.684  0.4078 -0.0283  0.3636
 3152TIP3    H130871   3.386   5.091   6.749  0.9068  0.2077 -0.2213
 3152TIP3    H230872   3.271   5.118   6.655 -1.1833 -0.5864  2.0019
 3153TIP3   OH230873   3.378   1.970  13.042 -0.6118 -0.1616 -0.2538
 3153TIP3    H130874   3.298   1.918  13.032 -0.5755 -0.5131  1.0483
 3153TIP3    H230875   3.355   2.056  13.006 -0.5763 -1.0951 -2.6884
 3154TIP3   OH230876   4.789   3.623   1.240  0.7597 -0.7850  0.2289
 3154TIP3    H130877   4.822   3.712   1.251  1.9549 -1.0779 -0.6834
 3154TIP3    H230878   4.698   3.633   1.213  1.2673  0.2291 -1.2076
 3155TIP3   OH230879   3.614   3.176  11.772  0.1437  0.2210  0.0168
 3155TIP3    H130880   3.615   3.127  11.855 -2.2459  1.6411  1.0038
 3155TIP3    H230881   3.537   3.143  11.726 -0.1644  1.4060 -0.3458
 3156TIP3   OH230882   5.197   5.362   4.055  0.5295 -0.3527  0.0116
 3156TIP3    H130883   5.109   5.373   4.020 -0.1104 -1.8203  1.0618
 3156TIP3    H230884   5.194   5.403   4.141  1.1139  0.2621 -0.2500
 3157TIP3   OH230885   3.088   5.398  16.523 -0.3437  0.1561 -0.0889
 3157TIP3    H130886   3.075   5.436  16.610  2.1288  1.5739 -0.2372
 3157TIP3    H230887   3.183   5.390  16.515 -0.5599 -0.8010 -2.3275
 3158TIP3   OH230888   1.934   5.039   0.604 -0.4266 -0.1556 -0.4312
 3158TIP3    H130889   1.846   5.033   0.642 -0.4607  1.2074 -0.2241
 3158TIP3    H230890   1.989   5.063   0.678  0.0690 -0.6961 -0.6244
 3159TIP3   OH230891   2.358   0.218   0.971 -0.8168  0.0116  0.4509
 3159TIP3    H130892   2.361   0.220   1.067  0.8890 -0.4724  0.4390
 3159TIP3    H230893   2.431   0.274   0.944 -1.7764  0.8207 -0.6028
 3160TIP3   OH230894   1.649   4.928   2.789  0.1595  0.6290 -0.2171
 3160TIP3    H130895   1.586   4.905   2.721 -0.0387 -2.1458  0.7794
 3160TIP3    H230896   1.729   4.880   2.765 -0.2248 -1.2287  1.9605
 3161TIP3   OH230897   4.299   6.030  14.439 -0.2226 -0.2627  0.3854
 3161TIP3    H130898   4.316   6.088  14.365 -1.9733 -1.3685 -0.9887
 3161TIP3    H230899   4.379   6.033  14.491 -0.1164  3.0513  0.2053
 3162TIP3   OH230900   2.058   4.517  11.262 -0.1507  0.3212 -0.3376
 3162TIP3    H130901   2.069   4.431  11.302  0.2504  0.7539  0.4985
 3162TIP3    H230902   2.052   4.500  11.168  1.3358 -0.4918 -0.3016
 3163TIP3   OH230903   4.736   6.462   2.868  0.0036 -0.1669 -0.0525
 3163TIP3    H130904   4.735   6.368   2.853  1.2693 -0.0273 -1.2209
 3163TIP3    H230905   4.826   6.481   2.896  0.2575  0.9035 -1.5022
 3164TIP3   OH230906   3.844   6.076   2.219  0.2897 -0.1942 -0.3315
 3164TIP3    H130907   3.767   6.087   2.275  0.6955 -0.1231  0.2242
 3164TIP3    H230908   3.893   6.004   2.259  2.9839  2.7225  2.2614
 3165TIP3   OH230909   6.471   1.963  15.083 -0.0471 -0.5348 -0.6957
 3165TIP3    H130910   6.381   1.954  15.050 -0.2543  1.9226 -1.0187
 3165TIP3    H230911   6.478   2.056  15.106  2.4503 -0.6563 -0.7497
 3166TIP3   OH230912   3.936   2.288   5.148 -0.2987 -0.2283  0.1045
 3166TIP3    H130913   3.903   2.243   5.226 -0.6984  0.9701  0.6547
 3166TIP3    H230914   4.031   2.286   5.158 -0.3091 -0.8606  0.1543
 3167TIP3   OH230915   6.510   6.129   1.847 -0.0415  0.4647  0.1444
 3167TIP3    H130916   6.574   6.135   1.919 -1.2669  2.2557  1.1742
 3167TIP3    H230917   6.427   6.156   1.887 -1.3194 -1.0733 -1.3356
 3168TIP3   OH230918   0.273   1.013   5.480  0.0284  0.0309 -0.1800
 3168TIP3    H130919   0.255   0.997   5.573  0.2977 -0.0261 -0.1376
 3168TIP3    H230920   0.359   1.055   5.479  0.8563 -1.6040 -0.5238
 3169TIP3   OH230921   3.904   1.969   5.050 -0.1202  0.2317 -0.0826
 3169TIP3    H130922   3.831   2.026   5.074 -0.5746 -0.1945 -0.4288
 3169TIP3    H230923   3.884   1.941   4.961 -0.3177 -1.0908  0.3530
 3170TIP3   OH230924   2.993   4.002   0.547 -0.2270  0.1468 -0.6237
 3170TIP3    H130925   3.081   4.029   0.522 -0.8291  2.4364 -0.5225
 3170TIP3    H230926   3.004   3.960   0.632  1.0865 -2.3928 -1.9401
 3171TIP3   OH230927   4.192   0.799   2.642 -0.2781  0.6309 -0.4477
 3171TIP3    H130928   4.134   0.793   2.566 -1.5271 -2.9141  0.5673
 3171TIP3    H230929   4.272   0.756   2.615 -0.0180  1.0034 -0.2826
 3172TIP3   OH230930   0.896   0.248   0.044  0.6088 -0.4014  0.1071
 3172TIP3    H130931   0.973   0.203   0.078  0.2769  0.1670  1.6959
 3172TIP3    H230932   0.925   0.339   0.032 -0.3875  0.4056  3.0528
 3173TIP3   OH230933   5.010   0.520  12.233  0.2641  0.0074 -0.5306
 3173TIP3    H130934   5.079   0.578  12.265 -0.7807  1.6385 -1.1027
 3173TIP3    H230935   4.976   0.477  12.312  1.4330 -0.3035 -0.1667
 3174TIP3   OH230936   6.279   5.698  16.210 -0.4578  0.4051 -0.1277
 3174TIP3    H130937   6.189   5.730  16.201  0.1069  1.4484 -2.9879
 3174TIP3    H230938   6.278   5.612  16.170 -0.6923 -0.8505  2.3661
 3175TIP3   OH230939   5.522   1.163  11.067 -0.0084 -0.2155  0.3473
 3175TIP3    H130940   5.583   1.219  11.114 -0.5136  0.9704 -0.3860
 3175TIP3    H230941   5.442   1.164  11.120  0.2293 -0.8997  0.7408
 3176TIP3   OH230942   3.833   6.266   4.630 -0.2129 -0.4199 -0.0771
 3176TIP3    H130943   3.836   6.212   4.551 -2.0183 -2.3802  1.1074
 3176TIP3    H230944   3.903   6.233   4.686  2.1338  1.9971 -1.3174
 3177TIP3   OH230945   6.445   4.768   2.353  0.0796 -0.0898  0.5016
 3177TIP3    H130946   6.444   4.698   2.418 -1.4883  0.6985  1.4055
 3177TIP3    H230947   6.428   4.848   2.403  1.8894  0.9876 -0.4865
 3178TIP3   OH230948   1.634   1.799  15.952  0.4285 -0.2587  0.0861
 3178TIP3    H130949   1.721   1.760  15.958  0.2050 -0.8039 -0.0940
 3178TIP3    H230950   1.598   1.791  16.040  0.7280  0.3748  0.2674
 3179TIP3   OH230951   3.068   2.174   3.604  0.0677 -0.1373  0.5768
 3179TIP3    H130952   3.082   2.124   3.524 -0.5369 -1.4475  1.2546
 3179TIP3    H230953   3.143   2.154   3.659 -1.0036 -1.7569  1.5381
 3180TIP3   OH230954   1.585   3.531  15.420  0.3111 -0.1347 -0.0574
 3180TIP3    H130955   1.536   3.591  15.364 -0.7244 -1.1071 -0.2084
 3180TIP3    H230956   1.577   3.568  15.508  1.1218  0.8587 -0.3749
 3181TIP3   OH230957   6.355   3.104  16.140 -0.9541  0.0569  0.3270
 3181TIP3    H130958   6.318   3.184  16.102  0.4166  0.0191 -1.2192
 3181TIP3    H230959   6.279   3.047  16.156 -2.0230  1.8168  1.9849
 3182TIP3   OH230960   1.365   0.294   4.693  0.0609  0.2726  0.0594
 3182TIP3    H130961   1.390   0.319   4.604 -1.0842 -0.8241 -0.6148
 3182TIP3    H230962   1.297   0.357   4.717 -0.3575 -0.0510 -0.2601
 3183TIP3   OH230963   2.331   2.525   4.111  0.0803  0.2901  0.1373
 3183TIP3    H130964   2.360   2.437   4.135  0.9855  0.9827  1.7278
 3183TIP3    H230965   2.380   2.545   4.031  0.2088 -0.4664  0.0131
 3184TIP3   OH230966   1.983   4.980   1.706 -0.6173  0.3463 -0.3291
 3184TIP3    H130967   1.940   4.939   1.781  1.5138  1.2430  1.4861
 3184TIP3    H230968   1.976   5.074   1.722 -0.7305  0.5806 -1.6370
 3185TIP3   OH230969   2.861   0.015  13.263 -0.0715  0.6268 -0.0050
 3185TIP3    H130970   2.833  -0.000  13.353 -2.7543  0.0308 -0.8299
 3185TIP3    H230971   2.904  -0.066  13.237  0.6452  0.7738  0.6877
 3186TIP3   OH230972   2.042   4.320  15.478 -0.8207 -0.2830  0.2619
 3186TIP3    H130973   2.056   4.231  15.447 -3.0868 -0.2892 -1.0229
 3186TIP3    H230974   2.075   4.375  15.407 -0.4611 -0.1284  0.5479
 3187TIP3   OH230975   3.377   3.291  15.204  0.8178  0.0547  0.5397
 3187TIP3    H130976   3.295   3.310  15.251  0.5498 -0.7377  0.4222
 3187TIP3    H230977   3.373   3.345  15.125  0.9843  0.9352  1.1233
 3188TIP3   OH230978   4.558   0.598  12.403 -0.0758  0.0080 -0.4513
 3188TIP3    H130979   4.600   0.604  12.489  0.6349  0.6057 -0.8359
 3188TIP3    H230980   4.535   0.505  12.394 -1.6361  0.1977  1.0735
 3189TIP3   OH230981   4.808   4.428   3.478  0.0736  0.5825 -0.9173
 3189TIP3    H130982   4.796   4.465   3.565 -1.7648  1.1325 -1.3526
 3189TIP3    H230983   4.890   4.378   3.484  0.6415  1.6314  0.7403
 3190TIP3   OH230984   5.262   3.522   3.467  0.1317 -0.5112  0.0099
 3190TIP3    H130985   5.297   3.608   3.489  0.3173 -0.5509 -0.1329
 3190TIP3    H230986   5.177   3.540   3.426  0.2888 -0.3837 -0.2610
 3191TIP3   OH230987   4.882   3.582  15.377 -0.2940 -0.2405  0.2374
 3191TIP3    H130988   4.886   3.623  15.291 -0.5535 -0.1301  0.2758
 3191TIP3    H230989   4.796   3.540  15.380  0.2968 -1.4989 -0.1099
 3192TIP3   OH230990   0.475   6.577   0.643 -0.0010  0.0494 -0.4338
 3192TIP3    H130991   0.429   6.635   0.583  1.0247  0.5157 -0.7984
 3192TIP3    H230992   0.410   6.512   0.670 -0.9635  0.9462 -0.5869
 3193TIP3   OH230993   0.378   2.623   3.918 -0.8701 -0.0559 -0.0690
 3193TIP3    H130994   0.356   2.556   3.853 -1.3140  0.6677 -0.6724
 3193TIP3    H230995   0.316   2.608   3.990  0.1608 -1.3887  0.5804
 3194TIP3   OH230996   4.546   4.250  13.748  0.1239  0.1977 -0.3910
 3194TIP3    H130997   4.639   4.250  13.726  0.5261  0.3872  1.1861
 3194TIP3    H230998   4.504   4.297  13.676  1.2334  0.0634 -1.1465
 3195TIP3   OH230999   5.540   0.820  13.019  0.1967 -0.2397  0.0433
 3195TIP3    H131000   5.487   0.867  13.083 -0.1636 -0.2328 -0.2567
 3195TIP3    H231001   5.592   0.759  13.071  2.8094  2.4031  0.7624
 3196TIP3   OH231002   6.297   3.267  13.673  0.1700  0.6878  0.2570
 3196TIP3    H131003   6.327   3.353  13.701 -0.2619  0.0559  2.9709
 3196TIP3    H231004   6.320   3.208  13.745 -0.0524 -1.3901 -1.2518
 3197TIP3   OH231005   1.617   3.468  13.202  0.1064  0.4841  0.6383
 3197TIP3    H131006   1.694   3.503  13.246  1.2939 -0.8085 -0.3267
 3197TIP3    H231007   1.602   3.382  13.242 -0.1742  0.2674  0.0949
 3198TIP3   OH231008   3.741   6.730  15.833 -0.5789 -0.1810 -0.1876
 3198TIP3    H131009   3.738   6.727  15.737  0.0463 -1.0126 -0.1937
 3198TIP3    H231010   3.753   6.639  15.859 -1.7314 -0.0874  0.7332
 3199TIP3   OH231011   1.183   3.707  15.817 -0.4629 -0.4912  0.0653
 3199TIP3    H131012   1.266   3.694  15.772  0.6101  2.7069  0.8540
 3199TIP3    H231013   1.126   3.748  15.752 -0.4755 -0.1066  0.3182
 3200TIP3   OH231014   3.682   6.596  12.654  0.1694  0.0613  0.3761
 3200TIP3    H131015   3.619   6.584  12.583 -0.4091 -0.5498  0.9878
 3200TIP3    H231016   3.643   6.663  12.710  1.6723  2.2607 -1.0519
 3201TIP3   OH231017   4.001   0.337  16.311 -0.2461 -0.3526  0.3946
 3201TIP3    H131018   4.029   0.351  16.221  0.0066 -0.3332  0.4752
 3201TIP3    H231019   3.915   0.378  16.316 -1.0706 -1.9126 -0.3174
 3202TIP3   OH231020   5.479   6.554  15.327  0.1007  0.1848  0.1101
 3202TIP3    H131021   5.412   6.494  15.359 -0.0704  0.6290  0.5890
 3202TIP3    H231022   5.560   6.502  15.329  0.0067  0.0624  0.8020
 3203TIP3   OH231023   2.636   5.837  12.720 -0.7077  0.1931  0.1096
 3203TIP3    H131024   2.722   5.795  12.732  0.0149  1.4823 -0.3695
 3203TIP3    H231025   2.591   5.823  12.803  0.0909 -0.2175  0.4865
 3204TIP3   OH231026   3.024   5.215   0.703  0.0632  0.8301  0.9350
 3204TIP3    H131027   2.954   5.234   0.765  0.6691  0.1122  1.8575
 3204TIP3    H231028   3.090   5.282   0.720  0.7818 -0.1123  1.9574
 3205TIP3   OH231029   0.855   0.116  12.555 -0.7207 -0.4553  0.0512
 3205TIP3    H131030   0.803   0.182  12.509  0.8099  0.8797  0.1424
 3205TIP3    H231031   0.890   0.162  12.632  0.5856 -1.2951 -0.0103
 3206TIP3   OH231032   0.619   5.154  15.697 -0.2899 -0.2255 -0.1843
 3206TIP3    H131033   0.659   5.124  15.615  0.4830  0.1007  0.0616
 3206TIP3    H231034   0.691   5.194  15.745 -0.9067  0.3051  0.3145
 3207TIP3   OH231035   6.600   1.047   5.074  0.2719 -0.3052 -0.3193
 3207TIP3    H131036   6.558   1.027   4.990  0.4406  0.3708 -0.5748
 3207TIP3    H231037   6.610   0.962   5.117  0.2493 -0.6673 -1.0148
 3208TIP3   OH231038   5.676   0.306  11.289  0.0443 -0.0694 -0.2396
 3208TIP3    H131039   5.635   0.224  11.264 -0.7095  0.5274 -1.0430
 3208TIP3    H231040   5.716   0.338  11.208 -1.5316  1.3851 -0.5118
 3209TIP3   OH231041   6.198   5.747  11.470  0.5046  0.4552 -0.0211
 3209TIP3    H131042   6.173   5.723  11.559  1.4036  0.5517  0.2655
 3209TIP3    H231043   6.291   5.768  11.476  0.9167 -0.8432 -1.2285
 3210TIP3   OH231044   2.214   6.136  13.930 -0.1745  0.2119  0.0675
 3210TIP3    H131045   2.166   6.091  14.000  0.3912 -1.3491 -0.5118
 3210TIP3    H231046   2.145   6.178  13.878 -0.8369 -1.0832 -0.1239
 3211TIP3   OH231047   6.037   3.189   4.414 -0.0748 -0.3529  0.4043
 3211TIP3    H131048   5.982   3.137   4.473  1.0709 -1.7130  0.3213
 3211TIP3    H231049   6.116   3.207   4.465 -0.3455  1.1357  0.3426
 3212TIP3   OH231050   4.891   2.666   3.294 -0.0736  0.6227  0.1083
 3212TIP3    H131051   4.986   2.667   3.278  0.3603 -0.1679  2.2881
 3212TIP3    H231052   4.853   2.630   3.214  1.4846  0.7411 -0.7195
 3213TIP3   OH231053   1.667   1.456  11.432 -0.0680  0.4063  0.3086
 3213TIP3    H131054   1.754   1.484  11.405 -0.2876 -0.5934 -1.5918
 3213TIP3    H231055   1.683   1.377  11.485  0.1807  0.2672  0.0294
 3214TIP3   OH231056   6.400   3.944  13.077  0.3802 -0.2129  0.2666
 3214TIP3    H131057   6.470   4.008  13.092 -0.2682  1.0478 -1.7186
 3214TIP3    H231058   6.392   3.939  12.982 -2.1410 -0.4131  0.4245
 3215TIP3   OH231059   2.144   5.633  14.571  0.1546 -0.0241 -0.0194
 3215TIP3    H131060   2.087   5.618  14.647  0.9670 -1.4871  0.3459
 3215TIP3    H231061   2.193   5.551  14.561 -0.6029 -0.2433 -2.7352
 3216TIP3   OH231062   5.603   1.472   4.887  0.1027 -0.8089 -0.2565
 3216TIP3    H131063   5.617   1.409   4.816  0.4116  0.1179 -1.0487
 3216TIP3    H231064   5.577   1.553   4.842  3.1372  0.6847  0.4080
 3217TIP3   OH231065   3.084   0.422   3.662 -0.2059 -0.3457 -0.4684
 3217TIP3    H131066   2.998   0.433   3.620 -0.2637 -0.5935 -0.4175
 3217TIP3    H231067   3.139   0.381   3.595 -0.4277 -1.1750 -0.1668
 3218TIP3   OH231068   4.913   0.428   4.702  0.2871 -0.2758 -0.5762
 3218TIP3    H131069   4.998   0.471   4.712  0.2390  0.1310 -1.7567
 3218TIP3    H231070   4.889   0.443   4.610 -1.1230 -0.2610 -0.2317
 3219TIP3   OH231071   4.279   0.681   4.379  0.3687  0.3748 -0.0075
 3219TIP3    H131072   4.291   0.620   4.306 -1.7622 -0.7660  0.4921
 3219TIP3    H231073   4.221   0.749   4.344  1.5812  1.3669 -0.1425
 3220TIP3   OH231074   2.240   4.202   3.961  0.5737  0.5413 -0.1424
 3220TIP3    H131075   2.231   4.240   3.874 -0.5557  0.8026  0.0742
 3220TIP3    H231076   2.150   4.183   3.989  1.0102 -1.0858  0.2945
 3221TIP3   OH231077   1.682   0.029  11.742  0.0060  0.2542  0.9057
 3221TIP3    H131078   1.667  -0.060  11.710 -2.0199  0.6013  0.7263
 3221TIP3    H231079   1.776   0.043  11.731  0.2596 -1.5963  0.2805
 3222TIP3   OH231080   0.777   5.408  13.060 -0.0767 -0.2704 -0.3125
 3222TIP3    H131081   0.825   5.410  12.977  0.2404 -0.4645 -0.1339
 3222TIP3    H231082   0.807   5.486  13.107 -1.3209  0.6423 -0.9647
 3223TIP3   OH231083   0.963   4.647  13.342  0.2574  0.4127 -0.1835
 3223TIP3    H131084   1.050   4.624  13.376 -1.0448 -2.2001  1.6516
 3223TIP3    H231085   0.942   4.730  13.385  1.5222  0.7196 -0.1157
 3224TIP3   OH231086   5.931   4.656  12.463  0.2632  0.2002 -0.4608
 3224TIP3    H131087   5.988   4.580  12.461 -0.2204 -0.2081  0.5821
 3224TIP3    H231088   5.932   4.689  12.374  0.8837 -0.7274 -0.8106
 3225TIP3   OH231089   3.324   2.569  11.972 -0.2562  0.1718 -0.0478
 3225TIP3    H131090   3.299   2.633  11.906 -1.9692 -0.9489 -0.5568
 3225TIP3    H231091   3.350   2.621  12.048  1.6165  1.4884 -1.4937
 3226TIP3   OH231092   4.471   3.381  13.591  0.1501  0.7655  0.1217
 3226TIP3    H131093   4.432   3.400  13.677  0.0120 -1.6830  0.6888
 3226TIP3    H231094   4.417   3.310  13.556  1.1821  0.6381 -1.2746
 3227TIP3   OH231095   4.154   3.086  12.714 -0.4365  0.0090  0.0653
 3227TIP3    H131096   4.221   3.017  12.717 -0.9379 -0.4568  0.7631
 3227TIP3    H231097   4.193   3.159  12.761 -0.0731  0.0604 -0.3026
 3228TIP3   OH231098   6.024   5.476  15.674 -0.1394 -0.1989 -0.0027
 3228TIP3    H131099   5.992   5.449  15.760 -1.1631 -0.4148 -0.4346
 3228TIP3    H231100   6.073   5.557  15.690 -1.2296  0.3488  0.6367
 3229TIP3   OH231101   5.104   1.120  10.991  0.1428 -0.4771  0.3197
 3229TIP3    H131102   5.166   1.048  11.000 -1.1257 -1.6328  0.1201
 3229TIP3    H231103   5.044   1.092  10.921 -3.2201 -1.4492  3.2704
 3230TIP3   OH231104   4.956   4.171  14.724 -0.2212  0.5981 -0.4560
 3230TIP3    H131105   5.005   4.240  14.679 -0.1348  1.6537  1.1834
 3230TIP3    H231106   5.012   4.093  14.715  0.4650  1.1258 -0.9321
 3231TIP3   OH231107   2.522   1.769  13.121  0.4094 -0.4258 -0.2788
 3231TIP3    H131108   2.598   1.825  13.106 -1.1111  1.2453 -2.6001
 3231TIP3    H231109   2.519   1.712  13.044 -1.8718  1.1266 -1.4628
 3232TIP3   OH231110   2.684   5.713  13.287  0.2108 -0.3546 -0.3069
 3232TIP3    H131111   2.772   5.742  13.310  0.0777 -0.1225 -0.0842
 3232TIP3    H231112   2.688   5.617  13.290  0.4555 -0.3435 -0.2993
 3233TIP3   OH231113   1.359   0.432   2.559  0.1789 -0.4480  0.4124
 3233TIP3    H131114   1.304   0.354   2.563  1.3029 -1.2223  1.7741
 3233TIP3    H231115   1.346   0.474   2.644  0.0392  0.5525 -0.0865
 3234TIP3   OH231116   1.407   4.919   1.915  0.2691 -0.0563 -0.5026
 3234TIP3    H131117   1.405   4.969   1.996  0.9770  2.1763 -1.7704
 3234TIP3    H231118   1.459   4.842   1.935 -0.9733 -0.4290  1.5819
 3235TIP3   OH231119   6.398   1.658   2.003 -0.0902  0.0615 -0.0830
 3235TIP3    H131120   6.387   1.680   1.910  1.8532 -0.0815 -0.4073
 3235TIP3    H231121   6.391   1.742   2.048  0.1903  0.3266 -0.5166
 3236TIP3   OH231122   1.279   2.135  11.509  0.3078  0.6081 -0.0564
 3236TIP3    H131123   1.318   2.196  11.572  2.4877  1.1180 -1.7897
 3236TIP3    H231124   1.186   2.135  11.531  0.7624  1.8099  2.2517
 3237TIP3   OH231125   3.159   6.253   0.616  0.4579  0.4959 -0.0738
 3237TIP3    H131126   3.173   6.344   0.590 -0.3518  0.8896  0.7827
 3237TIP3    H231127   3.194   6.201   0.544  0.8459  1.4872 -0.6169
 3238TIP3   OH231128   1.892   5.104   3.312 -0.4461  0.2144 -0.0088
 3238TIP3    H131129   1.878   5.029   3.370 -0.5792 -0.1528 -0.5092
 3238TIP3    H231130   1.817   5.102   3.253 -0.8897  1.2384  0.4961
 3239TIP3   OH231131   1.166   3.862   2.546 -0.3241 -0.6069 -0.6475
 3239TIP3    H131132   1.195   3.848   2.636 -0.9227 -0.8646 -0.4907
 3239TIP3    H231133   1.084   3.814   2.539 -1.3771  1.0993 -0.7063
 3240TIP3   OH231134   3.239   2.541   3.942 -0.0360  0.4118 -0.0440
 3240TIP3    H131135   3.258   2.534   3.849  0.8584  1.2070  0.0590
 3240TIP3    H231136   3.319   2.512   3.985 -0.1175  0.8988  0.4537
 3241TIP3   OH231137   3.123   5.806  11.640  0.3612 -0.4171  0.0083
 3241TIP3    H131138   3.192   5.787  11.577  0.9118  0.9794  0.1592
 3241TIP3    H231139   3.168   5.810  11.725 -0.2552 -1.5621  0.4041
 3242TIP3   OH231140   2.613   6.038  12.043 -0.0920 -0.0189  0.3019
 3242TIP3    H131141   2.650   6.084  12.118  0.4718 -0.1974  0.1393
 3242TIP3    H231142   2.652   6.081  11.967 -2.8967  2.1544 -0.0546
 3243TIP3   OH231143   0.347   5.942   6.439  0.1029  0.2623  0.0743
 3243TIP3    H131144   0.296   6.022   6.425 -0.0944  0.2648  0.7894
 3243TIP3    H231145   0.410   5.942   6.368 -1.0834  0.1048 -1.0188
 3244TIP3   OH231146   4.316   4.331  13.947 -0.4281  0.3586  0.4191
 3244TIP3    H131147   4.293   4.416  13.983  0.1809  0.9259 -0.5076
 3244TIP3    H231148   4.321   4.345  13.852  0.9143 -0.4005  0.3514
 3245TIP3   OH231149   2.097   1.352   4.958 -0.3849  0.5761 -0.2345
 3245TIP3    H131150   2.004   1.355   4.934 -0.2385  0.0316 -0.8953
 3245TIP3    H231151   2.097   1.340   5.053 -0.9887  0.3799 -0.2573
 3246TIP3   OH231152   0.498   5.170  12.935 -0.8449  0.0687  0.6993
 3246TIP3    H131153   0.509   5.256  12.893 -0.6342  0.3923  1.4068
 3246TIP3    H231154   0.442   5.187  13.010 -0.5723 -0.3709  1.0048
 3247TIP3   OH231155   5.911   5.527   3.154  0.5214 -0.1047 -0.0138
 3247TIP3    H131156   5.950   5.606   3.116 -0.3451  1.1353  1.5610
 3247TIP3    H231157   5.970   5.504   3.226  0.7851 -0.9255 -0.4868
 3248TIP3   OH231158   4.885   5.851  11.364  0.1854 -0.4872 -0.1752
 3248TIP3    H131159   4.968   5.891  11.390  0.5876 -1.2749 -0.2365
 3248TIP3    H231160   4.820   5.893  11.420  0.3838  1.3042 -1.2096
 3249TIP3   OH231161   5.127   1.577  14.207  0.1220 -0.2308  0.3409
 3249TIP3    H131162   5.089   1.630  14.137 -0.9001 -0.6915  0.5204
 3249TIP3    H231163   5.208   1.622  14.231 -0.8990  1.4787  0.7570
 3250TIP3   OH231164   1.543   3.944  11.448  0.5470  0.1798  0.1690
 3250TIP3    H131165   1.528   4.004  11.521 -0.7578 -0.7677  0.7284
 3250TIP3    H231166   1.565   3.861  11.489 -1.5941 -0.7447 -0.4071
 3251TIP3   OH231167   6.261   5.624  14.887  0.7327  0.0016 -0.0704
 3251TIP3    H131168   6.257   5.596  14.978 -2.7832 -1.4495 -0.5094
 3251TIP3    H231169   6.316   5.558  14.844  1.1852 -0.1566  0.7449
 3252TIP3   OH231170   2.739   0.543  15.809  0.0351 -0.1421  0.3247
 3252TIP3    H131171   2.677   0.542  15.882  0.6359  1.4407  0.9050
 3252TIP3    H231172   2.815   0.592  15.843  0.1857  0.9414 -1.4498
 3253TIP3   OH231173   3.767   2.708  13.563  0.3389  0.4344 -0.2660
 3253TIP3    H131174   3.725   2.623  13.549 -0.0516  0.7657 -1.1748
 3253TIP3    H231175   3.703   2.772  13.534 -0.0616  1.1653  1.9859
 3254TIP3   OH231176   4.064   3.349   1.240 -0.0853 -0.2735  0.5373
 3254TIP3    H131177   3.971   3.335   1.221 -0.6263  0.8838  2.0889
 3254TIP3    H231178   4.107   3.271   1.207 -1.3713 -0.0852 -1.7748
 3255TIP3   OH231179   4.514   5.403   5.364  0.3594  0.3116  0.1255
 3255TIP3    H131180   4.603   5.436   5.379  0.9011 -0.6540 -0.7602
 3255TIP3    H231181   4.476   5.464   5.301 -0.5946  2.2385  2.4213
 3256TIP3   OH231182   2.023   3.413   5.772 -0.3920 -0.6004  0.5537
 3256TIP3    H131183   1.962   3.394   5.700  0.3678  1.3024 -0.6642
 3256TIP3    H231184   1.975   3.387   5.851 -2.2852 -0.3635 -0.4556
 3257TIP3   OH231185   0.004   0.816  13.923  0.0600 -0.0027  0.3820
 3257TIP3    H131186  -0.089   0.794  13.917  0.1624 -0.5227  0.6846
 3257TIP3    H231187   0.035   0.814  13.833  0.1283 -1.3866  0.4201
 3258TIP3   OH231188   0.645   6.241  16.924 -0.1740  0.2814  0.3881
 3258TIP3    H131189   0.599   6.190  16.857 -0.0611  0.2489  0.3347
 3258TIP3    H231190   0.662   6.178  16.995  0.4283  0.1164  0.1012
 3259TIP3   OH231191   4.809   4.310   1.709  0.0091 -0.4273 -0.3929
 3259TIP3    H131192   4.902   4.314   1.686  0.5277 -0.4076  1.5025
 3259TIP3    H231193   4.795   4.220   1.738  0.4393  0.4345  2.8867
 3260TIP3   OH231194   5.826   5.446   5.075  0.0691  1.0218  0.0862
 3260TIP3    H131195   5.861   5.442   4.986 -0.0360  1.3973  0.0244
 3260TIP3    H231196   5.776   5.528   5.076  0.5291  1.2990  0.6594
 3261TIP3   OH231197   2.036   2.284   1.167 -0.3218  0.3077  0.7700
 3261TIP3    H131198   2.058   2.210   1.223 -0.0630  0.3717  0.7572
 3261TIP3    H231199   1.997   2.245   1.089 -2.9091  0.3282  1.9729
 3262TIP3   OH231200   3.059   4.036  15.968  0.0920  0.2294  0.3708
 3262TIP3    H131201   2.989   3.977  15.939  0.0936  0.5349 -0.2466
 3262TIP3    H231202   3.063   4.104  15.902  0.8912  0.2918  0.4724
 3263TIP3   OH231203   3.042   6.336   5.151 -0.4026  0.1700  0.1844
 3263TIP3    H131204   3.003   6.354   5.065  0.5459  0.7224 -0.1497
 3263TIP3    H231205   2.992   6.391   5.212 -0.1553  0.8752 -0.2349
 3264TIP3   OH231206   3.397   0.818   2.002 -0.4132  0.1867 -0.5474
 3264TIP3    H131207   3.417   0.869   2.080 -0.3868  0.0822 -0.4872
 3264TIP3    H231208   3.441   0.865   1.931  2.3554 -1.5020 -0.0925
 3265TIP3   OH231209   1.359   0.833   4.132 -0.0678 -0.4323  0.2716
 3265TIP3    H131210   1.360   0.820   4.037  0.4854  0.0104  0.2101
 3265TIP3    H231211   1.267   0.828   4.156 -0.5377  2.0095 -0.6626
 3266TIP3   OH231212   2.139   3.479   0.202 -0.0877 -0.7382 -0.0380
 3266TIP3    H131213   2.127   3.549   0.137  0.9424 -0.5824 -0.0772
 3266TIP3    H231214   2.050   3.459   0.231 -0.3385  1.6693  1.1240
 3267TIP3   OH231215   5.557   5.609  12.426 -0.1825  0.1245  0.1086
 3267TIP3    H131216   5.566   5.617  12.331 -1.4374  0.7068  0.0178
 3267TIP3    H231217   5.647   5.608  12.458  0.4220 -3.0184 -1.2863
 3268TIP3   OH231218   5.974   5.962  12.755 -0.5036  0.2494  0.2150
 3268TIP3    H131219   5.895   5.923  12.793 -0.7538  0.8466  0.3107
 3268TIP3    H231220   6.026   5.886  12.727  1.0194 -0.4807  4.2678
 3269TIP3   OH231221   0.535   6.290   1.437  0.3381  0.3282 -0.4551
 3269TIP3    H131222   0.629   6.276   1.434  0.4098  0.8128 -0.5559
 3269TIP3    H231223   0.505   6.273   1.348  0.3666  0.4138 -0.4811
 3270TIP3   OH231224   1.411   0.681  16.207 -0.5157 -0.0375  0.2339
 3270TIP3    H131225   1.422   0.696  16.301  1.2355 -0.3610  0.1249
 3270TIP3    H231226   1.345   0.612  16.201 -0.9248  0.2563  1.2064
 3271TIP3   OH231227   4.652   1.755   6.005 -0.6606 -0.4048  0.1113
 3271TIP3    H131228   4.573   1.797   6.039 -0.7162  0.0543 -0.5550
 3271TIP3    H231229   4.724   1.809   6.038 -0.8018  1.3316 -2.1487
 3272TIP3   OH231230   3.966   5.110   5.360  0.7704 -0.2685  0.0468
 3272TIP3    H131231   3.994   5.076   5.275 -0.6407 -0.3879 -0.4048
 3272TIP3    H231232   3.981   5.204   5.354 -2.3907  0.2769 -1.7128
 3273TIP3   OH231233   4.907   5.161   2.192 -0.5597 -0.3475  0.3781
 3273TIP3    H131234   4.891   5.188   2.283  4.1713  1.5612  0.9120
 3273TIP3    H231235   4.919   5.066   2.198 -0.6111 -0.2981  1.7034
 3274TIP3   OH231236   3.338   1.825   0.823 -0.4208  0.8242 -0.5037
 3274TIP3    H131237   3.269   1.891   0.825 -1.8443 -0.5834 -0.9532
 3274TIP3    H231238   3.319   1.768   0.898  0.4161  0.5695 -0.4745
 3275TIP3   OH231239   3.180   6.315   1.488 -0.2279 -0.3271 -0.4324
 3275TIP3    H131240   3.247   6.339   1.424  1.1065 -0.6878  0.7915
 3275TIP3    H231241   3.208   6.229   1.521  0.3520  0.7866  2.2144
 3276TIP3   OH231242   2.307   5.306  14.043  0.3767 -0.7772 -0.2531
 3276TIP3    H131243   2.352   5.362  14.107 -0.1606 -0.4466 -0.1591
 3276TIP3    H231244   2.335   5.340  13.958  0.3930 -0.6470 -0.1961
 3277TIP3   OH231245   0.193   3.798   2.525 -0.0106 -0.3018  0.7546
 3277TIP3    H131246   0.225   3.875   2.573  1.3254 -0.3082 -0.0689
 3277TIP3    H231247   0.247   3.795   2.446  0.4344 -2.4638  1.0781
 3278TIP3   OH231248   1.293   1.366  11.231 -0.5477 -0.6283 -0.0453
 3278TIP3    H131249   1.385   1.373  11.207 -0.8318 -0.4879 -1.1549
 3278TIP3    H231250   1.272   1.274  11.217 -1.2782 -0.1623 -2.6569
 3279TIP3   OH231251   0.928   6.621  12.606  0.2334  0.1703 -0.2077
 3279TIP3    H131252   0.971   6.641  12.689 -0.9789  0.5597  0.3567
 3279TIP3    H231253   0.924   6.705  12.560 -1.8800  0.6621  0.7290
 3280TIP3   OH231254   3.469   2.395  13.687  0.2239  0.3563  0.6866
 3280TIP3    H131255   3.471   2.315  13.740 -0.4603  0.9335  1.6155
 3280TIP3    H231256   3.376   2.418  13.683  0.3278  0.6144 -0.3315
 3281TIP3   OH231257   3.392   5.228   3.635  0.1761 -0.0024 -0.3261
 3281TIP3    H131258   3.453   5.261   3.569  0.7695  0.4633  0.4476
 3281TIP3    H231259   3.377   5.137   3.611  1.7778 -0.3417 -0.0859
 3282TIP3   OH231260   1.804   2.799   3.362  0.1169  0.1089 -0.3600
 3282TIP3    H131261   1.746   2.829   3.292 -2.3649 -0.1123  1.4496
 3282TIP3    H231262   1.747   2.749   3.421  1.1482  3.0528  3.6194
 3283TIP3   OH231263   2.695   2.757  13.654  0.3639  0.1459  0.2630
 3283TIP3    H131264   2.768   2.786  13.709  0.4353 -1.5186  1.0875
 3283TIP3    H231265   2.676   2.668  13.683  0.1756 -0.6802 -2.1914
 3284TIP3   OH231266   3.894   0.573  12.145 -0.0552  0.2531 -0.3813
 3284TIP3    H131267   3.953   0.611  12.080 -1.0687  2.3666 -0.1573
 3284TIP3    H231268   3.826   0.531  12.093  0.2646  0.0975 -0.6750
 3285TIP3   OH231269   0.883   4.947  15.928  0.2269  0.6797 -0.1395
 3285TIP3    H131270   0.814   5.013  15.916 -2.3026 -1.3377  2.1825
 3285TIP3    H231271   0.933   4.979  16.003  0.4049  1.0232 -0.3999
 3286TIP3   OH231272   2.508   1.579   4.675  0.0985 -0.2004 -0.0028
 3286TIP3    H131273   2.431   1.626   4.705 -0.2918 -0.7775 -0.0740
 3286TIP3    H231274   2.503   1.582   4.579 -0.7942 -1.7003 -0.0497
 3287TIP3   OH231275   4.242   2.496  16.806 -0.5540 -0.1733  0.1684
 3287TIP3    H131276   4.320   2.441  16.805 -0.5412 -0.1463 -0.9066
 3287TIP3    H231277   4.173   2.440  16.840 -0.7650 -1.1889 -1.8091
 3288TIP3   OH231278   2.621   3.426  14.110 -0.2411 -0.2361  0.3337
 3288TIP3    H131279   2.534   3.429  14.149  0.5161  1.5017  2.0865
 3288TIP3    H231280   2.645   3.333  14.112 -1.5855 -0.5955  0.9502
 3289TIP3   OH231281   3.916   6.092  16.556 -0.6468  0.2367 -0.8474
 3289TIP3    H131282   3.999   6.088  16.508 -0.1370  0.9357 -0.0553
 3289TIP3    H231283   3.940   6.067  16.646 -0.9204  2.1688 -0.1843
 3290TIP3   OH231284   5.284   5.576  12.477  1.3709  0.0645 -0.0822
 3290TIP3    H131285   5.297   5.492  12.520 -0.4724  0.2987  1.0667
 3290TIP3    H231286   5.365   5.592  12.428  2.3780 -1.6056  0.9603
 3291TIP3   OH231287   5.529   1.339  13.717  0.4367  0.0166 -0.2676
 3291TIP3    H131288   5.448   1.381  13.744  0.3281 -0.2099 -0.2333
 3291TIP3    H231289   5.545   1.370  13.628  1.2855  1.4964  0.3594
 3292TIP3   OH231290   2.617   4.014  14.478 -0.2832 -0.2861 -0.0542
 3292TIP3    H131291   2.604   3.920  14.484 -0.8713 -0.1854  0.3536
 3292TIP3    H231292   2.649   4.039  14.565 -1.0079  0.0144  0.1366
 3293TIP3   OH231293   2.650   6.288   2.673 -0.6190 -0.2141  0.0300
 3293TIP3    H131294   2.588   6.358   2.655 -0.0385  0.0935 -0.8442
 3293TIP3    H231295   2.650   6.235   2.593 -0.1457 -0.5091  0.2208
 3294TIP3   OH231296   0.414   0.189  15.521  0.0484  0.4941 -0.1255
 3294TIP3    H131297   0.364   0.253  15.572 -0.1085  1.9488 -1.9723
 3294TIP3    H231298   0.505   0.217  15.531 -0.0275  1.1220 -1.0016
 3295TIP3   OH231299   0.468   6.636   2.809 -0.0113  0.6454 -0.4094
 3295TIP3    H131300   0.542   6.693   2.788 -1.1688  1.7318 -1.7920
 3295TIP3    H231301   0.440   6.664   2.896  0.6695  0.7892 -0.2301
 3296TIP3   OH231302   4.429   4.542  16.119 -0.4709  0.3945  0.0346
 3296TIP3    H131303   4.472   4.459  16.136 -0.6950  0.2677 -0.0132
 3296TIP3    H231304   4.457   4.565  16.030 -2.2809 -0.8170 -0.9157
 3297TIP3   OH231305   5.103   5.837  12.068  0.6842  0.8929 -0.4325
 3297TIP3    H131306   5.174   5.855  12.006  1.3699  0.0562  0.0943
 3297TIP3    H231307   5.048   5.915  12.063  1.2839  1.2866 -1.3250
 3298TIP3   OH231308   0.469   0.009   0.062 -0.4797 -0.0697 -0.8794
 3298TIP3    H131309   0.485  -0.081   0.092 -0.1651 -0.0568 -1.0010
 3298TIP3    H231310   0.549   0.057   0.087 -1.1109  0.4473  0.2153
 3299TIP3   OH231311   1.790   1.153  11.354 -0.3663  0.2315  0.3540
 3299TIP3    H131312   1.876   1.186  11.379 -0.3127  0.1280  0.3058
 3299TIP3    H231313   1.735   1.169  11.431 -0.7581  1.9356 -0.2253
 3300TIP3   OH231314   0.356   5.886   4.598 -0.7638 -0.5493 -0.0520
 3300TIP3    H131315   0.395   5.972   4.612  0.1228 -0.9936  0.3145
 3300TIP3    H231316   0.426   5.833   4.560 -1.4609 -0.9649 -0.7960
 3301TIP3   OH231317   0.584   2.703   4.068 -0.1759  0.7547  0.3519
 3301TIP3    H131318   0.512   2.672   4.013  0.5281  1.0526 -0.7532
 3301TIP3    H231319   0.579   2.647   4.146  0.1078 -1.1774 -0.9236
 3302TIP3   OH231320   0.613   2.266   4.087 -0.3376 -0.3339 -0.5267
 3302TIP3    H131321   0.680   2.310   4.035  0.0090 -0.1447  0.0714
 3302TIP3    H231322   0.623   2.173   4.066  0.9072 -0.4401  0.4402
 3303TIP3   OH231323   2.946   0.178  15.528  0.1293 -0.0904  0.1081
 3303TIP3    H131324   2.878   0.245  15.530 -0.4466 -0.6426 -0.5117
 3303TIP3    H231325   2.899   0.095  15.522  0.8497 -0.4531 -0.9303
 3304TIP3   OH231326   3.726   6.386  12.221  0.0503  0.2758  0.2227
 3304TIP3    H131327   3.775   6.381  12.139  0.8183  1.9587  0.5372
 3304TIP3    H231328   3.723   6.480  12.241  0.3997 -0.1450  2.4299
 3305TIP3   OH231329   3.286   3.726   4.199 -0.2629  0.2942  0.5421
 3305TIP3    H131330   3.305   3.708   4.107  0.4404  2.3167  0.2533
 3305TIP3    H231331   3.191   3.715   4.207 -0.3670  0.4087 -0.4944
 3306TIP3   OH231332   4.836   6.445  16.840 -0.0749 -0.1138 -0.0749
 3306TIP3    H131333   4.881   6.442  16.756  1.8311  2.3004  0.7369
 3306TIP3    H231334   4.872   6.372  16.889 -1.3126 -1.6329 -1.3304
 3307TIP3   OH231335   5.818   6.657  15.339 -0.1470 -0.5155  0.3813
 3307TIP3    H131336   5.763   6.670  15.416 -1.0632  0.2598 -0.3707
 3307TIP3    H231337   5.811   6.563  15.320 -1.8855 -0.3309 -0.1355
 3308TIP3   OH231338   2.927   6.540   1.189 -0.8415  0.0278  0.4759
 3308TIP3    H131339   2.950   6.550   1.097  0.4602 -1.2659  0.6183
 3308TIP3    H231340   2.869   6.614   1.208  0.6712  1.6349 -0.8048
 3309TIP3   OH231341   3.447   3.623   1.769  0.2132  0.3924  0.0867
 3309TIP3    H131342   3.494   3.544   1.741 -0.2203  0.7575 -1.7601
 3309TIP3    H231343   3.496   3.696   1.730 -0.5579  0.9055  0.0566
 3310TIP3   OH231344   5.152   6.424   3.648  0.3482  0.0576  0.0587
 3310TIP3    H131345   5.193   6.470   3.720  0.4858 -1.4055  0.9518
 3310TIP3    H231346   5.219   6.363   3.616 -0.8553 -1.9931  1.1997
 3311TIP3   OH231347   0.345   1.660  14.020  0.5006  0.0126 -0.3171
 3311TIP3    H131348   0.283   1.597  13.983 -0.4330  0.5144  0.3495
 3311TIP3    H231349   0.303   1.745  14.006  0.6129  0.2937  0.9258
 3312TIP3   OH231350   2.257   5.610   3.905 -0.1954 -0.0250  0.6135
 3312TIP3    H131351   2.166   5.591   3.926 -0.4453  0.4743  0.0435
 3312TIP3    H231352   2.308   5.555   3.964 -0.8658 -1.0136  0.3074
 3313TIP3   OH231353   2.820   4.584   3.759  0.2348 -0.1045 -0.2218
 3313TIP3    H131354   2.730   4.617   3.747  0.1780  0.2576  1.1086
 3313TIP3    H231355   2.874   4.663   3.757  0.6456 -0.3993 -1.9132
 3314TIP3   OH231356   6.078   1.341   2.221  0.1941 -0.1045  0.9954
 3314TIP3    H131357   6.051   1.383   2.302 -1.0488 -1.6799  1.4600
 3314TIP3    H231358   6.012   1.273   2.207  0.5215 -0.0251 -1.2155
 3315TIP3   OH231359   6.106   3.844  15.248  0.0020  0.5926 -0.0596
 3315TIP3    H131360   6.022   3.889  15.238  0.2595  0.8260 -1.3759
 3315TIP3    H231361   6.133   3.823  15.158  1.5450  0.9089  0.2978
 3316TIP3   OH231362   4.365   5.686  14.870 -0.2741 -0.5004  0.1663
 3316TIP3    H131363   4.423   5.755  14.839 -1.4022  1.3811  2.0253
 3316TIP3    H231364   4.337   5.715  14.957 -1.3069 -3.0061  0.7566
 3317TIP3   OH231365   6.224   0.231   2.105  0.5299  0.2997  0.1602
 3317TIP3    H131366   6.249   0.303   2.047 -1.2763  0.6769 -0.2092
 3317TIP3    H231367   6.288   0.234   2.176 -0.1558  3.0530  0.7748
 3318TIP3   OH231368   3.356   4.124   3.990 -0.7825  0.0482 -0.1581
 3318TIP3    H131369   3.282   4.182   4.010 -0.1233  0.1151  2.3755
 3318TIP3    H231370   3.427   4.183   3.964 -0.9672  0.1306 -0.4891
 3319TIP3   OH231371   3.026   1.206   2.550  0.3846  0.2031 -0.3711
 3319TIP3    H131372   3.044   1.252   2.468  0.4375  0.2078 -0.3567
 3319TIP3    H231373   2.941   1.239   2.578  0.0811 -0.2426 -0.7380
 3320TIP3   OH231374   3.570   5.202   0.281 -0.2720 -0.3199  0.2386
 3320TIP3    H131375   3.550   5.293   0.261 -0.1447 -0.2626  0.3706
 3320TIP3    H231376   3.613   5.205   0.366 -0.0611 -0.4782  0.1385
 3321TIP3   OH231377   6.773   3.722  17.079 -0.2628 -0.6658  0.0618
 3321TIP3    H131378   6.837   3.651  17.067 -0.8830 -1.3455  0.6746
 3321TIP3    H231379   6.706   3.706  17.013  0.8772  0.8848 -1.5646
 3322TIP3   OH231380   4.592   4.850  16.325 -0.1105 -0.1030  0.0205
 3322TIP3    H131381   4.672   4.903  16.328 -0.9457  1.1318  1.4314
 3322TIP3    H231382   4.521   4.913  16.329 -1.1918 -1.1920 -1.1882
 3323TIP3   OH231383   1.578   5.250   1.453  0.0968  0.2716  0.0451
 3323TIP3    H131384   1.576   5.238   1.358  0.9004  0.8140 -0.0492
 3323TIP3    H231385   1.494   5.289   1.474 -0.2372 -0.2018 -0.3966
 3324TIP3   OH231386   5.388   4.724  12.860  0.0823 -0.2880  0.1002
 3324TIP3    H131387   5.432   4.806  12.838 -0.0955  0.0415  0.9414
 3324TIP3    H231388   5.301   4.732  12.820  0.5170 -0.6362 -0.9446
 3325TIP3   OH231389   0.650   1.286   3.222 -0.6623  0.5128  0.3053
 3325TIP3    H131390   0.610   1.238   3.294  0.2881 -0.7063  0.0697
 3325TIP3    H231391   0.745   1.276   3.237 -0.4453  1.5570 -0.2664
 3326TIP3   OH231392   5.133   0.286   1.461 -0.2908  0.3289 -0.3902
 3326TIP3    H131393   5.087   0.353   1.513  0.1066  0.4851 -0.2369
 3326TIP3    H231394   5.138   0.323   1.373 -1.4966 -0.1893 -0.7028
 3327TIP3   OH231395   2.856   3.864   4.568 -0.1430 -0.2659 -0.0521
 3327TIP3    H131396   2.937   3.814   4.575  0.9579  1.3864 -0.3088
 3327TIP3    H231397   2.834   3.886   4.659  0.2492  0.0862 -0.0377
 3328TIP3   OH231398   6.133   1.393   4.190  0.0715  0.1877 -0.1136
 3328TIP3    H131399   6.046   1.424   4.213 -0.3016 -0.7823 -0.1877
 3328TIP3    H231400   6.130   1.298   4.205  1.7963  0.4150  2.0460
 3329TIP3   OH231401   1.025   3.353  13.557  0.1095 -0.5798  0.3963
 3329TIP3    H131402   1.077   3.341  13.636  2.3527  0.4760 -0.8493
 3329TIP3    H231403   1.011   3.447  13.550  1.3505 -0.4732 -1.2786
 3330TIP3   OH231404   6.631   4.771  14.454  0.2186 -0.4904  0.1947
 3330TIP3    H131405   6.609   4.699  14.394  0.8255 -0.1370 -0.4719
 3330TIP3    H231406   6.726   4.783  14.443 -0.2512  2.3686 -1.9806
 3331TIP3   OH231407   4.110   0.153   1.964  0.0931  0.2977 -0.5022
 3331TIP3    H131408   4.068   0.096   2.028  4.2324 -1.5009  0.9596
 3331TIP3    H231409   4.102   0.241   2.002 -0.2916 -0.3122  0.9015
 3332TIP3   OH231410   5.640   2.033   1.651 -0.9497  0.4101  0.2122
 3332TIP3    H131411   5.648   2.068   1.739  0.4047 -1.2835  0.8276
 3332TIP3    H231412   5.705   2.082   1.600 -1.3488  1.0094  0.2681
 3333TIP3   OH231413   5.188   4.363   0.862  0.5931  0.1407  1.0100
 3333TIP3    H131414   5.111   4.405   0.824 -0.2464  0.3792  2.8768
 3333TIP3    H231415   5.249   4.353   0.788 -1.0665  0.2566 -0.4435
 3334TIP3   OH231416   2.210   0.838   4.516 -0.0685 -0.2497 -0.2791
 3334TIP3    H131417   2.117   0.816   4.516  0.0453 -0.7326 -0.4715
 3334TIP3    H231418   2.233   0.847   4.608 -0.7912  1.9600 -0.2579
 3335TIP3   OH231419   1.046   2.854   0.070  0.3272 -0.5559 -0.3455
 3335TIP3    H131420   1.064   2.772   0.115 -0.1335 -0.7182 -0.4494
 3335TIP3    H231421   1.111   2.858  -0.001  2.1506  0.4833  1.2633
 3336TIP3   OH231422   6.242   5.274   5.887  0.4685  0.8056  0.6135
 3336TIP3    H131423   6.321   5.221   5.884  0.6375  0.8976  2.4136
 3336TIP3    H231424   6.192   5.238   5.959 -1.0433  0.9152 -0.3397
 3337TIP3   OH231425   5.135   2.642  13.019 -0.2041  0.0517 -0.3487
 3337TIP3    H131426   5.067   2.705  12.994  0.9042  1.5248  0.2152
 3337TIP3    H231427   5.089   2.579  13.075 -1.3297  0.3813 -0.8749
 3338TIP3   OH231428   0.584   6.137   1.748  0.1553  0.6048  0.3367
 3338TIP3    H131429   0.573   6.218   1.698 -1.3357 -0.5578 -1.3195
 3338TIP3    H231430   0.515   6.079   1.716  1.8335 -1.7175  0.7051
 3339TIP3   OH231431   5.773   3.127   3.865 -0.1818 -0.0128 -0.5382
 3339TIP3    H131432   5.760   3.198   3.803 -0.3181  1.0892  0.7138
 3339TIP3    H231433   5.762   3.047   3.813  2.2529  0.7832 -2.4984
 3340TIP3   OH231434   4.524   1.479   1.051  0.3093 -0.1277  0.3143
 3340TIP3    H131435   4.602   1.424   1.054  0.9655  0.5980 -1.7142
 3340TIP3    H231436   4.451   1.418   1.038  0.9226 -0.6022 -1.0163
 3341TIP3   OH231437   6.158   3.996   5.713  0.4449  0.1470  0.3199
 3341TIP3    H131438   6.132   3.936   5.642 -4.3134  0.3267  1.5985
 3341TIP3    H231439   6.200   3.939   5.778  0.6612 -0.8383 -0.6412
 3342TIP3   OH231440   2.481   1.908   3.974 -0.2875  0.3674  0.3569
 3342TIP3    H131441   2.467   1.906   3.880  0.9616 -0.0701  0.1636
 3342TIP3    H231442   2.497   2.001   3.994  1.7452  0.1860 -0.2512
 3343TIP3   OH231443   6.275   0.281   4.008  0.0949 -0.1162  0.7349
 3343TIP3    H131444   6.300   0.285   3.915 -0.8680 -3.3396  0.1938
 3343TIP3    H231445   6.205   0.345   4.017  0.9714  1.0724 -0.4379
 3344TIP3   OH231446   0.503   3.885   1.429 -0.5160  0.6172  0.5839
 3344TIP3    H131447   0.540   3.964   1.468  0.6592 -1.3385  3.7709
 3344TIP3    H231448   0.578   3.837   1.395 -1.2174  0.7376 -1.2713
 3345TIP3   OH231449   4.498   5.963   6.552 -0.0183  0.2738 -0.1139
 3345TIP3    H131450   4.430   6.016   6.510 -0.5191 -1.3801 -1.5312
 3345TIP3    H231451   4.452   5.885   6.582  0.8312  0.2691  1.2307
 3346TIP3   OH231452   5.885   0.788  15.135 -0.5557 -0.0338  0.5408
 3346TIP3    H131453   5.921   0.785  15.223 -2.2079 -0.1167  1.2533
 3346TIP3    H231454   5.791   0.771  15.147 -0.4940 -2.2605 -1.4455
 3347TIP3   OH231455   5.606   3.802  15.788  0.0695  0.0832 -0.8742
 3347TIP3    H131456   5.688   3.754  15.796 -0.2058 -0.6195 -2.0007
 3347TIP3    H231457   5.541   3.744  15.828 -0.0652  0.0647 -1.1159
 3348TIP3   OH231458   1.808   1.847   6.077  0.2734  0.5104  0.2271
 3348TIP3    H131459   1.782   1.928   6.120  0.4549  0.1135  1.1171
 3348TIP3    H231460   1.898   1.831   6.107 -0.6609 -1.4356  2.3682
 3349TIP3   OH231461   1.465   5.104   6.327 -0.7471  0.1932  0.3403
 3349TIP3    H131462   1.384   5.075   6.285 -0.2085 -1.8047  0.5784
 3349TIP3    H231463   1.444   5.110   6.420 -0.4604 -1.0806  0.5064
 3350TIP3   OH231464   3.097   0.787  15.583  0.1347 -0.0898  0.3940
 3350TIP3    H131465   3.167   0.740  15.627  0.7555 -0.2702 -0.7428
 3350TIP3    H231466   3.141   0.843  15.519 -0.6952  0.6815  0.4696
 3351TIP3   OH231467   2.228   5.067  13.912 -0.2999 -0.0394  0.1622
 3351TIP3    H131468   2.133   5.080  13.905 -0.3817  0.2567  1.4887
 3351TIP3    H231469   2.254   5.125  13.983  0.8965 -0.0792 -0.2270
 3352TIP3   OH231470   3.960   5.218   3.030 -0.1960  0.5683 -0.0728
 3352TIP3    H131471   3.920   5.132   3.041 -0.4915  0.8974  1.6534
 3352TIP3    H231472   4.052   5.199   3.010  0.3106 -0.1884  2.6395
 3353TIP3   OH231473   5.513   4.164   2.680 -0.6102 -0.6805 -0.2645
 3353TIP3    H131474   5.430   4.210   2.689 -2.0127 -3.1030  0.0632
 3353TIP3    H231475   5.521   4.112   2.760  0.9132 -0.9709 -0.5775
 3354TIP3   OH231476   1.218   0.326  14.622  0.1106  0.2771 -0.3567
 3354TIP3    H131477   1.176   0.242  14.602  0.3440  0.1408 -0.2847
 3354TIP3    H231478   1.177   0.388  14.562 -1.4619  0.5148  0.9144
 3355TIP3   OH231479   2.206   2.607   2.593  0.2399  0.0830 -0.1850
 3355TIP3    H131480   2.233   2.527   2.548  0.5764  0.3182 -0.4051
 3355TIP3    H231481   2.212   2.585   2.686 -2.1512 -0.9784 -0.1985
 3356TIP3   OH231482   0.511   2.131  13.681  0.3477 -0.1714 -0.3439
 3356TIP3    H131483   0.549   2.219  13.685 -1.6691  0.7992 -0.9548
 3356TIP3    H231484   0.551   2.084  13.754  0.0411  1.8778  1.2310
 3357TIP3   OH231485   0.518   1.266   1.011  0.2416  0.2860  0.0056
 3357TIP3    H131486   0.455   1.335   0.989 -0.9898 -0.7309  0.2305
 3357TIP3    H231487   0.469   1.206   1.067  1.1907 -0.9162 -0.4121
 3358TIP3   OH231488   3.368   5.211   5.140  0.1868 -0.3204  0.4615
 3358TIP3    H131489   3.439   5.257   5.184  0.6410 -1.9122  1.4576
 3358TIP3    H231490   3.289   5.238   5.187  0.4502 -0.5759  1.0579
 3359TIP3   OH231491   2.108   3.009  16.964 -0.4847 -0.0870 -0.4728
 3359TIP3    H131492   2.015   3.000  16.984 -0.4650  0.0752 -0.2993
 3359TIP3    H231493   2.151   3.009  17.050 -0.5477  2.3234 -0.3784
 3360TIP3   OH231494   4.210   6.101  11.866  0.1519 -0.0297  0.3879
 3360TIP3    H131495   4.247   6.072  11.782  0.6729  1.2968  0.1334
 3360TIP3    H231496   4.280   6.084  11.929 -0.4350 -1.5291  0.6824
 3361TIP3   OH231497   6.783   0.751   4.769 -0.5589  0.0322  0.0786
 3361TIP3    H131498   6.828   0.678   4.811  0.6009  1.8213  2.1490
 3361TIP3    H231499   6.853   0.800   4.726 -1.2272  0.3144 -0.7123
 3362TIP3   OH231500   0.678   3.393  15.644 -0.3930  0.1182 -0.0594
 3362TIP3    H131501   0.680   3.396  15.548  0.3254  0.3939 -0.0431
 3362TIP3    H231502   0.762   3.355  15.669 -1.4096 -1.9628  0.4192
 3363TIP3   OH231503   3.218   5.976  12.671  0.0779  0.0008 -0.0782
 3363TIP3    H131504   3.244   5.885  12.653  0.1444 -0.1861  0.9030
 3363TIP3    H231505   3.226   5.985  12.766 -1.4459  0.5592  0.0272
 3364TIP3   OH231506   5.154   1.880  16.612  0.0909 -0.0560  0.4452
 3364TIP3    H131507   5.136   1.790  16.586  0.7396 -0.0853  0.0761
 3364TIP3    H231508   5.184   1.873  16.702  0.8631 -0.2933  0.1741
 3365TIP3   OH231509   4.555   3.841   3.762  0.1080  0.2905  0.0475
 3365TIP3    H131510   4.591   3.901   3.696  0.1290  0.3506  0.1138
 3365TIP3    H231511   4.470   3.815   3.727 -0.2879  1.0464  0.4296
 3366TIP3   OH231512   2.120   6.446   4.465  0.0887  0.4760  0.3675
 3366TIP3    H131513   2.158   6.432   4.552  0.1993  1.1356  0.4347
 3366TIP3    H231514   2.041   6.392   4.465  1.4335 -1.5942 -0.0902
 3367TIP3   OH231515   2.228   5.776  12.493  0.1962  0.0853 -0.1238
 3367TIP3    H131516   2.245   5.831  12.569  3.1328  1.2953 -1.4730
 3367TIP3    H231517   2.202   5.691  12.529 -3.2570  1.8488  2.0396
 3368TIP3   OH231518   1.611   1.145   0.947 -0.1520 -0.2936 -0.0403
 3368TIP3    H131519   1.613   1.050   0.934  1.9643 -0.2249 -0.5649
 3368TIP3    H231520   1.656   1.159   1.030 -0.5285  0.2563  0.0759
 3369TIP3   OH231521   3.875   4.963   3.666  0.0498  0.0625  0.8093
 3369TIP3    H131522   3.787   4.960   3.629 -1.1845 -0.4331  3.5205
 3369TIP3    H231523   3.896   5.057   3.671  0.7269  0.1349 -1.9363
 3370TIP3   OH231524   0.476   6.618  11.841 -0.2401  0.8511  0.3173
 3370TIP3    H131525   0.436   6.687  11.894 -0.4538  0.7744  0.2581
 3370TIP3    H231526   0.403   6.561  11.817 -0.0235  0.4547  0.5852
 3371TIP3   OH231527   3.319   6.578  15.826  0.0804 -0.3922  0.7424
 3371TIP3    H131528   3.362   6.663  15.830 -2.3602  0.9943  0.0202
 3371TIP3    H231529   3.237   6.590  15.875 -0.8773 -1.9376 -0.3609
 3372TIP3   OH231530   1.046   3.570   5.628  0.6592  0.0238  0.1893
 3372TIP3    H131531   0.998   3.612   5.556 -1.7172 -2.5318  0.1102
 3372TIP3    H231532   1.059   3.480   5.599  0.2398 -0.9010  2.6718
 3373TIP3   OH231533   5.252   0.902   2.356  0.4129 -0.2659 -0.0611
 3373TIP3    H131534   5.272   0.808   2.362  0.9195 -0.1404  0.2069
 3373TIP3    H231535   5.211   0.911   2.270 -0.9555 -0.9695  0.4767
 3374TIP3   OH231536   4.473   4.923   0.353  0.0315 -0.1934 -0.2758
 3374TIP3    H131537   4.396   4.866   0.349  0.7923 -1.3652  0.9603
 3374TIP3    H231538   4.438   5.011   0.340 -1.5230 -0.6989  0.2313
 3375TIP3   OH231539   3.699   0.161  13.492 -0.0400 -0.9520  0.1640
 3375TIP3    H131540   3.712   0.162  13.587  0.4093  1.3097  0.1208
 3375TIP3    H231541   3.737   0.077  13.464  2.1906 -0.5363  1.6691
 3376TIP3   OH231542   1.147   4.894   0.658 -0.1422  0.1270  0.2431
 3376TIP3    H131543   1.192   4.925   0.737  0.4879  1.0371 -0.4692
 3376TIP3    H231544   1.213   4.898   0.589 -0.2367 -2.1076 -0.0630
 3377TIP3   OH231545   3.252   1.626  12.749 -0.2719  0.1662 -0.2411
 3377TIP3    H131546   3.198   1.564  12.699 -0.6449  0.4492 -0.1869
 3377TIP3    H231547   3.286   1.686  12.683  0.5904 -0.4547 -0.3819
 3378TIP3   OH231548   5.340   2.293  11.554 -0.3191  0.0416 -0.0230
 3378TIP3    H131549   5.398   2.367  11.538  0.9723 -0.3566  2.3944
 3378TIP3    H231550   5.253   2.331  11.558  0.2097  1.2609  0.2020
 3379TIP3   OH231551   3.293   0.385  16.521 -0.3174  0.2394  0.0625
 3379TIP3    H131552   3.342   0.303  16.520  0.8386  0.8751 -2.2698
 3379TIP3    H231553   3.299   0.415  16.612 -0.4018 -1.9814  0.8821
 3380TIP3   OH231554   5.086   2.871  13.783 -0.8787 -0.2168 -0.2629
 3380TIP3    H131555   5.154   2.902  13.722 -0.0746 -1.4678 -0.0565
 3380TIP3    H231556   5.049   2.795  13.739 -0.1570 -1.2567  0.8597
 3381TIP3   OH231557   5.014   5.489  15.268 -0.6176 -0.6163 -0.1564
 3381TIP3    H131558   4.920   5.502  15.280 -0.0141  3.5493  1.9487
 3381TIP3    H231559   5.042   5.440  15.345 -0.6592  1.4831  1.2776
 3382TIP3   OH231560   0.092   1.664  16.245  0.2806  0.3205  0.0330
 3382TIP3    H131561   0.101   1.735  16.182 -0.1968 -1.1593 -1.7752
 3382TIP3    H231562  -0.002   1.661  16.264  0.5423  1.4508  1.7133
 3383TIP3   OH231563   4.823   3.097  11.106 -0.4320 -0.0483  0.0875
 3383TIP3    H131564   4.793   3.157  11.038  1.0890  0.5500 -0.0891
 3383TIP3    H231565   4.796   3.010  11.075 -1.2137  0.3778 -0.4516
 3384TIP3   OH231566   3.806   4.748   5.603  0.2983  0.5427 -0.1810
 3384TIP3    H131567   3.728   4.777   5.651 -0.5196  0.6989 -1.5629
 3384TIP3    H231568   3.836   4.671   5.650 -1.4224 -0.2496 -0.3309
 3385TIP3   OH231569   1.989   3.192   4.207 -0.5598  0.0974  0.0481
 3385TIP3    H131570   2.081   3.205   4.182 -0.1419 -1.9118  0.3561
 3385TIP3    H231571   1.944   3.269   4.172  0.9792  0.3743 -1.4837
 3386TIP3   OH231572   0.168   1.742   4.769 -1.1508 -0.1714 -0.4035
 3386TIP3    H131573   0.178   1.748   4.864 -1.6028 -3.1179 -0.0887
 3386TIP3    H231574   0.248   1.781   4.735 -1.2050  1.4237  1.1203
 3387TIP3   OH231575   5.425   0.656   5.728  0.7386  0.3418  0.4899
 3387TIP3    H131576   5.429   0.564   5.704  0.6120  0.4861 -0.1078
 3387TIP3    H231577   5.332   0.674   5.743  0.4679  0.8853 -1.5535
 3388TIP3   OH231578   2.556   1.930   4.360 -0.4180 -0.0115 -0.4406
 3388TIP3    H131579   2.463   1.910   4.355 -0.6895  1.3823 -1.6757
 3388TIP3    H231580   2.592   1.903   4.276  0.2128 -0.0907 -0.1576
 3389TIP3   OH231581   1.258   0.796  11.385 -0.1811  0.2526  0.4620
 3389TIP3    H131582   1.201   0.771  11.459  2.0747 -1.2477  1.8130
 3389TIP3    H231583   1.313   0.866  11.419 -0.1895  0.6665 -0.3493
 3390TIP3   OH231584   5.295   5.432  15.123 -0.2618 -0.6119  0.2494
 3390TIP3    H131585   5.310   5.344  15.089  1.6000  0.0757 -0.8930
 3390TIP3    H231586   5.379   5.458  15.161 -1.2088  0.1419  1.9279
 3391TIP3   OH231587   2.619   4.814  16.417 -0.0508  0.5731 -0.2893
 3391TIP3    H131588   2.551   4.758  16.454  2.2642 -2.6367 -0.5038
 3391TIP3    H231589   2.656   4.860  16.493 -0.7593  0.3992  0.1745
 3392TIP3   OH231590   0.198   2.744   0.304  0.1058 -0.6888  0.2681
 3392TIP3    H131591   0.186   2.679   0.235 -3.2294  0.6738 -0.6462
 3392TIP3    H231592   0.143   2.713   0.375  0.5960 -0.1974  0.8652
 3393TIP3   OH231593   5.671   5.076   2.575  0.1044  0.5872 -0.4015
 3393TIP3    H131594   5.676   5.072   2.479 -2.2343  0.0157 -0.5714
 3393TIP3    H231595   5.739   5.139   2.600  0.3665  1.2194 -2.4876
 3394TIP3   OH231596   2.674   0.688  13.922  0.0597 -0.1661 -0.5052
 3394TIP3    H131597   2.591   0.732  13.905 -0.5136 -0.7147  0.7149
 3394TIP3    H231598   2.740   0.741  13.876 -0.6474  1.7017  0.5203
 3395TIP3   OH231599   0.381   5.686  12.542  0.1916 -0.3867  0.3894
 3395TIP3    H131600   0.457   5.733  12.577 -0.3082 -0.2003  1.2471
 3395TIP3    H231601   0.342   5.643  12.618 -0.8560 -0.0659  0.0478
 3396TIP3   OH231602   3.279   0.766   4.613  0.2295 -0.3440  0.2236
 3396TIP3    H131603   3.187   0.793   4.608  0.1910 -0.5749 -0.4490
 3396TIP3    H231604   3.328   0.845   4.591  0.2427  0.0722  1.6481
 3397TIP3   OH231605   3.852   2.569  12.650 -0.1885  0.4278 -0.0669
 3397TIP3    H131606   3.912   2.609  12.713  0.0694  0.5017 -0.3550
 3397TIP3    H231607   3.805   2.643  12.612  0.8094  0.5419 -1.1330
 3398TIP3   OH231608   4.644   6.088   2.137  0.7217  0.7998  0.4533
 3398TIP3    H131609   4.717   6.068   2.078  1.9527  1.0611  1.8342
 3398TIP3    H231610   4.607   6.169   2.103 -1.0087 -0.8975 -2.1262
 3399TIP3   OH231611   4.905   6.502  16.026 -0.2199 -0.1255  0.1292
 3399TIP3    H131612   4.963   6.525  15.953  0.8951  0.5927  1.1894
 3399TIP3    H231613   4.818   6.496  15.986  0.4492 -0.4605 -1.3734
 3400TIP3   OH231614   0.439   3.733  14.884 -0.1682  0.5783  0.3485
 3400TIP3    H131615   0.479   3.734  14.797  1.5337  1.0825  1.0841
 3400TIP3    H231616   0.430   3.825  14.908  0.2609  0.4366  1.0784
 3401TIP3   OH231617   6.563   0.980   2.937 -0.4419  0.4092  0.4340
 3401TIP3    H131618   6.626   1.039   2.979 -0.4960  0.1378  0.9071
 3401TIP3    H231619   6.573   0.997   2.844  0.4446  0.2605  0.4958
 3402TIP3   OH231620   1.799   5.679  14.311 -0.6526 -0.2815  0.6731
 3402TIP3    H131621   1.709   5.657  14.289 -0.9611  1.9554 -0.6426
 3402TIP3    H231622   1.851   5.647  14.237 -1.0715  2.7725 -1.1137
 3403TIP3   OH231623   3.212   4.864  15.228  0.0401  0.1532 -0.3663
 3403TIP3    H131624   3.209   4.768  15.228 -0.3237  0.1547 -1.4210
 3403TIP3    H231625   3.122   4.890  15.247  0.1022  0.2878 -0.2596
 3404TIP3   OH231626   0.838   1.654  12.976 -0.4088 -0.0678 -0.3872
 3404TIP3    H131627   0.850   1.637  13.069 -0.0815 -2.1392 -0.7469
 3404TIP3    H231628   0.743   1.662  12.965 -0.6814 -2.3051 -0.1820
 3405TIP3   OH231629   3.858   1.025  15.701 -0.3845  0.5689  0.2368
 3405TIP3    H131630   3.902   0.944  15.726 -0.2477 -0.0524 -1.7802
 3405TIP3    H231631   3.929   1.081  15.669 -0.7198  0.5916 -0.5011
 3406TIP3   OH231632   6.098   4.506  13.827 -0.3465  0.1761  0.6124
 3406TIP3    H131633   6.158   4.576  13.802 -0.1943  0.3146  1.3506
 3406TIP3    H231634   6.107   4.440  13.757 -1.0821  1.2344 -0.5120
 3407TIP3   OH231635   4.171   3.126  13.076 -0.1932  0.5738  0.0793
 3407TIP3    H131636   4.129   3.053  13.031  0.1769 -0.0748  0.7856
 3407TIP3    H231637   4.122   3.137  13.157 -0.4691  1.3399 -0.1857
 3408TIP3   OH231638   4.364   0.454   3.842 -0.1178 -0.1989  0.7885
 3408TIP3    H131639   4.443   0.413   3.809 -0.6759  0.7298 -1.8992
 3408TIP3    H231640   4.378   0.548   3.830 -2.0343 -0.0520 -0.9490
 3409TIP3   OH231641   6.484   5.996   5.998 -0.6087  0.0312 -0.2381
 3409TIP3    H131642   6.475   5.910   5.958  0.3614 -1.2073  2.0023
 3409TIP3    H231643   6.429   5.992   6.077 -0.0245  1.2088  0.2562
 3410TIP3   OH231644   1.682   0.026  12.266  0.0870 -0.0031 -0.3161
 3410TIP3    H131645   1.604   0.006  12.213 -0.0434 -0.8888  0.1967
 3410TIP3    H231646   1.736   0.080  12.209 -0.3376 -0.4179 -1.1294
 3411TIP3   OH231647   6.665   5.941   5.256  0.0889  0.0546 -0.4168
 3411TIP3    H131648   6.653   6.002   5.329  0.6026 -1.4345  0.9590
 3411TIP3    H231649   6.586   5.951   5.202 -1.1257 -0.0578  1.2805
 3412TIP3   OH231650   5.561   0.957  17.015  0.1285  0.3812 -0.5463
 3412TIP3    H131651   5.535   0.877  17.060  0.1024  1.4150  1.3849
 3412TIP3    H231652   5.517   0.952  16.930  1.3691 -2.3521 -1.1492
 3413TIP3   OH231653   3.293   0.265   0.051  0.8813  0.2910  0.1586
 3413TIP3    H131654   3.387   0.282   0.061  0.5987  1.5367  0.8817
 3413TIP3    H231655   3.257   0.278   0.139  0.2149 -1.5236  0.1908
 3414TIP3   OH231656   3.118   5.919   3.873 -0.2496  0.1499 -0.7085
 3414TIP3    H131657   3.045   5.873   3.832  0.5315 -0.6902 -1.1963
 3414TIP3    H231658   3.143   5.864   3.947  0.1327  0.2349 -0.7707
 3415TIP3   OH231659   3.243   1.761   2.238  0.4105 -0.7015  0.2452
 3415TIP3    H131660   3.169   1.772   2.298 -0.3330 -0.0456 -0.7611
 3415TIP3    H231661   3.274   1.672   2.254  0.3372 -0.4977  1.7041
 3416TIP3   OH231662   3.863   1.152   1.304 -0.0553 -0.6882  1.1747
 3416TIP3    H131663   3.797   1.219   1.324  0.2597 -0.3082  0.9489
 3416TIP3    H231664   3.890   1.119   1.389 -1.8525 -2.1526  1.2522
 3417TIP3   OH231665   0.000   3.755  15.208 -0.1225  0.0150 -0.1545
 3417TIP3    H131666   0.027   3.705  15.285 -0.3469  2.0423  1.3389
 3417TIP3    H231667   0.055   3.721  15.137  0.8392 -1.2198  1.1175
 3418TIP3   OH231668   4.456   3.050   4.818 -0.1149  0.2522 -0.0724
 3418TIP3    H131669   4.507   3.125   4.789 -0.8468  1.4640  1.6120
 3418TIP3    H231670   4.381   3.047   4.759 -0.6871  1.5903  0.5573
 3419TIP3   OH231671   4.674   2.278   6.049  0.1878 -0.2775  0.0693
 3419TIP3    H131672   4.647   2.285   6.140 -0.4331 -3.8161  0.2971
 3419TIP3    H231673   4.612   2.335   6.002 -0.0763  0.8620  1.6974
 3420TIP3   OH231674   1.371   3.722   3.139  0.6401  0.4522  0.4576
 3420TIP3    H131675   1.425   3.790   3.179  1.7956 -1.3178  2.1278
 3420TIP3    H231676   1.318   3.687   3.211 -0.7086  0.2691 -0.5780
 3421TIP3   OH231677   5.548   6.061  11.980  0.0947  0.4424 -0.2113
 3421TIP3    H131678   5.463   6.017  11.980  0.2486  0.1157  0.5440
 3421TIP3    H231679   5.546   6.120  11.905 -1.2689  1.3407  0.4943
 3422TIP3   OH231680   5.127   6.300  13.969  0.6505  0.1311  0.0402
 3422TIP3    H131681   5.065   6.302  13.896 -1.0866  2.3333  1.3959
 3422TIP3    H231682   5.163   6.388  13.972  1.3469 -0.1691  1.2756
 3423TIP3   OH231683   1.952   5.586   1.968 -0.3387  0.4522 -0.0473
 3423TIP3    H131684   1.922   5.558   1.881  0.6015  0.4894 -0.3975
 3423TIP3    H231685   1.997   5.509   2.003 -0.6853  0.4504  0.3978
 3424TIP3   OH231686   4.982   5.233   4.341 -0.2142  0.3558 -0.0564
 3424TIP3    H131687   4.894   5.217   4.377 -1.1846  0.4261 -2.2346
 3424TIP3    H231688   4.998   5.326   4.357  0.2287  0.0051  1.8230
 3425TIP3   OH231689   2.880   3.269  16.630  0.5024  0.0832 -0.4029
 3425TIP3    H131690   2.825   3.341  16.601 -0.2984 -0.8382 -1.2564
 3425TIP3    H231691   2.842   3.191  16.589  0.7120 -0.9884  1.2994
 3426TIP3   OH231692   3.930   0.054   3.986 -0.3320  0.4414  0.1098
 3426TIP3    H131693   3.839   0.038   4.011 -0.5556  1.9609  0.3557
 3426TIP3    H231694   3.974  -0.030   4.003 -1.3715  0.1199  1.4352
 3427TIP3   OH231695   3.217   1.048   1.217  0.3540 -1.1820 -0.0703
 3427TIP3    H131696   3.271   0.982   1.260  1.0702 -2.3062 -2.5607
 3427TIP3    H231697   3.247   1.050   1.127 -1.5155  0.6070 -0.7401
 3428TIP3   OH231698   1.803   5.816   3.889 -0.3441  0.1658  0.4430
 3428TIP3    H131699   1.802   5.819   3.985 -2.8251 -0.2256  0.5094
 3428TIP3    H231700   1.813   5.723   3.868 -1.3292  0.0513  0.4049
 3429TIP3   OH231701   4.117   6.524   6.018  0.0320  0.1798  0.0795
 3429TIP3    H131702   4.130   6.576   6.097 -0.1394  0.9366 -0.3859
 3429TIP3    H231703   4.132   6.433   6.046 -1.3013  0.3034  1.2711
 3430TIP3   OH231704   3.513   5.827   0.930  0.7866 -0.3475 -0.3931
 3430TIP3    H131705   3.537   5.809   0.839 -0.9482  0.8043 -1.1189
 3430TIP3    H231706   3.555   5.911   0.949 -0.3479  0.3232 -0.7675
 3431TIP3   OH231707   3.235   5.930  15.500  0.7076 -0.2921  0.2176
 3431TIP3    H131708   3.320   5.888  15.490  0.4841 -0.7356  0.1457
 3431TIP3    H231709   3.172   5.861  15.479  0.3489  0.4121 -1.1451
 3432TIP3   OH231710   5.215   0.180   6.451  0.0029  0.0435 -0.7938
 3432TIP3    H131711   5.189   0.088   6.440 -0.1858  0.2376 -2.1270
 3432TIP3    H231712   5.134   0.224   6.477  0.1996 -0.2286  0.3498
 3433TIP3   OH231713   1.214   0.399   2.306 -0.7260 -0.4116 -0.2356
 3433TIP3    H131714   1.299   0.426   2.341 -0.5374  0.0259 -1.0108
 3433TIP3    H231715   1.153   0.407   2.380 -0.0729 -0.8767  0.3709
 3434TIP3   OH231716   2.941   0.843  12.738 -0.0332  0.1204  0.1591
 3434TIP3    H131717   3.034   0.822  12.750  0.4227  0.8239 -1.7622
 3434TIP3    H231718   2.911   0.780  12.672 -1.1561 -0.5941  1.3057
 3435TIP3   OH231719   4.374   3.300  15.054 -0.1901 -0.0644 -0.0606
 3435TIP3    H131720   4.321   3.233  15.010 -1.1397  0.6830 -0.0900
 3435TIP3    H231721   4.449   3.313  14.996 -0.6912 -0.1341 -0.7367
 3436TIP3   OH231722   0.492   5.059   1.991  0.0861  0.4106  0.2233
 3436TIP3    H131723   0.482   5.067   2.086 -0.4452 -1.4946  0.3758
 3436TIP3    H231724   0.423   5.113   1.954 -2.2107 -1.7701  1.0402
 3437TIP3   OH231725   0.727   5.056   5.468 -0.7372  0.1488  0.2382
 3437TIP3    H131726   0.717   5.015   5.554 -1.3127 -1.0652 -0.3909
 3437TIP3    H231727   0.805   5.015   5.431  0.1243  1.4216  0.5700
 3438TIP3   OH231728   5.854   1.737  14.861 -0.5708 -0.1229  0.3599
 3438TIP3    H131729   5.811   1.699  14.784  0.2979  2.2572 -1.4198
 3438TIP3    H231730   5.868   1.829  14.838  1.0651  0.3456  2.8218
 3439TIP3   OH231731   1.124   1.770   2.556  0.5306  0.2922 -0.0877
 3439TIP3    H131732   1.138   1.864   2.556  0.6946  0.2875  1.2849
 3439TIP3    H231733   1.212   1.732   2.553  0.4940  0.1918  0.0928
 3440TIP3   OH231734   1.966   5.790   2.939 -0.6859  0.6537 -0.2524
 3440TIP3    H131735   1.990   5.812   3.029 -0.3288 -1.6066  0.2714
 3440TIP3    H231736   1.885   5.741   2.946 -0.2377 -0.2529 -1.0546
 3441TIP3   OH231737   4.474   3.532   6.752  0.1328 -0.3430  0.0538
 3441TIP3    H131738   4.438   3.523   6.664  0.2318 -4.0594  0.2455
 3441TIP3    H231739   4.398   3.525   6.810  0.3475 -0.4601  0.3226
 3442TIP3   OH231740   6.464   5.430  11.491 -0.0350 -0.0079  0.1643
 3442TIP3    H131741   6.479   5.357  11.551 -0.4054  0.4192  0.7924
 3442TIP3    H231742   6.419   5.391  11.416  0.2487 -0.5147  0.2523
 3443TIP3   OH231743   3.878   3.445  15.199  0.2932 -0.1878 -0.2936
 3443TIP3    H131744   3.868   3.449  15.295 -1.2772  1.2226 -0.4571
 3443TIP3    H231745   3.812   3.382  15.171 -0.5576  0.7854 -0.5549
 3444TIP3   OH231746   1.299   1.260  11.699 -0.5852 -0.6788 -0.7601
 3444TIP3    H131747   1.256   1.339  11.731 -0.6075 -1.1569  0.4202
 3444TIP3    H231748   1.332   1.285  11.612 -0.2607  0.7310 -0.2587
 3445TIP3   OH231749   0.181   3.576  13.653 -0.0860 -0.3199  0.5963
 3445TIP3    H131750   0.102   3.555  13.703 -1.7187  0.5857 -1.4583
 3445TIP3    H231751   0.209   3.661  13.689 -0.6284 -0.1682  0.6764
 3446TIP3   OH231752   2.339   4.752  16.902 -0.0662 -0.7372 -0.5470
 3446TIP3    H131753   2.325   4.764  16.808 -0.3621  0.1197 -0.4081
 3446TIP3    H231754   2.251   4.744  16.938 -0.0188  0.1088 -0.2145
 3447TIP3   OH231755   5.210   4.167   4.641  0.8407 -0.5207 -0.7774
 3447TIP3    H131756   5.175   4.078   4.633  0.9464 -0.5019 -1.4683
 3447TIP3    H231757   5.300   4.161   4.610  0.5221  0.0409 -1.8396
 3448TIP3   OH231758   1.192   1.805  16.269  0.1079 -0.3581 -0.4968
 3448TIP3    H131759   1.204   1.839  16.357 -1.2015 -2.3054  0.5111
 3448TIP3    H231760   1.272   1.755  16.252  1.2635  1.6366 -1.2986
 3449TIP3   OH231761   2.968   6.332  14.775  0.1405 -0.6648 -0.5086
 3449TIP3    H131762   3.036   6.353  14.839 -0.6306  0.1480  0.0649
 3449TIP3    H231763   3.010   6.348  14.690  0.0826  1.8106 -0.1345
 3450TIP3   OH231764   5.986   6.483  12.993 -0.2806  0.8005 -0.3478
 3450TIP3    H131765   5.973   6.472  13.087 -2.6120  0.1474 -0.6880
 3450TIP3    H231766   6.019   6.399  12.963 -1.3953  0.3658 -0.3827
 3451TIP3   OH231767   0.539   3.001   5.690 -0.4343  0.6375 -0.5272
 3451TIP3    H131768   0.503   2.943   5.758  1.9678  0.2315  0.5041
 3451TIP3    H231769   0.462   3.037   5.646 -2.0466 -1.4467  0.4028
 3452TIP3   OH231770   2.453   2.337  11.730 -0.1728  0.0179 -0.5596
 3452TIP3    H131771   2.480   2.428  11.735  2.7106 -0.7079 -0.9310
 3452TIP3    H231772   2.447   2.318  11.636 -0.2248 -0.3002 -0.4955
 3453TIP3   OH231773   2.694   1.842   4.149  0.3824 -0.1078 -0.2417
 3453TIP3    H131774   2.625   1.828   4.084 -0.5952  0.6937  0.5809
 3453TIP3    H231775   2.721   1.754   4.176 -0.1192 -0.4359 -0.7914
 3454TIP3   OH231776   2.645   2.569   0.018 -0.5714  0.3377  0.0427
 3454TIP3    H131777   2.675   2.612   0.098 -1.3769 -1.6482  1.4982
 3454TIP3    H231778   2.573   2.624  -0.012 -0.1159  1.2382  0.5544
 3455TIP3   OH231779   1.984   2.349  10.666 -0.5747 -0.7847  0.2379
 3455TIP3    H131780   2.052   2.408  10.700 -0.8439 -0.7732  0.7680
 3455TIP3    H231781   2.032   2.273  10.634 -0.1972 -0.1787 -0.7023
 3456TIP3   OH231782   6.658   4.505   2.786 -0.5835 -0.4215  0.0560
 3456TIP3    H131783   6.680   4.597   2.802 -1.3912  0.2384 -2.1957
 3456TIP3    H231784   6.670   4.494   2.692  0.2054 -2.8608  0.3799
 3457TIP3   OH231785   6.002   1.790  10.817  0.1887 -0.0906  0.1339
 3457TIP3    H131786   5.951   1.719  10.777 -0.4943  0.5381 -0.1360
 3457TIP3    H231787   5.961   1.804  10.902 -0.5850  0.9061 -0.3747
 3458TIP3   OH231788   1.684   4.900   4.818  0.2467  0.1617 -0.8606
 3458TIP3    H131789   1.612   4.947   4.776 -2.0303 -2.1090  0.2225
 3458TIP3    H231790   1.718   4.961   4.884 -1.6852  0.8046 -0.4039
 3459TIP3   OH231791   3.597   3.798   2.415 -0.3467  0.1452 -0.0272
 3459TIP3    H131792   3.591   3.852   2.336 -1.1705 -0.7203 -0.5746
 3459TIP3    H231793   3.690   3.777   2.421 -0.1170  1.0580 -0.1811
 3460TIP3   OH231794   1.732   5.730  11.194 -0.3160 -0.7084 -0.0435
 3460TIP3    H131795   1.764   5.735  11.284  0.3141 -1.0053 -0.2417
 3460TIP3    H231796   1.812   5.726  11.141 -0.6881 -1.1511 -0.5788
 3461TIP3   OH231797   2.518   6.526   3.826  0.1408  0.1409 -0.3441
 3461TIP3    H131798   2.585   6.471   3.867  0.3797  0.8422  0.2369
 3461TIP3    H231799   2.567   6.593   3.779 -0.1190 -0.9849 -2.3319
 3462TIP3   OH231800   0.335   2.504   2.421  0.1746  0.0556  0.3876
 3462TIP3    H131801   0.317   2.557   2.344 -0.9913 -0.4244  0.3179
 3462TIP3    H231802   0.285   2.546   2.491  0.6351  0.0522  0.7252
 3463TIP3   OH231803   5.202   0.585   1.111  0.1023  0.0546 -0.2745
 3463TIP3    H131804   5.259   0.601   1.036 -1.3035  0.9221 -1.2097
 3463TIP3    H231805   5.120   0.628   1.089 -1.0019 -1.2842  0.9481
 3464TIP3   OH231806   4.787   2.056   5.617  0.0975  0.1111  0.1182
 3464TIP3    H131807   4.756   1.966   5.619  0.1806  0.0531 -0.8609
 3464TIP3    H231808   4.863   2.057   5.675  0.1867 -0.4782  0.0126
 3465TIP3   OH231809   0.545   3.289  13.561  0.1212  0.3839  0.5408
 3465TIP3    H131810   0.633   3.259  13.586  1.0171  2.8727  0.6799
 3465TIP3    H231811   0.547   3.290  13.466 -0.7238 -2.0143  0.4278
 3466TIP3   OH231812   4.916   5.262  15.548 -0.4709  0.7117 -0.8278
 3466TIP3    H131813   4.913   5.223  15.461 -3.0473 -0.6018 -0.2531
 3466TIP3    H231814   4.826   5.255  15.580  0.5746  0.1988  2.3389
 3467TIP3   OH231815   6.753   0.454   0.638 -0.4299  0.3468 -0.0301
 3467TIP3    H131816   6.742   0.426   0.547 -1.6468 -0.1668  0.2462
 3467TIP3    H231817   6.755   0.549   0.635 -1.3936  0.3591 -0.5225
 3468TIP3   OH231818   6.652   3.756   5.782 -0.0113  0.0667 -0.0430
 3468TIP3    H131819   6.640   3.847   5.758 -0.1821  0.2630  0.7725
 3468TIP3    H231820   6.576   3.711   5.744  0.0988  0.2483 -0.4853
 3469TIP3   OH231821   2.297   1.062  11.194 -0.3565 -0.5822 -0.2844
 3469TIP3    H131822   2.294   1.037  11.286 -0.7470 -2.1613 -0.6966
 3469TIP3    H231823   2.207   1.083  11.171 -0.4853 -1.4504 -0.6146
 3470TIP3   OH231824   3.451   0.747   1.651  0.2768 -0.2298 -0.0851
 3470TIP3    H131825   3.408   0.680   1.704  0.6180  1.2817  2.2426
 3470TIP3    H231826   3.515   0.699   1.598  0.8900 -1.6937  1.8773
 3471TIP3   OH231827   6.097   5.946   3.230  0.5649 -0.0122  0.5679
 3471TIP3    H131828   6.114   5.922   3.321 -1.5937  0.7948  1.2526
 3471TIP3    H231829   6.166   6.008   3.207  1.0100 -0.0728  1.7079
 3472TIP3   OH231830   3.122   4.765  11.459  0.5073 -0.1164  0.2275
 3472TIP3    H131831   3.115   4.743  11.366 -0.3326  0.4251  0.1555
 3472TIP3    H231832   3.033   4.783  11.487  0.8180  0.2732  1.0120
 3473TIP3   OH231833   5.840   3.053  15.841  0.3553  0.3159  0.0269
 3473TIP3    H131834   5.814   3.104  15.764 -0.2931  1.4636  0.9760
 3473TIP3    H231835   5.910   2.996  15.810  0.0143  0.6677 -1.4397
 3474TIP3   OH231836   5.487   5.911  14.330  0.4497  0.0999 -0.0696
 3474TIP3    H131837   5.449   5.993  14.299  1.9231  0.3353 -1.3495
 3474TIP3    H231838   5.447   5.897  14.416 -2.4042  0.3739 -1.2429
 3475TIP3   OH231839   3.243   5.705  15.134  0.2234  1.1057  0.4755
 3475TIP3    H131840   3.198   5.758  15.200  1.0803  0.6247  1.4766
 3475TIP3    H231841   3.234   5.755  15.053 -0.3400  2.0100  1.0792
 3476TIP3   OH231842   3.676   0.978   1.875  0.1041  0.2657 -0.1657
 3476TIP3    H131843   3.599   0.975   1.817  0.2494 -0.4835 -0.3414
 3476TIP3    H231844   3.693   1.071   1.888  0.3684  0.4770 -1.7500
 3477TIP3   OH231845   6.612   3.265   4.480 -0.7302  0.2895 -0.0428
 3477TIP3    H131846   6.705   3.288   4.482 -0.4466 -0.8337  1.1376
 3477TIP3    H231847   6.567   3.337   4.523 -0.2215  0.1196  0.7824
 3478TIP3   OH231848   4.232   2.570   3.346 -0.4420  0.5794 -0.2474
 3478TIP3    H131849   4.262   2.607   3.428  0.7565  1.2119 -0.9461
 3478TIP3    H231850   4.282   2.616   3.278 -0.1842 -1.0747 -1.2466
 3479TIP3   OH231851   5.670   6.655  13.801 -0.5993 -0.6545  0.0338
 3479TIP3    H131852   5.682   6.612  13.717  0.3047 -1.0631  0.3622
 3479TIP3    H231853   5.604   6.603  13.847 -0.3201 -1.0450 -0.0085
 3480TIP3   OH231854   4.037   4.778  13.509 -0.4177  0.0085  0.1096
 3480TIP3    H131855   4.014   4.841  13.577  0.1336 -0.7404  1.0225
 3480TIP3    H231856   3.954   4.749  13.473 -0.8343 -0.8781  1.6921
 3481TIP3   OH231857   2.462   4.227  16.562  0.5221 -0.0863 -0.6455
 3481TIP3    H131858   2.526   4.175  16.611  0.1849  1.0555  1.0880
 3481TIP3    H231859   2.444   4.175  16.483  0.2041 -2.5917  0.9742
 3482TIP3   OH231860   4.368   2.841   2.470  0.7529 -0.2860  0.4953
 3482TIP3    H131861   4.422   2.902   2.521  0.1916  0.7297 -0.0908
 3482TIP3    H231862   4.426   2.813   2.399  0.5186  0.8807 -0.1910
 3483TIP3   OH231863   0.007   2.253  15.505 -0.5187 -0.8638  0.0419
 3483TIP3    H131864   0.073   2.203  15.554 -0.5941 -1.2693 -0.2667
 3483TIP3    H231865  -0.069   2.195  15.501 -1.0253 -0.2672  0.6840
 3484TIP3   OH231866   5.911   1.372  12.273 -0.0962 -0.0143  0.3135
 3484TIP3    H131867   5.942   1.371  12.363 -1.3835  1.2044  0.8057
 3484TIP3    H231868   5.964   1.439  12.230 -1.2326  1.2989  0.8780
 3485TIP3   OH231869   2.189   0.559   0.559  0.6873  0.4464 -0.3774
 3485TIP3    H131870   2.169   0.565   0.652  0.4658  0.5996 -0.4347
 3485TIP3    H231871   2.187   0.650   0.528  2.9254  0.6516 -0.0837
 3486TIP3   OH231872   4.641   1.244   4.985  0.3888 -0.0422 -0.3222
 3486TIP3    H131873   4.612   1.335   4.998  0.5751 -0.0605  0.2523
 3486TIP3    H231874   4.688   1.246   4.902  1.5183  0.6772  0.3141
 3487TIP3   OH231875   6.393   5.883   1.815  0.4942 -0.3581 -0.0064
 3487TIP3    H131876   6.432   5.970   1.813  0.5752 -0.3838  0.3632
 3487TIP3    H231877   6.452   5.829   1.762  1.5423 -0.6207  1.3521
 3488TIP3   OH231878   4.241   0.120   2.749  0.2771 -0.2964 -0.1297
 3488TIP3    H131879   4.328   0.083   2.758  0.6235  0.6570  0.6486
 3488TIP3    H231880   4.186   0.066   2.806  0.5929 -0.1667  0.2984
 3489TIP3   OH231881   3.949   4.086   5.428 -0.0660  0.1698 -0.0703
 3489TIP3    H131882   4.011   4.015   5.412 -1.7197 -1.4471  0.4916
 3489TIP3    H231883   3.888   4.082   5.355 -0.1649  1.0481 -0.0489
 3490TIP3   OH231884   5.082   4.673  14.876  0.1708  0.1422 -0.4555
 3490TIP3    H131885   5.092   4.746  14.814 -1.4628 -0.5949 -1.6534
 3490TIP3    H231886   5.141   4.605  14.843  0.7198  0.4304 -0.0861
 3491TIP3   OH231887   4.232   4.546   4.034 -0.1229 -0.0071  0.4405
 3491TIP3    H131888   4.287   4.602   3.979 -1.8232  0.3244 -1.0005
 3491TIP3    H231889   4.194   4.605   4.099 -1.3285  0.4316 -0.6193
 3492TIP3   OH231890   3.263   3.231  13.028 -0.3970  0.0418  0.1873
 3492TIP3    H131891   3.304   3.149  12.999 -0.1437  0.5585 -0.9656
 3492TIP3    H231892   3.318   3.260  13.101  0.1527 -0.2712 -0.0926
 3493TIP3   OH231893   3.182   4.866   2.012 -1.0543 -0.1586 -0.6013
 3493TIP3    H131894   3.093   4.854   1.979 -1.1184  0.2073 -0.5723
 3493TIP3    H231895   3.173   4.931   2.081 -1.0359 -1.5162  0.7199
 3494TIP3   OH231896   6.300   5.765   2.746  0.6598 -0.2615 -0.2256
 3494TIP3    H131897   6.327   5.780   2.655  0.9266 -3.3142 -0.7642
 3494TIP3    H231898   6.382   5.759   2.794  0.7711 -2.5181 -0.5773
 3495TIP3   OH231899   3.958   4.641  13.164  0.1425  0.3747  0.2885
 3495TIP3    H131900   3.911   4.707  13.213 -0.9425 -0.0660 -0.1275
 3495TIP3    H231901   3.917   4.640  13.078  2.3399  1.5040 -0.8590
 3496TIP3   OH231902   0.029   3.774   1.142 -0.2955 -0.8742 -0.5239
 3496TIP3    H131903  -0.006   3.862   1.130 -0.9060 -1.0362  0.0150
 3496TIP3    H231904   0.120   3.780   1.112 -0.8684 -0.5304 -2.3161
 3497TIP3   OH231905   2.533   0.781   3.603  0.4456 -0.3117  0.6972
 3497TIP3    H131906   2.569   0.730   3.676  0.3968  0.4631  1.2794
 3497TIP3    H231907   2.515   0.867   3.641  2.1049  0.6942 -0.6556
 3498TIP3   OH231908   4.504   3.494   1.882  0.6096 -0.0503 -0.1278
 3498TIP3    H131909   4.425   3.466   1.929 -2.7069  4.4219 -2.2857
 3498TIP3    H231910   4.491   3.463   1.793  0.5511  1.7452 -0.7898
 3499TIP3   OH231911   1.773   1.428   5.356  0.5657  0.3180 -0.2063
 3499TIP3    H131912   1.717   1.421   5.279  1.1248  0.8505 -0.6735
 3499TIP3    H231913   1.716   1.407   5.429 -0.6333  2.1818 -0.5373
 3500TIP3   OH231914   6.269   1.692  13.139 -0.2029  0.3162 -0.1110
 3500TIP3    H131915   6.357   1.654  13.138  0.3624  1.5605  0.2565
 3500TIP3    H231916   6.266   1.747  13.061 -1.2326 -0.9174 -0.9761
 3501TIP3   OH231917   1.589   1.572  14.567 -0.2311  0.4986 -0.9202
 3501TIP3    H131918   1.674   1.607  14.542 -0.4049  1.8127  0.2243
 3501TIP3    H231919   1.607   1.517  14.643 -0.3529  0.5073 -0.8850
 3502TIP3   OH231920   5.052   1.250   2.059 -0.1427  0.0786  0.4386
 3502TIP3    H131921   5.146   1.245   2.043 -0.0226  1.1991  0.7097
 3502TIP3    H231922   5.034   1.179   2.121  0.2602 -1.0553 -0.7045
 3503TIP3   OH231923   2.870   3.334   0.007  0.0904 -0.0584 -0.2613
 3503TIP3    H131924   2.958   3.305   0.028 -0.0701  0.1232  0.7281
 3503TIP3    H231925   2.825   3.256  -0.025  0.9890  0.1401 -2.1225
 3504TIP3   OH231926   3.256   0.414  11.686 -0.4254  0.2761  0.0607
 3504TIP3    H131927   3.165   0.387  11.700 -0.9563  1.0105 -1.5896
 3504TIP3    H231928   3.259   0.504  11.719 -0.6014  0.5962 -0.7452
 3505TIP3   OH231929   5.861   1.119  13.656  0.4490 -1.2612  0.2833
 3505TIP3    H131930   5.816   1.062  13.719 -1.5648  0.8016  0.8369
 3505TIP3    H231931   5.902   1.187  13.710  1.9499 -1.5370 -0.4385
 3506TIP3   OH231932   5.561   5.759  10.249  0.3201 -0.0749 -0.1073
 3506TIP3    H131933   5.556   5.855  10.245  0.1503 -0.1148 -2.7792
 3506TIP3    H231934   5.655   5.740  10.255  0.3598  0.2416  0.3523
 3507TIP3   OH231935   2.250   5.286   1.280 -0.5353  0.8175  0.4229
 3507TIP3    H131936   2.277   5.211   1.226 -2.6268 -0.5026  1.1006
 3507TIP3    H231937   2.330   5.314   1.324  0.5251 -0.2524 -0.7412
 3508TIP3   OH231938   1.031   6.095   5.235  0.3351 -0.3513  0.0859
 3508TIP3    H131939   1.101   6.105   5.298  0.7856 -1.2494 -0.2549
 3508TIP3    H231940   0.952   6.084   5.287  0.4129  0.7785  0.4704
 3509TIP3   OH231941   3.869   2.250   2.981 -0.2435 -0.1118  0.3135
 3509TIP3    H131942   3.920   2.223   3.057 -0.3500 -0.5864  0.2159
 3509TIP3    H231943   3.907   2.334   2.955 -0.1306 -0.0033  0.8197
 3510TIP3   OH231944   1.755   5.955   4.983  0.1334  0.1833  0.1620
 3510TIP3    H131945   1.747   5.967   5.078  1.3238  1.3948  0.1285
 3510TIP3    H231946   1.719   5.868   4.967  0.0191 -0.0826  1.7430
 3511TIP3   OH231947   0.047   0.410   4.700  0.0080  0.0197 -0.1012
 3511TIP3    H131948   0.104   0.472   4.745 -0.2290 -0.4728  0.9097
 3511TIP3    H231949  -0.015   0.382   4.767 -1.6704  0.8071 -1.2572
 3512TIP3   OH231950   2.443   6.252  12.316 -0.1339 -0.2416  0.5087
 3512TIP3    H131951   2.396   6.226  12.236 -0.8540  0.0236  0.8355
 3512TIP3    H231952   2.487   6.172  12.345 -1.5933 -0.8986  1.0004
 3513TIP3   OH231953   2.417   0.416   5.574 -0.1226 -0.0681 -0.6897
 3513TIP3    H131954   2.468   0.497   5.583  2.2957 -1.4049 -1.2673
 3513TIP3    H231955   2.383   0.419   5.484  0.0927  0.2558 -0.7620
 3514TIP3   OH231956   5.074   3.934   3.360 -0.5303 -0.1319  0.2621
 3514TIP3    H131957   5.015   4.008   3.373 -1.7348 -1.0050 -0.0193
 3514TIP3    H231958   5.155   3.973   3.329 -0.7194  1.1635  1.3247
 3515TIP3   OH231959   6.549   6.344  12.886 -0.1199 -0.1413  0.1936
 3515TIP3    H131960   6.483   6.299  12.832  0.1242 -1.3172  0.8497
 3515TIP3    H231961   6.630   6.337  12.836 -0.0930 -0.3643  0.2716
 3516TIP3   OH231962   0.357   0.935  14.963 -0.4069  0.3539 -0.3046
 3516TIP3    H131963   0.435   0.889  14.994  0.3199  1.3649 -0.5734
 3516TIP3    H231964   0.295   0.927  15.036 -0.1704 -0.7062 -0.2015
 3517TIP3   OH231965   0.804   6.724  12.356 -0.5203  0.3283 -0.0622
 3517TIP3    H131966   0.807   6.795  12.421 -0.9929  0.2491  0.0544
 3517TIP3    H231967   0.800   6.769  12.272  0.3144  0.4315 -0.0470
 3518TIP3   OH231968   3.716   3.266  16.839  0.9814  0.2468  0.4347
 3518TIP3    H131969   3.716   3.217  16.757  0.5128 -2.0068  1.6879
 3518TIP3    H231970   3.627   3.301  16.846  1.2198  1.0450 -0.3021
 3519TIP3   OH231971   2.754   1.315  13.229  0.1748 -0.5558 -0.4233
 3519TIP3    H131972   2.819   1.351  13.168  1.5252 -0.0411  1.2333
 3519TIP3    H231973   2.679   1.292  13.174  0.8633  0.9933 -2.0996
 3520TIP3   OH231974   0.584   1.814  16.811 -0.1632  0.1060  0.0301
 3520TIP3    H131975   0.552   1.876  16.877 -0.7271  0.5459 -0.6488
 3520TIP3    H231976   0.669   1.850  16.784 -1.0987  1.3926 -1.3763
 3521TIP3   OH231977   4.422   1.338  13.887 -0.0440 -0.3977  0.3892
 3521TIP3    H131978   4.450   1.417  13.934 -0.6876 -0.4661  0.9010
 3521TIP3    H231979   4.363   1.372  13.820  1.1774 -0.2586 -0.6553
 3522TIP3   OH231980   0.149   5.007  12.620 -0.2835  0.0963  0.5062
 3522TIP3    H131981   0.230   5.047  12.649  0.0817 -0.4917  0.3123
 3522TIP3    H231982   0.143   5.030  12.527  0.2584 -0.8218  0.2299
 3523TIP3   OH231983   5.595   2.549   2.448 -0.5209  0.1271  0.0855
 3523TIP3    H131984   5.564   2.485   2.512 -0.2654 -0.0564  0.0269
 3523TIP3    H231985   5.664   2.503   2.400  0.5200  0.8467  0.8523
 3524TIP3   OH231986   3.315   1.484   3.684 -0.4182 -0.3678 -0.2357
 3524TIP3    H131987   3.300   1.579   3.682 -0.9246 -0.4180  0.7411
 3524TIP3    H231988   3.392   1.471   3.629  0.0377  0.6852  0.1330
 3525TIP3   OH231989   4.734   2.289  15.658 -0.0042  0.1257 -0.4323
 3525TIP3    H131990   4.640   2.305  15.655 -0.0610 -0.3070 -1.0882
 3525TIP3    H231991   4.773   2.373  15.634 -0.2046  0.4614  0.3896
 3526TIP3   OH231992   6.243   3.802   1.733 -0.0126  0.5433 -0.1824
 3526TIP3    H131993   6.243   3.878   1.791 -0.0655  0.5183 -0.1494
 3526TIP3    H231994   6.163   3.811   1.681  0.7411  1.3362 -1.2676
 3527TIP3   OH231995   1.962   0.720  11.901 -0.4644 -0.5816 -0.8805
 3527TIP3    H131996   1.893   0.709  11.967  0.5448  0.6736  0.4709
 3527TIP3    H231997   1.960   0.813  11.879  1.0927 -0.4069 -0.4225
 3528TIP3   OH231998   1.449   1.754   0.031 -0.1788  0.8845 -0.3141
 3528TIP3    H131999   1.459   1.716   0.118 -1.0508 -1.7698 -1.2605
 3528TIP3    H232000   1.526   1.722  -0.017  0.1355  2.0719 -0.6214
 3529TIP3   OH232001   2.763   4.621   0.650 -0.1011  0.0173 -0.1355
 3529TIP3    H132002   2.758   4.656   0.560  0.6333  0.5923  0.0387
 3529TIP3    H232003   2.711   4.541   0.647 -0.3518  0.1954 -0.9994
 3530TIP3   OH232004   4.411   1.120  11.532 -0.3714  0.3933 -0.1409
 3530TIP3    H132005   4.463   1.147  11.456 -0.6171  0.3249 -0.3370
 3530TIP3    H232006   4.371   1.038  11.505  2.1266 -1.4307  1.2319
 3531TIP3   OH232007   6.320   1.936  15.942 -0.0379 -0.6091  0.4652
 3531TIP3    H132008   6.400   1.920  15.992 -0.4402  1.0675  1.7207
 3531TIP3    H232009   6.267   1.858  15.958  1.0984 -1.5150  0.0266
 3532TIP3   OH232010   5.165   1.784   1.614 -0.4450  0.0553  0.7311
 3532TIP3    H132011   5.167   1.734   1.532 -0.4455 -0.4761  1.0545
 3532TIP3    H232012   5.233   1.850   1.603  0.8407 -1.1647  1.0204
 3533TIP3   OH232013   0.989   0.165  11.205 -0.9132 -0.0426 -0.7634
 3533TIP3    H132014   0.909   0.200  11.244 -0.2456  1.9351 -1.0826
 3533TIP3    H232015   0.996   0.208  11.121  0.2079 -0.6280 -0.9864
 3534TIP3   OH232016   4.340   3.476  14.123 -0.6014 -0.2199  0.3289
 3534TIP3    H132017   4.263   3.504  14.075 -1.7466 -3.0786  0.2598
 3534TIP3    H232018   4.331   3.514  14.210 -1.8037 -0.0657  0.1433
 3535TIP3   OH232019   4.549   0.418  16.002 -0.3482 -0.0259  0.1690
 3535TIP3    H132020   4.500   0.455  16.076  0.0791  1.4064 -0.2423
 3535TIP3    H232021   4.568   0.492  15.946  0.4579 -0.9016 -0.7527
 3536TIP3   OH232022   3.873   6.286   1.505 -0.6266  0.4819  0.6132
 3536TIP3    H132023   3.958   6.266   1.546 -0.7363  1.1850  1.2013
 3536TIP3    H232024   3.811   6.284   1.578 -1.0033  0.6648  0.2931
 3537TIP3   OH232025   5.998   5.120   3.838  0.0085 -0.3298  0.1613
 3537TIP3    H132026   6.012   5.197   3.892  1.1375 -0.6345  0.3237
 3537TIP3    H232027   5.904   5.122   3.817 -0.2135  0.4173  1.1588
 3538TIP3   OH232028   4.903   5.350  12.214  0.1467 -0.0229  0.0068
 3538TIP3    H132029   4.950   5.412  12.270 -1.2959  2.1269 -1.0319
 3538TIP3    H232030   4.842   5.305  12.273 -0.8034  1.6398  0.3448
 3539TIP3   OH232031   0.551   3.821   2.469 -0.1157 -0.5488 -0.5025
 3539TIP3    H132032   0.565   3.909   2.505 -2.7875 -0.2746  0.1139
 3539TIP3    H232033   0.639   3.784   2.459  1.0059  1.6670  0.5367
 3540TIP3   OH232034   3.142   3.731   2.674  0.3280  0.9329 -0.3572
 3540TIP3    H132035   3.206   3.747   2.744  1.3515 -0.8849 -0.8279
 3540TIP3    H232036   3.077   3.800   2.686  0.4408  0.6914  2.4361
 3541TIP3   OH232037   4.693   1.941   2.701  0.0775 -0.3453  0.1936
 3541TIP3    H132038   4.718   1.971   2.789 -0.7145 -0.0176  0.3170
 3541TIP3    H232039   4.616   1.994   2.679  0.1639 -0.5554 -0.6246
 3542TIP3   OH232040   6.225   6.254  17.103 -0.4331 -0.5534  0.0794
 3542TIP3    H132041   6.253   6.162  17.105 -0.2302 -0.4948  2.3702
 3542TIP3    H232042   6.302   6.303  17.130 -1.8078 -0.1689  3.7589
 3543TIP3   OH232043   3.681   1.879   4.646 -0.1989 -0.3052 -0.2965
 3543TIP3    H132044   3.710   1.861   4.557  0.2135  0.4227 -0.3128
 3543TIP3    H232045   3.585   1.871   4.643 -0.1402 -0.9456 -0.6419
 3544TIP3   OH232046   0.906   4.165   4.714 -0.3803  0.6068 -0.6148
 3544TIP3    H132047   0.897   4.247   4.763  1.4984  1.3346 -1.3722
 3544TIP3    H232048   0.819   4.127   4.715 -1.4465  2.8580 -0.6284
 3545TIP3   OH232049   4.586   1.785   3.862 -0.2259 -0.1434 -0.1169
 3545TIP3    H132050   4.507   1.771   3.914 -0.4573 -0.4846 -0.5544
 3545TIP3    H232051   4.560   1.846   3.794  0.1936  0.6520  0.4198
 3546TIP3   OH232052   1.981   4.860  12.288  0.3108  0.3278  0.3591
 3546TIP3    H132053   1.963   4.947  12.251  1.2756 -0.3516 -1.8695
 3546TIP3    H232054   1.947   4.799  12.223  3.8829 -0.9548 -0.5620
 3547TIP3   OH232055   3.694   6.023   3.567 -0.1185 -0.5816 -0.6095
 3547TIP3    H132056   3.759   5.955   3.554  0.4470  0.1417 -1.6541
 3547TIP3    H232057   3.636   6.016   3.491 -0.5781 -0.4622 -0.2753
 3548TIP3   OH232058   4.648   1.549  14.323 -0.0447 -0.5258  0.0038
 3548TIP3    H132059   4.566   1.526  14.365 -0.3558  0.8821  0.2264
 3548TIP3    H232060   4.630   1.632  14.278  1.0117 -0.6355 -0.6703
 3549TIP3   OH232061   0.541   0.621   3.965  0.4007 -0.0604  0.1555
 3549TIP3    H132062   0.591   0.684   4.017 -0.7502 -0.3194  1.6482
 3549TIP3    H232063   0.515   0.670   3.887 -0.5952  1.3955  1.3552
 3550TIP3   OH232064   4.823   4.406  15.141 -0.3952  0.2501 -0.1513
 3550TIP3    H132065   4.761   4.339  15.169 -0.1508 -0.1285 -0.4855
 3550TIP3    H232066   4.900   4.393  15.197 -0.4939  0.5101  0.0480
 3551TIP3   OH232067   1.607   6.250  14.368  0.1340  0.0689 -0.2618
 3551TIP3    H132068   1.547   6.306  14.318  0.2549  0.2798 -0.1714
 3551TIP3    H232069   1.635   6.183  14.305 -1.4754 -1.0321  0.1283
 3552TIP3   OH232070   5.257   0.715  10.779 -0.4430  0.0327  0.6981
 3552TIP3    H132071   5.174   0.730  10.734  1.1688 -1.6208 -3.2588
 3552TIP3    H232072   5.254   0.623  10.805  0.7973 -0.6134 -1.2514
 3553TIP3   OH232073   4.073   6.593   2.584  0.2685 -0.0971 -0.5256
 3553TIP3    H132074   3.997   6.578   2.640 -1.7454  1.0350 -2.7992
 3553TIP3    H232075   4.088   6.688   2.589  1.6258 -0.3161 -0.0377
 3554TIP3   OH232076   6.319   4.377  14.007  0.0317  0.2987 -0.1298
 3554TIP3    H132077   6.239   4.400  13.960 -1.4463 -1.0998  1.5559
 3554TIP3    H232078   6.376   4.453  13.997 -1.8634  1.7083 -0.6238
 3555TIP3   OH232079   5.920   3.305  14.955  0.7239  0.5434  0.5276
 3555TIP3    H132080   5.884   3.217  14.968 -1.1172  1.3516  1.3230
 3555TIP3    H232081   6.010   3.290  14.927  0.6393 -1.5846  1.1887
 3556TIP3   OH232082   6.422   2.359  12.502  0.3457  0.2825  0.4905
 3556TIP3    H132083   6.512   2.391  12.498  0.6505 -0.6132 -0.0435
 3556TIP3    H232084   6.425   2.282  12.558  0.1752 -0.5337 -0.5844
 3557TIP3   OH232085   1.744   4.311  15.801 -0.0887  0.5544  0.2712
 3557TIP3    H132086   1.738   4.358  15.718 -0.2387 -0.6805 -0.4378
 3557TIP3    H232087   1.837   4.291  15.811 -0.2212 -0.4061 -0.2599
 3558TIP3   OH232088   1.418   2.745   3.031  0.0795 -0.1394  0.8755
 3558TIP3    H132089   1.331   2.725   2.998 -0.5230  1.5431  1.3596
 3558TIP3    H232090   1.450   2.661   3.066 -0.5092 -1.2318 -1.0488
 3559TIP3   OH232091   3.506   3.606   2.597 -0.6019  0.0953 -0.4449
 3559TIP3    H132092   3.543   3.680   2.549  0.2064 -0.5483 -0.8454
 3559TIP3    H232093   3.446   3.565   2.535 -0.7443  0.1877 -0.3663
 3560TIP3   OH232094   4.964   5.213   1.158 -0.5773  0.0330  0.2013
 3560TIP3    H132095   4.957   5.137   1.100  0.0184 -0.2250  0.4634
 3560TIP3    H232096   4.922   5.185   1.239 -0.5923  0.0755  0.2080
 3561TIP3   OH232097   5.271   5.016  16.040 -0.3370 -0.4157 -0.3310
 3561TIP3    H132098   5.254   4.955  16.111  1.3707  0.1013  0.5876
 3561TIP3    H232099   5.221   4.982  15.966 -2.0142 -1.0565  1.0542
 3562TIP3   OH232100   4.448   5.701  16.297  0.2078 -0.0727 -0.3303
 3562TIP3    H132101   4.524   5.656  16.261  1.3205  0.1687  1.5830
 3562TIP3    H232102   4.399   5.632  16.342 -0.2170 -0.0652 -0.7788
 3563TIP3   OH232103   4.187   6.806   4.895 -0.2935 -0.2677  0.4129
 3563TIP3    H132104   4.171   6.898   4.877  1.7188 -0.1580 -1.3265
 3563TIP3    H232105   4.212   6.803   4.987  2.4255  1.4780 -0.1281
 3564TIP3   OH232106   6.738   3.025   4.722 -0.2207  0.0624  0.1821
 3564TIP3    H132107   6.752   2.994   4.633  0.4539 -0.4415  0.4613
 3564TIP3    H232108   6.661   2.978   4.752  0.1125 -0.4811  0.1954
 3565TIP3   OH232109   5.354   0.935  14.773 -0.1832 -0.3944  0.1152
 3565TIP3    H132110   5.428   0.885  14.807 -0.3295 -0.4733  0.3176
 3565TIP3    H232111   5.313   0.876  14.709 -0.4381 -0.5884  0.4556
 3566TIP3   OH232112   3.942   2.632  15.121  0.4824 -0.7061 -0.5263
 3566TIP3    H132113   3.930   2.712  15.069  1.0693  1.7037  2.7600
 3566TIP3    H232114   3.855   2.611  15.155  0.4697 -1.0463 -0.7561
 3567TIP3   OH232115   2.963   6.484   1.464  0.1087  0.1450 -0.0495
 3567TIP3    H132116   2.939   6.487   1.371  1.9980  0.8990 -0.5612
 3567TIP3    H232117   3.026   6.412   1.470 -1.9308 -1.6507  1.2067
 3568TIP3   OH232118   3.369   2.682   1.990  0.3916  0.4911 -0.1474
 3568TIP3    H132119   3.408   2.754   1.941 -0.9521  1.7279  0.5050
 3568TIP3    H232120   3.304   2.644   1.930 -0.0795  0.9303  0.0733
 3569TIP3   OH232121   1.209   2.633   4.115  1.4224 -0.5332  0.4297
 3569TIP3    H132122   1.124   2.638   4.071  0.8565 -0.0436  1.5311
 3569TIP3    H232123   1.253   2.715   4.091  0.2119  0.8272  2.4758
 3570TIP3   OH232124   4.822   1.768   1.714  0.1344  0.3470  0.4716
 3570TIP3    H132125   4.729   1.779   1.734  0.1026  0.5929  0.1849
 3570TIP3    H232126   4.830   1.675   1.692  0.0783  0.1792  1.1287
 3571TIP3   OH232127   6.550   5.878  15.187  1.1759  0.0874 -0.1010
 3571TIP3    H132128   6.530   5.785  15.175 -2.1815  0.6468  0.2968
 3571TIP3    H232129   6.568   5.910  15.098 -2.1882 -0.1269 -0.9937
 3572TIP3   OH232130   6.690   6.042   1.485  0.1428 -0.0244  0.2943
 3572TIP3    H132131   6.650   6.096   1.553 -1.2936 -1.4258  0.6102
 3572TIP3    H232132   6.740   5.976   1.532 -0.7643 -0.9353  0.0070
 3573TIP3   OH232133   1.169   4.496  11.288 -0.1961 -0.2546  0.1691
 3573TIP3    H132134   1.144   4.479  11.379  1.1987  0.2823  0.6771
 3573TIP3    H232135   1.236   4.564  11.294  1.1371 -1.4147 -1.1453
 3574TIP3   OH232136   2.237   3.570  12.606  1.0347  0.2589 -0.2747
 3574TIP3    H132137   2.318   3.570  12.555  1.7540  1.6173  0.7809
 3574TIP3    H232138   2.260   3.528  12.688  0.3163 -0.4682 -0.4328
 3575TIP3   OH232139   0.336   2.789  16.472 -0.0125 -0.5254 -0.2606
 3575TIP3    H132140   0.375   2.824  16.553 -1.8396 -0.3063  0.5719
 3575TIP3    H232141   0.364   2.698  16.470 -0.3019 -0.6628  0.8855
 3576TIP3   OH232142   6.548   1.183   4.019 -0.3322  0.0105  0.2685
 3576TIP3    H132143   6.591   1.262   4.054 -0.8118  0.1590  0.5354
 3576TIP3    H232144   6.529   1.205   3.928 -0.1891  0.0922  0.2580
 3577TIP3   OH232145   5.970   2.397  13.457  0.1158 -0.2273  0.2391
 3577TIP3    H132146   5.899   2.333  13.458  1.2304 -1.5747 -1.3224
 3577TIP3    H232147   5.983   2.420  13.549 -0.7239 -1.7834  0.7898
 3578TIP3   OH232148   6.778   3.634   4.581 -0.1336  0.2979 -0.9411
 3578TIP3    H132149   6.690   3.608   4.552 -0.0450 -0.3205 -0.6731
 3578TIP3    H232150   6.815   3.679   4.505 -0.5925  0.3439 -1.1448
 3579TIP3   OH232151   2.298   2.783   6.088  0.4519  0.2083 -0.0322
 3579TIP3    H132152   2.238   2.825   6.026 -0.8140 -1.5715 -0.1320
 3579TIP3    H232153   2.240   2.742   6.153  1.5477 -1.3701  0.0198
 3580TIP3   OH232154   4.822   6.338   1.447  0.5580 -0.3537  0.4534
 3580TIP3    H132155   4.794   6.272   1.510 -2.0040  1.5735  1.5367
 3580TIP3    H232156   4.888   6.389   1.494 -1.2804  1.0269  1.7257
 3581TIP3   OH232157   3.051   4.196  14.775 -0.0019 -0.1909  0.3156
 3581TIP3    H132158   3.113   4.130  14.806  0.2641  0.0933  0.4011
 3581TIP3    H232159   3.018   4.162  14.692  2.2907  0.8504 -1.1333
 3582TIP3   OH232160   4.879   2.506  15.598 -0.1163 -0.2736 -0.0962
 3582TIP3    H132161   4.950   2.554  15.641 -2.1638  0.1253  3.0980
 3582TIP3    H232162   4.816   2.573  15.573 -1.2321 -0.9118  0.9037
 3583TIP3   OH232163   1.495   5.764   4.884  0.1117  0.7932 -0.1068
 3583TIP3    H132164   1.435   5.816   4.937  1.4606  1.9834  0.3427
 3583TIP3    H232165   1.461   5.770   4.795 -1.8632 -0.7556  0.4698
 3584TIP3   OH232166   4.180   6.086  12.705 -0.3432  0.4528  0.6383
 3584TIP3    H132167   4.231   6.050  12.632 -1.1862 -0.5529  0.5262
 3584TIP3    H232168   4.154   6.173  12.675 -1.1608 -0.1634 -0.5136
 3585TIP3   OH232169   6.790   4.991   4.484  0.8366  0.0868 -0.0100
 3585TIP3    H132170   6.722   5.016   4.547  2.0143  0.8950  0.9867
 3585TIP3    H232171   6.817   4.903   4.511 -0.6447 -0.7645 -1.1731
 3586TIP3   OH232172   6.305   0.167  13.412  0.2660  0.0990 -0.0707
 3586TIP3    H132173   6.370   0.107  13.375  0.6791  0.2853  0.3417
 3586TIP3    H232174   6.285   0.129  13.498  0.8621  0.7772  0.3825
 3587TIP3   OH232175   5.396   4.574   5.149  0.5245 -0.0870 -0.4123
 3587TIP3    H132176   5.311   4.609   5.120  1.7049  1.7162 -1.9286
 3587TIP3    H232177   5.438   4.648   5.193  0.6771 -1.4678  1.9141
 3588TIP3   OH232178   1.545   5.940   0.718  0.0807 -0.2103  0.3014
 3588TIP3    H132179   1.505   5.964   0.635  0.4958 -2.2617 -0.5371
 3588TIP3    H232180   1.522   6.012   0.777 -3.2770 -0.4123 -0.5907
 3589TIP3   OH232181   1.704   3.402  11.516 -0.1856 -0.0674 -0.1789
 3589TIP3    H132182   1.778   3.348  11.545  0.4243  0.4910 -0.6562
 3589TIP3    H232183   1.647   3.408  11.593 -1.1976 -2.8551 -0.5996
 3590TIP3   OH232184   0.541   4.316  14.004 -0.0403  0.1166  0.4083
 3590TIP3    H132185   0.630   4.285  14.020 -0.0906 -0.5451 -0.4927
 3590TIP3    H232186   0.513   4.270  13.924 -0.0395  2.6947 -1.1870
 3591TIP3   OH232187   5.891   5.779   2.402  0.3701  0.1953  0.8954
 3591TIP3    H132188   5.856   5.867   2.390  0.3954  0.2306  1.0815
 3591TIP3    H232189   5.984   5.792   2.418  1.0987 -0.0341 -2.3892
 3592TIP3   OH232190   4.321   3.361  13.828 -0.1497  0.1911 -0.1006
 3592TIP3    H132191   4.280   3.278  13.853 -2.8670  1.5844  0.3722
 3592TIP3    H232192   4.265   3.428  13.866  0.7217  2.3054 -2.2927
 3593TIP3   OH232193   2.580   0.738  11.820 -0.0061 -0.2582 -0.4404
 3593TIP3    H132194   2.543   0.715  11.905 -0.5048 -0.8282 -0.8035
 3593TIP3    H232195   2.667   0.697  11.820 -0.6412 -1.6917 -0.8342
 3594TIP3   OH232196   4.861   6.316   5.875 -0.3085  0.1008  0.1239
 3594TIP3    H132197   4.833   6.403   5.900 -0.2218  0.1206  0.1520
 3594TIP3    H232198   4.825   6.304   5.786  1.0542  0.8049 -0.5548
 3595TIP3   OH232199   5.008   4.246   4.820  0.3265 -0.5807 -0.2415
 3595TIP3    H132200   5.095   4.235   4.782  0.5154  0.5593 -0.1953
 3595TIP3    H232201   5.020   4.227   4.913  0.8292  0.7469 -0.0052
 3596TIP3   OH232202   6.306   3.990   6.365  0.0377 -0.1692  0.3098
 3596TIP3    H132203   6.323   3.921   6.301 -2.3557 -0.7808  0.2516
 3596TIP3    H232204   6.234   3.956   6.418  0.8168  1.0520  2.2375
 3597TIP3   OH232205   1.111   3.791   4.091  0.1102  0.0382  0.2400
 3597TIP3    H132206   1.053   3.799   4.167 -0.1130 -0.2166  0.1008
 3597TIP3    H232207   1.197   3.817   4.123  0.4421 -1.9211  1.1256
 3598TIP3   OH232208   0.291   5.734   6.606  0.2300  0.0249  0.3652
 3598TIP3    H132209   0.291   5.659   6.546 -1.3100  0.4015 -0.1468
 3598TIP3    H232210   0.316   5.808   6.550 -0.9783  0.3371  0.2236
 3599TIP3   OH232211   0.786   6.394  10.912 -0.3500 -0.3813 -0.2223
 3599TIP3    H132212   0.714   6.350  10.958 -1.0136 -0.4011 -1.2532
 3599TIP3    H232213   0.745   6.433  10.835  0.8364 -0.8517 -1.1183
 3600TIP3   OH232214   6.773   2.948  15.986 -0.0866 -0.9654  0.4066
 3600TIP3    H132215   6.758   2.868  15.936 -0.0337 -1.2900  0.9071
 3600TIP3    H232216   6.866   2.965  15.975  0.2003 -1.7661  1.4582
 3601TIP3   OH232217   3.722   1.811   1.448 -0.5629 -0.3631  0.2257
 3601TIP3    H132218   3.809   1.771   1.449 -1.0984 -1.5579  0.5730
 3601TIP3    H232219   3.663   1.739   1.425 -1.4922  0.3601  0.2997
 3602TIP3   OH232220   2.689   2.541   3.554 -0.3956 -0.1169 -0.5191
 3602TIP3    H132221   2.735   2.625   3.553  2.5312 -1.5886 -2.3647
 3602TIP3    H232222   2.655   2.531   3.465 -1.1797 -0.7112 -0.1691
 3603TIP3   OH232223   1.217   5.415  11.256  0.0476  0.4747  0.6744
 3603TIP3    H132224   1.129   5.442  11.229 -0.1946 -1.9258 -1.3006
 3603TIP3    H232225   1.263   5.498  11.273 -2.0157  1.8735 -0.1141
 3604TIP3   OH232226   0.882   2.123  12.038  0.1946 -0.6834  0.3251
 3604TIP3    H132227   0.889   2.037  11.997 -2.3729  0.1664 -2.2973
 3604TIP3    H232228   0.823   2.110  12.112 -0.0434 -1.2293  0.0413
 3605TIP3   OH232229   3.543   4.255   2.190  0.2149  0.0837 -0.4794
 3605TIP3    H132230   3.448   4.245   2.196  0.0434  0.8487 -1.4863
 3605TIP3    H232231   3.557   4.296   2.104  1.4364  0.1998 -0.2455
 3606TIP3   OH232232   6.318   3.371   1.348  0.1422  0.1304  0.1193
 3606TIP3    H132233   6.358   3.455   1.325  0.8523 -0.0769  0.5757
 3606TIP3    H232234   6.364   3.307   1.293 -0.9406  0.1144 -0.8194
 3607TIP3   OH232235   1.445   0.791   3.885  0.5331  0.6437  0.2316
 3607TIP3    H132236   1.537   0.767   3.896  1.5665  3.6294 -0.8769
 3607TIP3    H232237   1.447   0.880   3.850 -2.8029  0.6995 -0.1850
 3608TIP3   OH232238   1.959   6.684  15.277  0.2130  0.8019  0.2607
 3608TIP3    H132239   1.908   6.747  15.328  0.7260  0.5370  1.1305
 3608TIP3    H232240   1.906   6.667  15.199 -0.5211  1.3441  0.6317
 3609TIP3   OH232241   2.496   5.677  13.924 -0.2694 -0.2060 -0.2977
 3609TIP3    H132242   2.500   5.766  13.888  0.0720 -0.5803 -1.2091
 3609TIP3    H232243   2.406   5.648  13.907 -0.0025 -0.5242 -1.2257
 3610TIP3   OH232244   5.281   5.702  13.779  0.1046  0.3562  0.6808
 3610TIP3    H132245   5.302   5.715  13.871 -0.1047 -2.0608  1.1532
 3610TIP3    H232246   5.185   5.703  13.777  0.0791 -0.7340  0.7275
 3611TIP3   OH232247   5.821   5.281  14.967  1.1058 -0.0193  0.2080
 3611TIP3    H132248   5.750   5.251  14.910  0.9320  0.6376  0.0740
 3611TIP3    H232249   5.822   5.217  15.038  1.2037 -0.7399 -0.4277
 3612TIP3   OH232250   4.558   4.787   3.179 -0.8605  0.6160  0.8145
 3612TIP3    H132251   4.618   4.713   3.174  0.2482  1.5313 -0.0504
 3612TIP3    H232252   4.506   4.772   3.258  0.5648 -0.1665  1.6247
 3613TIP3   OH232253   6.692   1.950   3.635  0.1069  0.3486 -0.1398
 3613TIP3    H132254   6.617   1.974   3.688  0.6950  1.3265  0.2753
 3613TIP3    H232255   6.667   1.867   3.594 -0.4102 -0.4094  1.5936
 3614TIP3   OH232256   2.582   0.131   2.071 -0.2321 -0.7109 -0.2375
 3614TIP3    H132257   2.527   0.171   2.003 -0.1383 -0.6243 -0.2631
 3614TIP3    H232258   2.632   0.063   2.025 -1.5371 -1.9410  0.1078
 3615TIP3   OH232259   5.423   2.327  14.089  0.2003 -0.1751  0.0477
 3615TIP3    H132260   5.472   2.281  14.158 -0.0911  1.2326  1.2343
 3615TIP3    H232261   5.468   2.410  14.079 -0.3464  0.0261 -0.7901
 3616TIP3   OH232262   0.110   4.498  11.139 -0.1513 -0.0662  0.2992
 3616TIP3    H132263   0.137   4.576  11.091 -2.4901  1.0464  0.6713
 3616TIP3    H232264   0.145   4.510  11.227 -0.0066  0.2708  0.1962
 3617TIP3   OH232265   5.517   4.414  14.098  0.2021 -0.1235 -0.2524
 3617TIP3    H132266   5.577   4.476  14.055  0.0524 -0.5571 -1.1048
 3617TIP3    H232267   5.505   4.345  14.034 -1.1179 -0.1120 -0.0361
 3618TIP3   OH232268   5.248   2.844  15.904  0.1478  0.0211  0.0456
 3618TIP3    H132269   5.220   2.753  15.913  0.9580 -0.3372 -0.9319
 3618TIP3    H232270   5.168   2.895  15.918 -0.4855 -0.8748 -0.2214
 3619TIP3   OH232271   5.763   5.543   5.478  0.1515  0.0750  0.5869
 3619TIP3    H132272   5.676   5.569   5.445  1.3160  1.3142 -1.7855
 3619TIP3    H232273   5.767   5.581   5.565 -1.2512  1.0351  0.2790
 3620TIP3   OH232274   4.381   0.422  11.714  0.3372 -0.4663  0.3176
 3620TIP3    H132275   4.452   0.388  11.769  0.8026 -1.1090 -0.6589
 3620TIP3    H232276   4.415   0.505  11.681  0.6866 -0.8186 -0.2254
 3621TIP3   OH232277   6.362   1.740   6.548  0.0598 -0.5417 -0.8858
 3621TIP3    H132278   6.408   1.805   6.601  0.0827 -0.7878 -0.6017
 3621TIP3    H232279   6.428   1.673   6.530 -0.3745 -1.2437  0.1149
 3622TIP3   OH232280   1.275   2.910  15.894  0.2823  0.0561 -0.8024
 3622TIP3    H132281   1.325   2.991  15.888 -0.6073  0.6929  0.0700
 3622TIP3    H232282   1.327   2.854  15.951 -0.0911  0.8088  0.3065
 3623TIP3   OH232283   3.471   3.358  11.510  0.5420  0.3609  0.1231
 3623TIP3    H132284   3.538   3.408  11.557  0.6668  0.0707  0.2590
 3623TIP3    H232285   3.491   3.371  11.417  1.2916 -0.3887  0.1676
 3624TIP3   OH232286   3.995   6.713   4.725  0.4521 -0.1627 -0.1840
 3624TIP3    H132287   3.996   6.804   4.694  1.0367 -0.3615 -0.7643
 3624TIP3    H232288   4.072   6.707   4.782  2.3137 -1.1270 -2.6482
 3625TIP3   OH232289   6.738   2.315   5.340 -0.1962 -0.0926 -0.5366
 3625TIP3    H132290   6.720   2.299   5.247  1.1779 -1.2332 -0.6325
 3625TIP3    H232291   6.802   2.385   5.341 -0.2822 -0.0143 -0.4381
 3626TIP3   OH232292   4.418   5.284  15.279  0.2682  0.2968 -0.4104
 3626TIP3    H132293   4.411   5.374  15.247 -1.3046  0.9074  1.4569
 3626TIP3    H232294   4.347   5.237  15.236 -1.2363  0.8879  1.3058
 3627TIP3   OH232295   6.065   3.824  12.117 -0.2905 -0.0850 -0.0801
 3627TIP3    H132296   6.102   3.856  12.035  0.3523 -0.5017  0.0412
 3627TIP3    H232297   5.977   3.794  12.093 -0.2711  0.1962 -0.5241
 3628TIP3   OH232298   2.285   6.704   0.171  0.5216  0.0495  0.0919
 3628TIP3    H132299   2.298   6.637   0.239  2.4146  0.7553  0.4954
 3628TIP3    H232300   2.255   6.781   0.219  1.5722  0.4571  0.1322
 3629TIP3   OH232301   4.262   3.251  15.717  0.0888  0.5840  0.4118
 3629TIP3    H132302   4.292   3.170  15.677 -0.7239  0.3596  0.2259
 3629TIP3    H232303   4.323   3.267  15.789 -0.1878 -0.6032  0.9322
 3630TIP3   OH232304   1.300   2.306   2.134 -0.0055 -0.7411  0.2594
 3630TIP3    H132305   1.320   2.357   2.056  0.8918 -3.1618 -1.1968
 3630TIP3    H232306   1.341   2.355   2.206 -0.1956  1.1470 -0.8635
 3631TIP3   OH232307   0.779   0.334   1.339 -0.3633  0.0699 -0.2320
 3631TIP3    H132308   0.703   0.387   1.363 -0.4495 -0.1402 -0.0393
 3631TIP3    H232309   0.803   0.288   1.419 -0.7777 -0.7880 -0.5810
 3632TIP3   OH232310   0.116   1.988   2.370  0.5432 -0.0319  0.0900
 3632TIP3    H132311   0.056   1.986   2.445  0.7655 -0.9214  0.2495
 3632TIP3    H232312   0.177   2.059   2.391 -0.3653  0.7924 -0.0134
 3633TIP3   OH232313   2.410   5.815  13.276  0.3211 -0.4916  0.6578
 3633TIP3    H132314   2.375   5.734  13.240 -0.6917  0.7376 -1.2775
 3633TIP3    H232315   2.503   5.797  13.290  0.6291 -1.3401 -1.9173
 3634TIP3   OH232316   0.232   4.737   3.750 -0.0323  0.1485  0.1475
 3634TIP3    H132317   0.162   4.694   3.702 -1.0574  1.4322  0.4270
 3634TIP3    H232318   0.251   4.816   3.699  1.6939 -0.4739 -0.2754
 3635TIP3   OH232319   4.174   2.199  12.099  0.0869  0.5098 -0.4319
 3635TIP3    H132320   4.259   2.208  12.056  0.0793 -1.1489 -0.8516
 3635TIP3    H232321   4.112   2.239  12.039  0.0845 -1.7214 -2.0087
 3636TIP3   OH232322   3.644   4.410  13.978 -0.4266 -0.0627  0.0008
 3636TIP3    H132323   3.650   4.344  14.048 -1.2028  0.3003  0.4144
 3636TIP3    H232324   3.663   4.361  13.898 -2.4756 -1.1597  0.1126
 3637TIP3   OH232325   2.622   5.651   2.740 -0.3217  0.2326 -0.2442
 3637TIP3    H132326   2.665   5.696   2.814 -0.2617  2.4380 -1.5392
 3637TIP3    H232327   2.595   5.721   2.682 -0.4399 -1.4455 -2.3232
 3638TIP3   OH232328   1.433   5.939  12.117  0.3288  0.0527 -0.0278
 3638TIP3    H132329   1.362   5.876  12.105  1.2489 -1.1698  0.7376
 3638TIP3    H232330   1.459   5.964  12.028 -0.9816  0.4764 -0.3242
 3639TIP3   OH232331   2.062   4.814  16.406  0.2860 -0.0843 -0.3508
 3639TIP3    H132332   2.151   4.847  16.395  0.5923 -1.1259 -1.2374
 3639TIP3    H232333   2.070   4.748  16.476 -0.1367  1.0146  0.7595
 3640TIP3   OH232334   0.579   1.000   2.785  0.0821  0.1206  0.2482
 3640TIP3    H132335   0.664   0.997   2.742 -0.0209  0.8074 -0.0296
 3640TIP3    H232336   0.593   1.054   2.863  0.0820 -0.4381  0.6356
 3641TIP3   OH232337   5.408   3.200   5.657 -0.2347 -0.3764 -0.3571
 3641TIP3    H132338   5.410   3.107   5.679  0.3543 -0.0318  1.1485
 3641TIP3    H232339   5.500   3.226   5.656 -0.2735 -0.1227 -2.3516
 3642TIP3   OH232340   1.788   4.958   4.117 -0.0366  1.0581  0.3147
 3642TIP3    H132341   1.863   4.899   4.109  1.1138  2.5648 -0.6525
 3642TIP3    H232342   1.721   4.919   4.062  0.0630 -0.2814  1.1296
 3643TIP3   OH232343   4.155   5.245  14.404 -0.0131  0.0717  0.8530
 3643TIP3    H132344   4.229   5.214  14.352 -1.0569 -3.9780  1.4496
 3643TIP3    H232345   4.104   5.300  14.343  2.4039  1.4227 -0.0830
 3644TIP3   OH232346   1.228   0.324  15.163  0.5039  0.3204 -0.1984
 3644TIP3    H132347   1.242   0.315  15.068 -1.3521  1.4790 -0.6520
 3644TIP3    H232348   1.301   0.379  15.193  1.6542 -0.8581 -0.7436
 3645TIP3   OH232349   0.749   4.647  15.109 -0.7687  0.5484 -0.5724
 3645TIP3    H132350   0.683   4.632  15.042 -2.0820  2.1010  0.3040
 3645TIP3    H232351   0.758   4.742  15.112 -2.1939  0.6948  2.7322
 3646TIP3   OH232352   2.755   4.731   2.506  0.6614 -0.3872  0.4746
 3646TIP3    H132353   2.794   4.788   2.440 -1.3277  1.6355  0.9097
 3646TIP3    H232354   2.755   4.644   2.466  0.2629  0.6144 -1.8674
 3647TIP3   OH232355   3.392   5.885  13.907  0.0838  0.1321  0.3209
 3647TIP3    H132356   3.430   5.801  13.934  0.2872 -0.0644 -0.5452
 3647TIP3    H232357   3.450   5.916  13.838 -0.9537  0.1505 -0.5601
 3648TIP3   OH232358   2.723   0.546   5.307 -0.0664  0.3144  0.5134
 3648TIP3    H132359   2.763   0.577   5.226 -1.4676 -2.5105 -1.4209
 3648TIP3    H232360   2.790   0.492   5.348  0.0675  0.3255  0.3083
 3649TIP3   OH232361   2.400   0.049  11.876  0.3577 -0.4479  0.1706
 3649TIP3    H132362   2.464   0.061  11.806  0.0866 -1.2977 -0.2431
 3649TIP3    H232363   2.452   0.032  11.954  0.6811  1.0943  0.3186
 3650TIP3   OH232364   5.476   3.792   2.087  0.6528 -0.2783 -0.6094
 3650TIP3    H132365   5.542   3.751   2.143 -1.4550 -2.3339  0.5068
 3650TIP3    H232366   5.483   3.886   2.108  0.4941 -0.8528  2.6418
 3651TIP3   OH232367   1.428   6.149   1.926 -0.6205  0.5991  0.2416
 3651TIP3    H132368   1.489   6.190   1.988 -0.5296  1.6413 -0.5177
 3651TIP3    H232369   1.485   6.109   1.860 -0.6857 -1.2289  1.2091
 3652TIP3   OH232370   4.410   2.724  13.986  0.4442  0.2575 -0.0010
 3652TIP3    H132371   4.430   2.816  14.002 -1.2868  0.6290  0.2115
 3652TIP3    H232372   4.466   2.676  14.048  0.7857  1.1920  0.4352
 3653TIP3   OH232373   4.477   4.078   3.217 -0.7256 -0.0643 -0.1850
 3653TIP3    H132374   4.463   4.017   3.145 -0.6248  2.7385 -2.7771
 3653TIP3    H232375   4.568   4.107   3.206 -0.5754  0.1056  1.3503
 3654TIP3   OH232376   0.524   4.936  16.210  0.4824 -0.3222  0.0971
 3654TIP3    H132377   0.553   5.007  16.266 -0.3813  0.8113 -0.8425
 3654TIP3    H232378   0.581   4.862  16.232  1.4923  0.6999  0.9825
 3655TIP3   OH232379   2.146   5.066   5.450 -1.0539  0.4029  0.1760
 3655TIP3    H132380   2.228   5.116   5.443 -1.2465  0.6331 -0.4894
 3655TIP3    H232381   2.152   5.001   5.380 -1.3757  0.3333  0.2139
 3656TIP3   OH232382   3.294   2.745  11.749  0.5375 -0.3855  0.1226
 3656TIP3    H132383   3.297   2.836  11.718 -0.0958  0.0075  1.1523
 3656TIP3    H232384   3.366   2.702  11.704  1.0568  0.7119 -0.1356
 3657TIP3   OH232385   0.810   2.820   4.327  0.7748 -0.2528  0.7146
 3657TIP3    H132386   0.721   2.849   4.306  0.9001 -1.3115 -1.5540
 3657TIP3    H232387   0.817   2.830   4.422 -1.4133  0.7916  0.8174
 3658TIP3   OH232388   1.697   2.908  15.747  0.0329 -0.1692 -0.1802
 3658TIP3    H132389   1.667   2.886  15.659 -0.3267  0.9860 -0.3649
 3658TIP3    H232390   1.660   2.840  15.803 -0.8008 -0.2085 -0.7592
 3659TIP3   OH232391   0.644   6.628   2.311 -0.4879 -0.7664  0.2497
 3659TIP3    H132392   0.714   6.565   2.333  1.7033  1.3747 -0.1472
 3659TIP3    H232393   0.623   6.609   2.220  0.9552 -0.2756 -0.2173
 3660TIP3   OH232394   3.825   1.749   5.200 -0.3604 -0.6817  0.2530
 3660TIP3    H132395   3.859   1.808   5.133  0.1070 -0.5113  0.6377
 3660TIP3    H232396   3.873   1.771   5.279 -1.8248  0.0203  0.9959
 3661TIP3   OH232397   5.491   5.757  10.569  0.1393  0.3779 -0.0843
 3661TIP3    H132398   5.585   5.770  10.575  0.2832 -0.6708  0.1837
 3661TIP3    H232399   5.469   5.783  10.479  0.6060  1.0397 -0.0128
 3662TIP3   OH232400   5.006   5.871  16.455  0.5934 -0.0977  0.1228
 3662TIP3    H132401   5.100   5.851  16.458  1.1121  2.0160 -0.5852
 3662TIP3    H232402   4.998   5.940  16.388 -1.4986 -0.3601  0.0409
 3663TIP3   OH232403   5.214   4.730   4.966 -0.2349  0.1403  0.3965
 3663TIP3    H132404   5.278   4.798   4.947 -0.0540 -0.2511 -0.4875
 3663TIP3    H232405   5.129   4.772   4.951 -0.1559  0.4017  0.6746
 3664TIP3   OH232406   2.022   2.402   1.453 -0.4774 -0.1245  0.9487
 3664TIP3    H132407   2.069   2.331   1.496 -0.4377 -0.6829  0.0211
 3664TIP3    H232408   1.938   2.364   1.428  0.4692 -0.6490 -1.7564
 3665TIP3   OH232409   4.909   1.934   4.261  0.7015 -0.2702 -0.9993
 3665TIP3    H132410   4.928   1.896   4.175 -1.0651  0.9286 -1.9824
 3665TIP3    H232411   4.953   2.019   4.260 -0.7090  0.4733 -1.4142
 3666TIP3   OH232412   2.721   4.065   3.337 -0.0176 -0.1855 -0.3661
 3666TIP3    H132413   2.803   4.114   3.336  0.7829 -1.5000 -1.3620
 3666TIP3    H232414   2.663   4.119   3.392  1.9623  0.0077  1.7216
 3667TIP3   OH232415   1.424   6.155  11.391 -0.1468  0.3920  0.7732
 3667TIP3    H132416   1.516   6.167  11.367 -0.1709 -1.9854 -0.8828
 3667TIP3    H232417   1.393   6.243  11.412  2.5019  1.2548  1.4950
 3668TIP3   OH232418   0.565   3.521   3.930 -0.1273 -0.0311  0.3802
 3668TIP3    H132419   0.622   3.463   3.980 -2.6580 -1.9486  1.2999
 3668TIP3    H232420   0.549   3.475   3.847 -1.2828 -0.1820  0.6593
 3669TIP3   OH232421   2.621   1.433   0.092 -0.0642 -0.1493  0.2504
 3669TIP3    H132422   2.624   1.383   0.173  0.5196  0.4023  0.5777
 3669TIP3    H232423   2.646   1.522   0.117  0.9226 -0.1406 -0.6484
 3670TIP3   OH232424   3.473   2.961  10.428  0.3292 -0.5665  0.1702
 3670TIP3    H132425   3.418   3.039  10.418  2.4036  0.7796 -2.0251
 3670TIP3    H232426   3.422   2.890  10.388 -0.7447  0.0955  0.3174
 3671TIP3   OH232427   0.647   4.364   4.875 -0.1300  0.3301 -0.1891
 3671TIP3    H132428   0.635   4.357   4.969 -0.3476 -3.4438 -0.3508
 3671TIP3    H232429   0.561   4.392   4.842 -1.1963 -1.8630  0.5500
 3672TIP3   OH232430   0.547   3.616  12.831  0.4067  0.1155  0.1198
 3672TIP3    H132431   0.593   3.627  12.914  1.6206  0.8351 -0.6164
 3672TIP3    H232432   0.617   3.599  12.767 -0.6648 -5.7508 -0.0499
 3673TIP3   OH232433   5.102   3.070  15.883 -0.1383 -0.5672  0.2411
 3673TIP3    H132434   5.012   3.088  15.857 -0.7656 -2.4303  1.0110
 3673TIP3    H232435   5.127   3.146  15.936 -1.3626 -0.1804  0.2856
 3674TIP3   OH232436   1.001   1.071  15.841  0.6434 -0.1282  0.7213
 3674TIP3    H132437   0.917   1.027  15.855  0.4260  0.3019  0.7731
 3674TIP3    H232438   1.067   1.003  15.859  0.3282 -0.2192  1.5497
 3675TIP3   OH232439   0.868   5.227   4.264 -0.1541 -0.1010  0.3988
 3675TIP3    H132440   0.818   5.177   4.329  1.6041 -0.9830  1.1316
 3675TIP3    H232441   0.914   5.160   4.213 -1.3129  0.5850 -1.6590
 3676TIP3   OH232442   2.280   6.443  12.546 -0.4943  0.7615  0.1242
 3676TIP3    H132443   2.276   6.371  12.484  1.7366  0.4667  0.2508
 3676TIP3    H232444   2.235   6.409  12.624 -0.2631 -0.1515 -0.1283
 3677TIP3   OH232445   4.531   5.798  13.113 -0.3396 -0.3791  0.3464
 3677TIP3    H132446   4.486   5.883  13.119 -0.2634 -0.4247  1.7262
 3677TIP3    H232447   4.610   5.808  13.166  0.0661 -1.0774 -0.1060
 3678TIP3   OH232448   2.247   2.083   1.349 -0.5118  0.0419 -0.4838
 3678TIP3    H132449   2.196   2.125   1.418  2.0184 -0.3067  1.7528
 3678TIP3    H232450   2.305   2.152   1.316 -0.1650 -0.3361 -0.6762
 3679TIP3   OH232451   5.700   5.407  14.205  0.4940 -0.6514 -0.3668
 3679TIP3    H132452   5.667   5.496  14.195  1.5298 -0.3627 -1.4727
 3679TIP3    H232453   5.622   5.352  14.196 -0.0025  0.0876 -0.7447
 3680TIP3   OH232454   2.754   4.276   6.430  0.4547  0.8186 -0.2587
 3680TIP3    H132455   2.689   4.229   6.483  1.0008  0.3592  0.0218
 3680TIP3    H232456   2.821   4.301   6.494  0.4507  1.4656 -0.5117
 3681TIP3   OH232457   4.063   5.706  12.990  0.0364 -0.1104 -0.3799
 3681TIP3    H132458   4.115   5.741  12.918 -1.1682 -0.0173 -1.2283
 3681TIP3    H232459   3.982   5.756  12.988  0.4163  0.6950  1.7891
 3682TIP3   OH232460   1.192   1.589   4.207 -0.6787  0.6358 -0.4843
 3682TIP3    H132461   1.102   1.582   4.236 -0.5744  0.9725 -0.0691
 3682TIP3    H232462   1.233   1.649   4.270  0.0080 -0.0704 -0.2490
 3683TIP3   OH232463   5.100   4.020   4.257 -0.1312 -0.4134 -0.6449
 3683TIP3    H132464   5.115   3.999   4.349 -2.5603 -0.4640 -0.1964
 3683TIP3    H232465   5.173   4.078   4.234  0.0732  0.3060  1.5589
 3684TIP3   OH232466   4.601   0.414   6.382  0.3661  0.1722  0.2596
 3684TIP3    H132467   4.686   0.434   6.421  0.1597  0.1648  0.7256
 3684TIP3    H232468   4.556   0.361   6.448 -0.0698  0.3309  0.0978
 3685TIP3   OH232469   4.184   0.714  11.178  0.0015  0.7769 -0.7237
 3685TIP3    H132470   4.268   0.681  11.147 -0.4263 -2.2370  0.9994
 3685TIP3    H232471   4.119   0.677  11.118 -0.4063 -0.9800  0.7042
 3686TIP3   OH232472   0.248   3.556  16.582  0.0110 -0.0339  0.1499
 3686TIP3    H132473   0.212   3.467  16.578  1.0557 -0.4964  0.6466
 3686TIP3    H232474   0.226   3.587  16.670  1.8632 -0.8096  0.9431
 3687TIP3   OH232475   1.862   1.581   0.890 -0.3018  0.0754 -0.2679
 3687TIP3    H132476   1.927   1.538   0.946 -1.6236  1.2010  2.2774
 3687TIP3    H232477   1.910   1.601   0.809  2.8687  1.7446  1.8175
 3688TIP3   OH232478   2.441   1.136  15.641 -0.0206 -0.3549 -0.4657
 3688TIP3    H132479   2.505   1.123  15.571 -0.2810  0.4059 -0.8438
 3688TIP3    H232480   2.446   1.055  15.692  2.2116  0.1954  0.3050
 3689TIP3   OH232481   6.805   0.957   5.795  0.0005 -0.1843 -0.1338
 3689TIP3    H132482   6.888   1.002   5.783  0.1304 -0.6954 -1.3085
 3689TIP3    H232483   6.800   0.940   5.889  0.6961  0.8277  0.1053
 3690TIP3   OH232484   5.141   5.255   0.609  0.5737  0.1983  0.6861
 3690TIP3    H132485   5.053   5.241   0.643  0.6024 -1.3065  0.2299
 3690TIP3    H232486   5.198   5.211   0.672  0.7168 -1.5581 -0.6001
 3691TIP3   OH232487   3.901   6.707  17.039  0.2734  0.0681  1.0229
 3691TIP3    H132488   3.832   6.655  17.080 -1.2934  0.7444 -0.6031
 3691TIP3    H232489   3.896   6.684  16.946  0.3806  2.1312  0.4487
 3692TIP3   OH232490   3.778   0.976  14.182 -0.1143  0.0452  0.2955
 3692TIP3    H132491   3.811   0.982  14.272  0.2060  0.8960  0.1284
 3692TIP3    H232492   3.798   1.061  14.143  0.2526 -0.4984 -0.7520
 3693TIP3   OH232493   5.184   3.451  11.418  0.0038  0.0869 -0.4350
 3693TIP3    H132494   5.162   3.408  11.335  1.3535  1.4415 -1.5426
 3693TIP3    H232495   5.173   3.544  11.400  2.2319  0.5417  0.2786
 3694TIP3   OH232496   5.553   2.954   6.606  0.4154 -0.0433  0.6380
 3694TIP3    H132497   5.482   2.900   6.571  0.2414  0.4228  0.2503
 3694TIP3    H232498   5.632   2.902   6.593  0.1574 -0.5247  0.9846
 3695TIP3   OH232499   5.567   1.138   4.935  0.4955  0.0278 -0.0157
 3695TIP3    H132500   5.486   1.090   4.917  1.2414 -1.0996 -0.4749
 3695TIP3    H232501   5.632   1.069   4.952  1.0159  0.9453  1.8799
 3696TIP3   OH232502   3.005   4.531  13.029 -0.3101 -0.4172  0.6979
 3696TIP3    H132503   3.053   4.456  12.994 -0.9780 -0.3625 -0.3833
 3696TIP3    H232504   2.970   4.500  13.112  1.1229 -0.6300  1.2608
 3697TIP3   OH232505   2.321   6.706   1.619 -0.5444  0.3494  0.3266
 3697TIP3    H132506   2.319   6.799   1.596 -0.0847 -0.0486 -1.4367
 3697TIP3    H232507   2.398   6.697   1.675 -0.1566  0.8903 -0.1136
 3698TIP3   OH232508   0.626   1.966  14.508  0.1485 -0.0044  0.1641
 3698TIP3    H132509   0.712   1.935  14.481  0.0997  0.2335 -0.2744
 3698TIP3    H232510   0.643   2.039  14.568  0.2495  0.0363  0.0848
 3699TIP3   OH232511   2.232   5.259  13.219  0.6448  0.0725  0.5070
 3699TIP3    H132512   2.166   5.227  13.281  0.3422  0.0106  0.1588
 3699TIP3    H232513   2.204   5.223  13.135  1.0839  0.1100  0.3448
 3700TIP3   OH232514   3.538   4.922   0.182 -0.3811  0.2752  0.6607
 3700TIP3    H132515   3.471   4.906   0.115  1.3653  0.4075 -1.2147
 3700TIP3    H232516   3.524   5.013   0.209 -0.9973  0.2820  0.3296
 3701TIP3   OH232517   2.882   0.118   4.040 -0.5775 -0.9538 -0.6437
 3701TIP3    H132518   2.907   0.187   3.979 -1.0477 -0.0023  0.2191
 3701TIP3    H232519   2.869   0.163   4.123 -1.0683 -2.0599 -0.1075
 3702TIP3   OH232520   5.323   1.743   5.258 -0.4891  0.1390 -0.6710
 3702TIP3    H132521   5.381   1.695   5.199  0.3371  0.4896 -0.1566
 3702TIP3    H232522   5.318   1.689   5.337  1.2156  1.3111  0.2877
 3703TIP3   OH232523   4.082   4.508  17.074  0.9160  0.3000 -0.2059
 3703TIP3    H132524   4.156   4.555  17.113  1.3628 -0.0194 -0.6496
 3703TIP3    H232525   4.054   4.563  17.001  0.6062  0.4967  0.0532
 3704TIP3   OH232526   0.202   5.769   0.154 -0.1470 -0.1755  0.2968
 3704TIP3    H132527   0.119   5.740   0.116  0.4598  0.2451 -1.4761
 3704TIP3    H232528   0.268   5.742   0.090  0.9375  0.7432  0.9918
 3705TIP3   OH232529   3.092   1.517   4.431 -0.0105 -0.0324  0.9722
 3705TIP3    H132530   3.057   1.442   4.383  2.1817 -1.3468  1.3054
 3705TIP3    H232531   3.124   1.576   4.364 -0.5759  0.0239  0.7430
 3706TIP3   OH232532   4.097   6.102   5.438 -0.0800  0.2741  0.3717
 3706TIP3    H132533   4.118   6.114   5.531 -0.3059 -0.6032  0.5540
 3706TIP3    H232534   4.179   6.120   5.392  0.1905  0.1546  0.7975
 3707TIP3   OH232535   1.094   5.897  11.784 -0.2520 -0.2924  0.4183
 3707TIP3    H132536   1.067   5.962  11.849 -0.8631  0.0941 -0.1980
 3707TIP3    H232537   1.184   5.921  11.761 -0.5524  0.4887  0.0290
 3708TIP3   OH232538   5.109   5.773  16.989  0.1876  0.1608  0.6942
 3708TIP3    H132539   5.043   5.784  17.058  0.5204 -1.1435  1.2539
 3708TIP3    H232540   5.101   5.852  16.936 -1.3223  0.3682  1.1691
 3709TIP3   OH232541   1.556   3.539  16.160 -0.1085  0.6516 -0.7788
 3709TIP3    H132542   1.472   3.499  16.183  0.3489 -0.4492 -0.9799
 3709TIP3    H232543   1.539   3.584  16.077 -0.4190  0.1557 -0.9907
 3710TIP3   OH232544   4.604   6.666  12.811  0.0540  0.2700 -1.1482
 3710TIP3    H132545   4.658   6.738  12.842 -2.5869  2.6175 -1.6375
 3710TIP3    H232546   4.520   6.676  12.856  0.3345 -4.3318  1.0507
 3711TIP3   OH232547   2.917   4.800  12.005  0.1666 -0.2189  0.2817
 3711TIP3    H132548   2.854   4.754  12.060  1.1438 -1.3410  0.5070
 3711TIP3    H232549   2.950   4.871  12.060 -2.2771  1.6381 -0.4942
 3712TIP3   OH232550   0.368   1.926  11.478  0.5769  0.1979  0.0864
 3712TIP3    H132551   0.359   1.939  11.572 -0.4822 -0.3886  0.0798
 3712TIP3    H232552   0.453   1.965  11.457  0.6473  0.7006  1.2081
 3713TIP3   OH232553   0.628   1.745  13.551 -0.3090 -0.0174  0.0752
 3713TIP3    H132554   0.648   1.690  13.627  0.1116 -0.0850 -0.0866
 3713TIP3    H232555   0.708   1.796  13.537 -0.1537 -0.4797 -0.7364
 3714TIP3   OH232556   2.182   0.748   5.476  0.0949  0.2527  0.0860
 3714TIP3    H132557   2.228   0.758   5.393 -0.8275 -0.1016 -0.4795
 3714TIP3    H232558   2.155   0.656   5.478 -1.9034  0.7855 -0.3175
 3715TIP3   OH232559   6.231   1.265   3.900 -0.4734 -0.6714  0.2010
 3715TIP3    H132560   6.135   1.263   3.896 -0.5484  0.4811  0.7953
 3715TIP3    H232561   6.254   1.353   3.868  0.5494 -1.7129 -2.1713
 3716TIP3   OH232562   5.499   4.720   3.548  0.0025 -0.4372  0.1093
 3716TIP3    H132563   5.585   4.706   3.587 -0.0048  3.0059  1.7961
 3716TIP3    H232564   5.441   4.660   3.595  1.2085 -1.7628 -0.0334
 3717TIP3   OH232565   4.247   4.657  15.566 -0.0285 -0.1073 -0.5511
 3717TIP3    H132566   4.261   4.634  15.658  1.5348 -2.2361 -1.2276
 3717TIP3    H232567   4.196   4.584  15.531  0.5998 -0.0408 -1.6571
 3718TIP3   OH232568   2.147   4.936   3.867 -0.0162 -0.1385 -0.4696
 3718TIP3    H132569   2.118   5.023   3.894  1.0610  0.3683 -0.8849
 3718TIP3    H232570   2.174   4.947   3.776 -0.1780 -0.9808 -0.6243
 3719TIP3   OH232571   6.768   5.925  15.610 -0.0247 -0.0993  0.0975
 3719TIP3    H132572   6.734   5.964  15.529 -1.3278  0.3511  0.8338
 3719TIP3    H232573   6.730   5.837  15.612 -0.0289 -0.0942  0.2437
 3720TIP3   OH232574   3.693   4.786   2.412  0.6027  0.1301  0.1810
 3720TIP3    H132575   3.651   4.701   2.407  1.4042 -0.3563  1.2082
 3720TIP3    H232576   3.745   4.793   2.332  1.3909 -0.8357  0.5889
 3721TIP3   OH232577   4.147   0.998   4.716  0.3753  0.8149 -0.0961
 3721TIP3    H132578   4.067   0.974   4.670 -0.0196  1.5835  0.1718
 3721TIP3    H232579   4.169   1.085   4.681  2.1963 -0.1784 -1.6267
 3722TIP3   OH232580   6.007   3.881  12.376 -0.3211  0.0636 -0.2059
 3722TIP3    H132581   5.927   3.829  12.372  1.5099 -3.0057 -0.1802
 3722TIP3    H232582   6.050   3.866  12.292 -0.2770  2.7315 -0.7682
 3723TIP3   OH232583   3.515   0.110   5.998 -0.4519 -0.1443  0.1940
 3723TIP3    H132584   3.548   0.023   5.973 -0.8629 -0.3919  0.4966
 3723TIP3    H232585   3.509   0.106   6.093  0.5454  0.5891  0.3091
 3724TIP3   OH232586   1.236   3.509  11.255  0.2694  0.3844 -0.1115
 3724TIP3    H132587   1.255   3.586  11.308  0.1626 -0.7921  1.7207
 3724TIP3    H232588   1.293   3.440  11.292 -1.1521 -0.9468 -0.2930
 3725TIP3   OH232589   2.986   5.511   1.024 -0.2676  0.2093 -0.4544
 3725TIP3    H132590   3.070   5.530   1.066  0.0889  1.0759 -1.4974
 3725TIP3    H232591   2.921   5.555   1.078 -0.0234 -0.1864  0.1734
 3726TIP3   OH232592   2.314   4.640  15.485 -0.1630 -0.6629  0.0043
 3726TIP3    H132593   2.339   4.705  15.551 -0.4402 -0.9577  0.4025
 3726TIP3    H232594   2.295   4.561  15.536  2.3449 -1.7515 -0.6020
 3727TIP3   OH232595   6.351   1.562  15.981 -0.4866  0.0375  0.4813
 3727TIP3    H132596   6.427   1.559  15.923 -1.2061  1.2346 -0.5803
 3727TIP3    H232597   6.380   1.519  16.062  1.6670  1.3966  0.5108
 3728TIP3   OH232598   3.408   5.423  11.427 -0.5269  0.5153 -0.6613
 3728TIP3    H132599   3.322   5.393  11.456 -0.1244  0.6026  0.7096
 3728TIP3    H232600   3.458   5.342  11.414 -0.2410  0.4938  0.4592
 3729TIP3   OH232601   2.391   6.055  11.705  0.3090 -0.1596 -0.0708
 3729TIP3    H132602   2.299   6.045  11.727 -0.1207  0.6629 -1.3330
 3729TIP3    H232603   2.394   6.046  11.610  1.0493  2.6934 -0.4164
 3730TIP3   OH232604   5.542   1.323   0.538  0.5117  0.5458 -0.0264
 3730TIP3    H132605   5.461   1.308   0.585  0.8064  0.3301  0.4121
 3730TIP3    H232606   5.567   1.413   0.561  1.2066  0.0846  1.0738
 3731TIP3   OH232607   4.460   0.526  16.215  0.1761 -0.4042  0.3696
 3731TIP3    H132608   4.383   0.501  16.266 -1.6733  0.6395 -1.7470
 3731TIP3    H232609   4.484   0.612  16.250 -0.9468  0.2088 -0.2992
 3732TIP3   OH232610   2.415   3.034  11.773 -0.5792 -0.1419 -0.1196
 3732TIP3    H132611   2.337   3.072  11.813 -0.8709  0.4933 -1.2382
 3732TIP3    H232612   2.484   3.048  11.836 -0.9545  1.1373  0.0253
 3733TIP3   OH232613   1.862   3.111  14.210  0.1724 -0.1062 -0.2736
 3733TIP3    H132614   1.772   3.141  14.200 -0.1202 -1.2708 -1.3718
 3733TIP3    H232615   1.899   3.115  14.121  0.7563 -0.9590 -0.0853
 3734TIP3   OH232616   6.368   5.469  14.650 -0.3422 -0.0308  0.3180
 3734TIP3    H132617   6.463   5.462  14.639 -0.4576 -1.5130  0.0383
 3734TIP3    H232618   6.340   5.382  14.676 -2.0854 -0.7690 -3.3114
 3735TIP3   OH232619   2.709   5.551   0.503 -0.3300 -0.4367  0.3177
 3735TIP3    H132620   2.660   5.629   0.530 -1.5430 -0.6598 -1.0892
 3735TIP3    H232621   2.732   5.507   0.585  0.9211  1.6798  1.1897
 3736TIP3   OH232622   0.244   3.508   3.172  0.4107  0.1290 -0.0237
 3736TIP3    H132623   0.277   3.427   3.211  1.7724  1.0122  0.7351
 3736TIP3    H232624   0.245   3.491   3.078 -1.1431 -1.3786  0.1991
 3737TIP3   OH232625   2.971   1.698  11.912 -0.3552  0.0325 -0.2670
 3737TIP3    H132626   2.949   1.612  11.878  1.3717 -0.6376  0.2101
 3737TIP3    H232627   2.988   1.683  12.005 -0.3376  0.9563 -0.1110
 3738TIP3   OH232628   5.150   1.149  13.777 -0.1299  0.1053 -0.6069
 3738TIP3    H132629   5.182   1.180  13.692  2.9604  2.0310  1.0795
 3738TIP3    H232630   5.100   1.224  13.812  0.6714  0.2583  0.2408
 3739TIP3   OH232631   3.000   2.759  13.135  0.0348 -0.6641  0.5979
 3739TIP3    H132632   3.044   2.761  13.220 -1.7623  0.3808  1.5693
 3739TIP3    H232633   2.936   2.689  13.143  0.1998 -0.8999 -0.0988
 3740TIP3   OH232634   4.082   5.410  12.601  0.8218 -0.1362  0.1435
 3740TIP3    H132635   4.085   5.472  12.528  1.6886 -1.0450 -0.6194
 3740TIP3    H232636   4.004   5.358  12.585  1.4464 -0.8680 -0.6069
 3741TIP3   OH232637   3.801   5.126  12.785 -0.6558  0.3029  0.1483
 3741TIP3    H132638   3.879   5.100  12.736 -0.8099  0.3153 -0.1068
 3741TIP3    H232639   3.758   5.043  12.808 -1.0770  0.3217 -0.5488
 3742TIP3   OH232640   5.227   1.508  10.762  0.4847  0.6064 -0.3383
 3742TIP3    H132641   5.201   1.593  10.798 -0.4085  0.8412 -1.4648
 3742TIP3    H232642   5.276   1.530  10.683  1.7202  0.0863  0.2629
 3743TIP3   OH232643   4.766   2.534   3.717 -0.0528  0.2609 -0.4051
 3743TIP3    H132644   4.681   2.563   3.748  0.3228  2.0199 -0.9242
 3743TIP3    H232645   4.746   2.464   3.654 -0.9687 -0.8763  1.0779
 3744TIP3   OH232646   0.588   1.782  11.786  0.1983 -0.2487  0.1011
 3744TIP3    H132647   0.630   1.752  11.866 -0.0233 -1.0786 -0.0764
 3744TIP3    H232648   0.618   1.721  11.718  0.4220  0.4686 -0.4617
 3745TIP3   OH232649   2.456   5.742  14.189 -0.2120 -0.8093 -0.3108
 3745TIP3    H132650   2.432   5.652  14.211 -1.4518 -0.9114 -1.8285
 3745TIP3    H232651   2.487   5.737  14.098  0.5553  0.1644 -0.1172
 3746TIP3   OH232652   0.163   6.200   3.367 -0.0892  0.9028  0.0612
 3746TIP3    H132653   0.177   6.242   3.283  1.1592  0.0987 -0.1660
 3746TIP3    H232654   0.138   6.110   3.345 -1.4846  1.1429  0.5459
 3747TIP3   OH232655   3.294   3.908  15.228  0.1012 -0.0538  0.3577
 3747TIP3    H132656   3.256   3.820  15.230 -1.2477  0.5030  1.3287
 3747TIP3    H232657   3.382   3.897  15.263  1.0951 -1.4535 -2.2919
 3748TIP3   OH232658   1.088   5.129   3.620  0.0187 -0.2305  0.0092
 3748TIP3    H132659   1.104   5.104   3.710 -0.0560  0.0119  0.0920
 3748TIP3    H232660   1.083   5.047   3.572 -0.5411 -0.3854  0.3252
 3749TIP3   OH232661   3.215   1.657  11.014 -0.4366  0.2896 -1.2895
 3749TIP3    H132662   3.244   1.615  11.095 -1.0212  0.4250 -1.0083
 3749TIP3    H232663   3.224   1.589  10.948 -0.1843  0.1044 -1.0685
 3750TIP3   OH232664   5.301   3.032  14.147 -0.6078  0.3577  0.8823
 3750TIP3    H132665   5.383   3.022  14.195  0.7474  0.5118 -1.2949
 3750TIP3    H232666   5.248   3.090  14.202  0.5340 -0.0837  2.5289
 3751TIP3   OH232667   0.392   2.074   5.365 -0.1331 -0.1466 -0.0885
 3751TIP3    H132668   0.441   1.994   5.383  3.2128  2.0843  1.7891
 3751TIP3    H232669   0.410   2.093   5.273  0.4287 -0.6696 -0.0922
 3752TIP3   OH232670   2.316   2.318   0.023 -0.3646 -0.0322  0.0034
 3752TIP3    H132671   2.362   2.233   0.024  0.5706  0.4614  1.4115
 3752TIP3    H232672   2.252   2.311   0.093 -2.3199 -0.5859 -1.7337
 3753TIP3   OH232673   2.118   5.722  11.875  0.0531  0.0194  0.0550
 3753TIP3    H132674   2.123   5.809  11.913  1.5132  0.4059 -0.9625
 3753TIP3    H232675   2.036   5.722  11.825 -0.2481  0.5916  0.5382
 3754TIP3   OH232676   6.736   1.261   1.394 -0.4538  0.1843 -0.2765
 3754TIP3    H132677   6.766   1.205   1.466 -1.0440 -1.7548 -1.4352
 3754TIP3    H232678   6.641   1.253   1.396 -0.4277 -1.5138 -2.3864
 3755TIP3   OH232679   3.445   3.626  14.364 -0.0827 -0.2773  0.0557
 3755TIP3    H132680   3.373   3.604  14.423  0.3319 -0.7237  0.4012
 3755TIP3    H232681   3.512   3.665  14.420  0.8834 -1.9566  0.1435
 3756TIP3   OH232682   4.493   0.221   4.599  0.0662  0.3624 -0.0233
 3756TIP3    H132683   4.477   0.204   4.691 -1.5316 -0.4180 -0.4064
 3756TIP3    H232684   4.440   0.298   4.579  0.0047  0.2253 -0.3986
 3757TIP3   OH232685   5.699   6.452  14.884  0.0851 -0.4552 -0.1379
 3757TIP3    H132686   5.770   6.453  14.820  0.8308  0.1019  0.6824
 3757TIP3    H232687   5.716   6.527  14.941 -0.2334 -1.2709  1.0785
 3758TIP3   OH232688   6.629   5.404  14.767  0.0369 -0.2331  0.5280
 3758TIP3    H132689   6.682   5.324  14.775  1.9225  0.7739 -0.9500
 3758TIP3    H232690   6.693   5.473  14.748 -1.7678  1.1957 -0.6783
 3759TIP3   OH232691   1.968   6.667   2.646  0.2364 -0.0241 -0.2145
 3759TIP3    H132692   2.060   6.682   2.669  0.8128 -2.9459 -0.2502
 3759TIP3    H232693   1.921   6.676   2.728  0.8582 -0.4312  0.2010
 3760TIP3   OH232694   4.537   0.201  10.182 -0.5744 -0.0974  0.0990
 3760TIP3    H132695   4.497   0.288  10.189 -1.8965 -0.7625  1.2849
 3760TIP3    H232696   4.616   0.206  10.234 -2.2585 -0.4461  2.8656
 3761TIP3   OH232697   2.887   1.544   3.987 -0.1006  0.0435 -0.2032
 3761TIP3    H132698   2.878   1.592   3.905 -1.5228 -0.8575 -0.6149
 3761TIP3    H232699   2.936   1.465   3.963 -2.1163 -1.1430 -0.6420
 3762TIP3   OH232700   5.751   5.577  15.894 -0.1465  0.5285 -0.0349
 3762TIP3    H132701   5.780   5.492  15.862  1.4064  1.4447 -1.2271
 3762TIP3    H232702   5.785   5.581  15.984  2.8556  1.1844 -1.0795
 3763TIP3   OH232703   6.767   4.199   1.724 -0.3239 -0.6102 -0.1841
 3763TIP3    H132704   6.698   4.143   1.689  0.1808 -1.3806  0.0285
 3763TIP3    H232705   6.741   4.215   1.815 -1.4449  1.0883 -0.7704
 3764TIP3   OH232706   4.984   3.411  12.979 -0.0363 -0.1682  0.0887
 3764TIP3    H132707   4.964   3.326  13.018 -0.1418 -0.2295 -0.1019
 3764TIP3    H232708   5.080   3.414  12.975 -0.0410 -0.4636 -0.3215
 3765TIP3   OH232709   5.846   0.953   2.968 -0.2745  0.1345 -0.0936
 3765TIP3    H132710   5.799   1.027   3.007 -0.2934  0.0425  0.0560
 3765TIP3    H232711   5.937   0.968   2.992 -0.3545 -0.2124  0.4504
 3766TIP3   OH232712   1.944   5.298  10.868  0.4828  0.7538 -0.6036
 3766TIP3    H132713   2.036   5.322  10.878  0.8771 -0.4728 -1.0840
 3766TIP3    H232714   1.932   5.288  10.774 -0.2047  1.1013 -0.5567
 3767TIP3   OH232715   0.801   1.172   3.957 -0.1054 -0.4327 -0.3694
 3767TIP3    H132716   0.760   1.097   3.913 -0.9298 -1.1153  1.4381
 3767TIP3    H232717   0.846   1.134   4.033 -0.4040  0.8741  0.5031
 3768TIP3   OH232718   2.076   5.300   4.080  0.4043  0.1092  0.7372
 3768TIP3    H132719   2.098   5.209   4.102 -2.9884 -1.3268 -1.0967
 3768TIP3    H232720   2.037   5.335   4.159 -1.5301 -1.3048  0.4825
 3769TIP3   OH232721   5.679   1.709  13.982  0.2723  0.2209 -0.7450
 3769TIP3    H132722   5.711   1.756  13.905  1.2756  1.3219  0.3040
 3769TIP3    H232723   5.616   1.769  14.021 -1.0020 -0.7639 -1.2388
 3770TIP3   OH232724   5.957   6.406   0.422 -0.0282  0.1406  0.1765
 3770TIP3    H132725   6.017   6.376   0.353  0.4912 -0.3696  0.8326
 3770TIP3    H232726   5.871   6.374   0.394 -0.3860  2.4908 -1.7395
 3771TIP3   OH232727   4.527   1.035  14.781 -0.8232  0.2840  0.0478
 3771TIP3    H132728   4.463   0.987  14.728 -0.4699  0.1758 -0.2924
 3771TIP3    H232729   4.572   0.968  14.831  0.0785  0.1738 -0.8684
 3772TIP3   OH232730   2.467   5.431   2.677 -0.6633  0.0759  0.4582
 3772TIP3    H132731   2.409   5.414   2.750 -0.1616 -2.2865  0.3746
 3772TIP3    H232732   2.522   5.503   2.706 -1.0106 -0.2903  2.0870
 3773TIP3   OH232733   4.172   0.428  11.962  0.6009 -0.3148  0.1785
 3773TIP3    H132734   4.248   0.381  11.996  0.1623 -1.5437 -0.4851
 3773TIP3    H232735   4.161   0.502  12.021  2.6760  0.2426 -0.0590
 3774TIP3   OH232736   6.041   0.270  12.358 -0.0615  0.3842  0.3041
 3774TIP3    H132737   6.113   0.232  12.307 -1.0283 -0.5863 -0.3956
 3774TIP3    H232738   5.995   0.326  12.295 -0.1905  0.6147  0.6053
 3775TIP3   OH232739   5.916   1.251   3.928  0.9515 -0.5631 -0.3115
 3775TIP3    H132740   5.832   1.280   3.964  1.5181 -0.2101  0.7359
 3775TIP3    H232741   5.903   1.158   3.909 -0.1077 -0.2054 -1.4559
 3776TIP3   OH232742   4.944   5.756  12.323 -0.5777  0.6130  0.1493
 3776TIP3    H132743   4.977   5.773  12.235  0.5408  0.4711  0.5231
 3776TIP3    H232744   4.979   5.669  12.345 -1.9225  0.0706  0.2416
 3777TIP3   OH232745   0.202   5.674  15.732  0.6239  0.2546  0.4278
 3777TIP3    H132746   0.226   5.753  15.684  1.7287  0.5864  1.4908
 3777TIP3    H232747   0.129   5.700  15.788 -1.2912 -0.3504 -1.6068
 3778TIP3   OH232748   6.598   0.652  10.763  0.3526  0.0620  0.1388
 3778TIP3    H132749   6.675   0.706  10.779  0.6751 -0.7963  1.6476
 3778TIP3    H232750   6.542   0.706  10.707  1.0263  1.6312  0.9200
 3779TIP3   OH232751   4.531   0.873   4.894 -0.2247 -0.1018  0.3514
 3779TIP3    H132752   4.448   0.825   4.887 -0.4536  0.1277  1.2600
 3779TIP3    H232753   4.585   0.839   4.823 -0.0321 -2.4051  1.5273
 3780TIP3   OH232754   3.413   0.143   2.437 -0.2567  0.5537 -0.6057
 3780TIP3    H132755   3.353   0.218   2.444 -1.4902 -0.3603 -0.9150
 3780TIP3    H232756   3.499   0.178   2.460 -1.1648  1.5450  1.5252
 3781TIP3   OH232757   2.528   2.671   5.297 -0.1032 -0.0923  0.0985
 3781TIP3    H132758   2.529   2.649   5.204  0.0004  1.6339 -0.3464
 3781TIP3    H232759   2.521   2.766   5.299 -1.6887 -0.1873  1.8941
 3782TIP3   OH232760   6.118   2.390   0.433 -0.5675  0.6681 -0.4564
 3782TIP3    H132761   6.093   2.299   0.416 -0.5418  0.4436  0.6216
 3782TIP3    H232762   6.193   2.405   0.375 -1.9278  0.7371 -2.2961
 3783TIP3   OH232763   5.119   2.759  16.488  0.2591 -0.2397 -0.6103
 3783TIP3    H132764   5.094   2.852  16.494  1.6225  0.0680  0.9271
 3783TIP3    H232765   5.162   2.751  16.403  0.9944  0.7817 -0.3504
 3784TIP3   OH232766   6.009   0.853  13.721 -0.3185 -0.1558 -0.2765
 3784TIP3    H132767   5.953   0.886  13.791 -0.3342  2.5051 -1.4258
 3784TIP3    H232768   5.956   0.863  13.642  0.7402 -0.3649 -1.0267
 3785TIP3   OH232769   1.735   4.900   0.760  0.6298  0.3334  0.0094
 3785TIP3    H132770   1.672   4.939   0.821 -0.8226  1.5025 -2.1209
 3785TIP3    H232771   1.811   4.880   0.815 -0.9254  0.3982  2.3722
 3786TIP3   OH232772   4.443   2.157   2.714  0.4976  0.3719  0.5444
 3786TIP3    H132773   4.455   2.202   2.631  1.0045 -0.3115  0.2321
 3786TIP3    H232774   4.349   2.161   2.731  0.2021 -0.5934 -0.7160
 3787TIP3   OH232775   6.006   3.593  16.308 -0.1399 -0.3485 -0.0802
 3787TIP3    H132776   6.035   3.574  16.220 -2.2878  0.6196 -1.0791
 3787TIP3    H232777   6.021   3.687  16.319 -0.8531 -0.2560  0.1696
 3788TIP3   OH232778   5.395   4.754  12.342 -0.8090  0.3558  0.5647
 3788TIP3    H132779   5.442   4.725  12.264 -2.0928  1.6166 -0.7494
 3788TIP3    H232780   5.373   4.846  12.323 -5.2719 -0.5774  0.2601
 3789TIP3   OH232781   3.818   2.211   6.238  0.1664 -0.2381  0.2089
 3789TIP3    H132782   3.763   2.192   6.162  1.8919  0.5871 -1.3584
 3789TIP3    H232783   3.810   2.306   6.249 -0.9174 -0.4870  1.8044
 3790TIP3   OH232784   3.782   4.768  13.356  0.1361 -0.1953  0.2059
 3790TIP3    H132785   3.733   4.719  13.422  1.1733 -1.5541  0.0040
 3790TIP3    H232786   3.716   4.790  13.290 -0.5237 -0.5260  0.7299
 3791TIP3   OH232787   6.034   6.460  12.654 -0.1540 -0.0984  0.2228
 3791TIP3    H132788   6.042   6.486  12.562 -2.1103 -0.5761 -0.1273
 3791TIP3    H232789   5.986   6.377  12.652  2.7397 -1.9755  1.5208
 3792TIP3   OH232790   3.297   5.420  12.042  0.2196  0.3277 -0.2961
 3792TIP3    H132791   3.276   5.327  12.036  1.3243  0.0720 -0.3861
 3792TIP3    H232792   3.219   5.460  12.080 -1.0820 -0.3116 -2.1643
 3793TIP3   OH232793   1.044   6.122   3.272 -0.2342 -0.7741 -0.2918
 3793TIP3    H132794   0.950   6.127   3.258 -0.0946 -2.3044 -2.2602
 3793TIP3    H232795   1.054   6.068   3.350 -1.0095 -2.5434 -1.3565
 3794TIP3   OH232796   5.098   5.261   1.575  0.2563  0.3201 -0.1950
 3794TIP3    H132797   5.162   5.262   1.505 -0.5346  0.2810 -0.9318
 3794TIP3    H232798   5.149   5.239   1.654  1.1691  0.5028 -0.7203
 3795TIP3   OH232799   0.268   4.197   6.497  0.6124 -0.1241 -0.1606
 3795TIP3    H132800   0.213   4.238   6.564  2.5567  1.6510  0.4847
 3795TIP3    H232801   0.349   4.175   6.544  2.1284  1.3838 -1.8779
 3796TIP3   OH232802   1.093   0.261   3.940  0.0305  0.1628 -0.1350
 3796TIP3    H132803   1.148   0.337   3.920 -1.2662  1.3254  0.5012
 3796TIP3    H232804   1.154   0.193   3.968  1.3084  0.6251 -1.7039
 3797TIP3   OH232805   1.890   2.268   6.542 -0.3014  0.4081 -0.2538
 3797TIP3    H132806   1.984   2.250   6.543  0.0445  2.0753  0.7331
 3797TIP3    H232807   1.870   2.289   6.451  0.4288  0.7348 -0.3411
 3798TIP3   OH232808   4.633   1.309   1.828  0.4677 -0.2059  0.1280
 3798TIP3    H132809   4.678   1.336   1.908 -1.0668 -0.2243  1.0331
 3798TIP3    H232810   4.694   1.249   1.785  1.3124 -0.1980  1.2883
 3799TIP3   OH232811   0.621   2.191   4.919  0.2964 -0.7410 -0.6256
 3799TIP3    H132812   0.592   2.231   4.837  0.8240 -0.2417 -0.5730
 3799TIP3    H232813   0.691   2.130   4.894 -0.0002 -1.0900 -0.6192
 3800TIP3   OH232814   5.516   3.686  13.271  0.1977  0.2929  0.4254
 3800TIP3    H132815   5.449   3.735  13.223  0.5699 -0.5128 -0.9950
 3800TIP3    H232816   5.590   3.746  13.279  0.1506  0.4256 -0.0976
 3801TIP3   OH232817   5.350   3.803  13.083 -0.1466 -0.1189 -0.2995
 3801TIP3    H132818   5.375   3.870  13.020 -2.0143 -0.3540 -1.3321
 3801TIP3    H232819   5.327   3.727  13.030  2.5403 -1.8919  0.8568
 3802TIP3   OH232820   1.625   3.436  13.977 -0.1724  0.4847 -0.4729
 3802TIP3    H132821   1.666   3.503  13.922  0.3079  0.4243 -0.1961
 3802TIP3    H232822   1.585   3.375  13.915  0.1769  0.5347 -0.7540
 3803TIP3   OH232823   1.161   5.862   2.606 -0.3021 -0.1363 -0.4791
 3803TIP3    H132824   1.075   5.900   2.624  0.0718  0.2040  0.7008
 3803TIP3    H232825   1.162   5.780   2.655  0.1472  0.0042 -0.2428
 3804TIP3   OH232826   4.664   5.615  16.197  0.1779  0.3377  0.6013
 3804TIP3    H132827   4.747   5.617  16.149 -0.6759  0.7855 -0.9455
 3804TIP3    H232828   4.655   5.524  16.225  1.4530  0.4079  1.2946
 3805TIP3   OH232829   6.084   6.101   5.488 -0.1755  0.5581  0.7898
 3805TIP3    H132830   6.048   6.169   5.432 -0.6569  0.9847  1.6133
 3805TIP3    H232831   6.057   6.019   5.446 -1.8720  0.8612  1.2243
 3806TIP3   OH232832   1.306   2.223  16.642 -0.1103 -0.2881  0.1868
 3806TIP3    H132833   1.238   2.285  16.670  0.5219 -0.1881  1.5847
 3806TIP3    H232834   1.374   2.279  16.604  0.1983 -0.1652  0.9059
 3807TIP3   OH232835   1.500   1.392  12.603 -0.1400 -0.6121  0.9484
 3807TIP3    H132836   1.511   1.443  12.683  0.9393  0.8412 -0.0900
 3807TIP3    H232837   1.555   1.315  12.617 -0.0966 -0.4614  1.6644
 3808TIP3   OH232838   4.306   3.901  16.929 -0.2137 -0.4020  0.1087
 3808TIP3    H132839   4.272   3.969  16.871  0.0731  0.2631  0.7022
 3808TIP3    H232840   4.317   3.825  16.873 -0.0105  0.2084 -0.6976
 3809TIP3   OH232841   5.811   1.336  13.512 -0.4097  0.4440  0.3659
 3809TIP3    H132842   5.898   1.352  13.475 -0.2528 -0.5039  0.2856
 3809TIP3    H232843   5.815   1.246  13.545 -2.2097 -0.7498 -2.2696
 3810TIP3   OH232844   1.185   4.400   3.104  0.4468  0.0803 -0.1457
 3810TIP3    H132845   1.142   4.469   3.154  0.2940 -0.2228  0.1484
 3810TIP3    H232846   1.140   4.400   3.019 -0.9797 -1.0340  0.5665
 3811TIP3   OH232847   0.898   6.125  12.142  0.6468 -0.3653 -0.2038
 3811TIP3    H132848   0.974   6.134  12.200 -0.6218 -0.1081  1.5109
 3811TIP3    H232849   0.886   6.212  12.105  1.0685 -0.3582 -0.3277
 3812TIP3   OH232850   6.681   0.278   0.907  0.0010  0.4596  0.2358
 3812TIP3    H132851   6.595   0.319   0.906 -0.2658 -0.0332 -1.9401
 3812TIP3    H232852   6.734   0.331   0.847  0.5599 -0.5236 -0.1669
 3813TIP3   OH232853   3.861   1.250  12.875  0.0499  0.5047  0.1915
 3813TIP3    H132854   3.795   1.306  12.836  0.1350  0.9448  0.6566
 3813TIP3    H232855   3.927   1.239  12.807  0.6451  2.0084  0.4859
 3814TIP3   OH232856   2.321   4.397   0.041 -0.2849 -0.0061  0.0120
 3814TIP3    H132857   2.410   4.372   0.068 -0.5607 -1.6119 -0.4618
 3814TIP3    H232858   2.328   4.411  -0.054 -1.0281 -2.7700 -0.5291
 3815TIP3   OH232859   1.980   2.588  12.137  0.1853  0.2332  0.1208
 3815TIP3    H132860   1.932   2.582  12.055 -0.9272 -1.1153  0.8119
 3815TIP3    H232861   1.924   2.641  12.194  1.0301  1.3125 -0.0303
 3816TIP3   OH232862   3.598   4.259   5.617 -0.5573 -0.0523  0.0341
 3816TIP3    H132863   3.554   4.230   5.538  1.6620 -0.3716 -1.1495
 3816TIP3    H232864   3.542   4.228   5.688 -2.4952  0.0747 -1.3563
 3817TIP3   OH232865   1.458   1.741   5.396  0.4273  0.3496  0.0584
 3817TIP3    H132866   1.510   1.821   5.394  0.4451  0.3266 -0.4599
 3817TIP3    H232867   1.486   1.692   5.319  0.2729 -0.0653  0.2629
 3818TIP3   OH232868   1.983   4.950  15.606  0.3981  0.2187  0.1937
 3818TIP3    H132869   2.023   5.037  15.600  1.9180 -0.3998  0.8765
 3818TIP3    H232870   2.033   4.897  15.544  0.3603 -0.4796  0.7575
 3819TIP3   OH232871   6.578   3.488   2.729  0.4806 -0.2265 -0.2703
 3819TIP3    H132872   6.631   3.412   2.752  2.1530  0.5052 -1.5049
 3819TIP3    H232873   6.600   3.554   2.796 -0.8658 -0.7351  0.7192
 3820TIP3   OH232874   6.532   3.721  15.991 -0.4957 -0.2569  0.0334
 3820TIP3    H132875   6.572   3.691  16.073  0.2522  1.0756  0.1779
 3820TIP3    H232876   6.531   3.643  15.935 -0.3650 -1.0146  1.0457
 3821TIP3   OH232877   1.670   2.791   1.232 -0.0733 -0.0924 -0.3203
 3821TIP3    H132878   1.644   2.803   1.324 -0.7285 -0.8926 -0.3910
 3821TIP3    H232879   1.696   2.700   1.225 -0.2846 -0.1097 -0.9892
 3822TIP3   OH232880   1.130   6.617   4.682 -0.2725  0.5924 -0.0771
 3822TIP3    H132881   1.065   6.599   4.614  0.1971  1.2596 -0.7167
 3822TIP3    H232882   1.164   6.704   4.661  2.3517 -0.5637 -1.0250
 3823TIP3   OH232883   6.382   0.938   2.248 -0.0074  0.1507  0.3082
 3823TIP3    H132884   6.441   0.994   2.198 -2.0313  0.3397 -2.0707
 3823TIP3    H232885   6.389   0.852   2.206 -1.7491  0.3178 -0.4124
 3824TIP3   OH232886   5.995   5.430   5.404 -0.0140  0.5595 -0.3408
 3824TIP3    H132887   6.072   5.474   5.440  0.5000  0.6120 -1.4547
 3824TIP3    H232888   5.926   5.496   5.410 -0.0532  0.4216  0.9105
 3825TIP3   OH232889   5.155   3.029  15.414  0.5353  0.0450  0.2473
 3825TIP3    H132890   5.201   3.112  15.429 -0.2053  0.3233  1.0680
 3825TIP3    H232891   5.128   3.001  15.501  0.3666 -0.8314 -0.0755
 3826TIP3   OH232892   1.900   2.546  13.609  0.5705 -0.1610  0.1608
 3826TIP3    H132893   1.928   2.495  13.685 -0.8648  0.1219  0.9125
 3826TIP3    H232894   1.877   2.632  13.645 -0.5722 -0.1643 -0.4987
 3827TIP3   OH232895   4.482   4.242   3.507 -0.8501 -0.0820 -0.8573
 3827TIP3    H132896   4.477   4.217   3.414 -0.1342 -0.0358 -0.9097
 3827TIP3    H232897   4.463   4.336   3.507 -2.1578 -0.3216 -0.8063
 3828TIP3   OH232898   2.007   1.362  13.574 -0.0460 -0.2463 -0.8073
 3828TIP3    H132899   1.946   1.427  13.540  0.5950  2.5909  2.8729
 3828TIP3    H232900   2.094   1.394  13.549  0.2011 -0.9461 -0.8758
 3829TIP3   OH232901   0.461   5.262  14.737 -0.7089  0.1363  0.0339
 3829TIP3    H132902   0.450   5.256  14.832 -0.8472  1.1083  0.0846
 3829TIP3    H232903   0.439   5.174  14.705 -1.3778  0.0031  0.8296
 3830TIP3   OH232904   4.964   5.557  16.719  0.0364 -0.3362  0.9247
 3830TIP3    H132905   4.907   5.588  16.649 -2.8544  0.3596  3.3410
 3830TIP3    H232906   5.050   5.595  16.700 -0.8007  0.3788 -1.8003
 3831TIP3   OH232907   4.904   1.625   2.274 -0.2477  0.1007 -0.2734
 3831TIP3    H132908   4.877   1.714   2.250 -1.6010  0.2950  1.7186
 3831TIP3    H232909   4.964   1.599   2.204  0.3004  2.6188 -0.8708
 3832TIP3   OH232910   6.179   3.399  15.172 -0.3338  0.2400 -0.2829
 3832TIP3    H132911   6.108   3.425  15.231 -0.7868 -0.8710 -0.3195
 3832TIP3    H232912   6.163   3.306  15.155 -0.7469  0.7041 -2.8739
 3833TIP3   OH232913   2.782   5.039   0.579  0.1648 -0.1655  0.1420
 3833TIP3    H132914   2.821   5.125   0.585  2.0055 -0.9369 -0.1421
 3833TIP3    H232915   2.778   5.007   0.670 -1.1739  0.4585  0.3274
 3834TIP3   OH232916   6.292   3.899  11.610 -0.1299  0.3135  0.4152
 3834TIP3    H132917   6.369   3.956  11.605  2.0201 -2.1507  2.4405
 3834TIP3    H232918   6.260   3.908  11.699 -0.6859 -0.4939  0.3148
 3835TIP3   OH232919   0.866   5.743   4.091 -0.3678  0.2670  0.1949
 3835TIP3    H132920   0.934   5.697   4.041 -1.2201 -0.4329 -0.3478
 3835TIP3    H232921   0.833   5.678   4.153  1.6974  1.5317  2.8043
 3836TIP3   OH232922   5.796   0.955   3.534 -0.0540 -0.0403 -0.4435
 3836TIP3    H132923   5.806   0.883   3.596 -2.7419 -0.6614 -0.5983
 3836TIP3    H232924   5.833   0.922   3.453  0.7558 -0.3685  0.0455
 3837TIP3   OH232925   5.251   4.492  12.069  0.3187  0.0306  0.3488
 3837TIP3    H132926   5.230   4.585  12.080  0.6913  0.1735 -0.1098
 3837TIP3    H232927   5.273   4.462  12.157 -1.3720 -0.0272  0.7866
 3838TIP3   OH232928   2.102   4.326   6.590 -0.3464 -0.2236 -0.2649
 3838TIP3    H132929   2.036   4.303   6.525 -0.2453  1.2533 -0.9199
 3838TIP3    H232930   2.137   4.410   6.560  1.8697 -0.9923  0.0436
 3839TIP3   OH232931   1.503   0.516  15.846  0.3164 -0.0637  0.8533
 3839TIP3    H132932   1.468   0.447  15.902  1.3446  0.1826  1.8449
 3839TIP3    H232933   1.556   0.471  15.781 -0.7041 -0.3380  0.1955
 3840TIP3   OH232934   3.920   0.691  11.318 -0.3557  0.3897  0.0104
 3840TIP3    H132935   3.836   0.646  11.310 -1.3186  2.2449 -1.0592
 3840TIP3    H232936   3.975   0.652  11.251 -1.1825  0.7413 -0.9153
 3841TIP3   OH232937   6.402   5.010   2.464  0.0441 -0.7704 -0.1027
 3841TIP3    H132938   6.457   5.055   2.400 -0.2561 -0.7435 -0.3417
 3841TIP3    H232939   6.428   5.047   2.548  0.1136 -0.4755 -0.2544
 3842TIP3   OH232940   4.576   3.750  16.690  0.1381 -0.1600  0.5172
 3842TIP3    H132941   4.528   3.828  16.664  0.5865  0.1311  0.5559
 3842TIP3    H232942   4.540   3.680  16.636 -0.1879  0.0970  0.4036
 3843TIP3   OH232943   4.056   2.707  12.879  0.5285  0.0396  0.1753
 3843TIP3    H132944   4.122   2.713  12.809  0.6712  0.0093  0.3050
 3843TIP3    H232945   4.088   2.636  12.935  0.5687  0.2564  0.4320
 3844TIP3   OH232946   3.730   4.936  11.878  0.1854  0.4587  0.3019
 3844TIP3    H132947   3.798   4.977  11.824 -0.2309 -0.0671 -0.6589
 3844TIP3    H232948   3.756   4.844  11.884 -1.0954 -0.0517 -1.2169
 3845TIP3   OH232949   0.273   1.971   6.316 -0.1093 -0.3466  0.0219
 3845TIP3    H132950   0.253   1.878   6.316  2.1082 -0.9237 -2.1212
 3845TIP3    H232951   0.352   1.979   6.369 -0.8137  0.5043  0.9932
 3846TIP3   OH232952   4.841   6.660  16.574  0.1159  0.6164  0.2344
 3846TIP3    H132953   4.842   6.689  16.482  1.4715  0.2892  0.1235
 3846TIP3    H232954   4.827   6.566  16.569 -0.3210  0.6718  0.3943
 3847TIP3   OH232955   3.906   5.899   0.448 -0.5065 -0.8545 -0.2615
 3847TIP3    H132956   3.990   5.928   0.415 -0.1896 -2.2491 -0.7717
 3847TIP3    H232957   3.841   5.947   0.396 -0.1595  2.3961  2.0394
 3848TIP3   OH232958   1.490   6.733  13.472 -0.7412 -0.4053  0.6745
 3848TIP3    H132959   1.396   6.747  13.480 -0.6281  0.5216  0.4276
 3848TIP3    H232960   1.529   6.800  13.527 -0.1881  0.1225 -0.3424
 3849TIP3   OH232961   6.801   6.594  13.648  0.1408 -0.3826  0.0042
 3849TIP3    H132962   6.728   6.533  13.649  0.4474 -0.7859  1.4154
 3849TIP3    H232963   6.838   6.587  13.737  2.5149 -0.9787 -0.9506
 3850TIP3   OH232964   1.574   2.768   6.171  0.0905  0.4714 -0.2266
 3850TIP3    H132965   1.583   2.680   6.210 -0.9084  1.0106  1.3311
 3850TIP3    H232966   1.634   2.822   6.222  1.0034  0.6528 -1.4467
 3851TIP3   OH232967   0.230   1.476  13.278  0.4104 -0.8537  0.1965
 3851TIP3    H132968   0.310   1.495  13.229 -0.1567 -0.9074 -0.7900
 3851TIP3    H232969   0.260   1.447  13.364  1.4092  2.3184  1.0671
 3852TIP3   OH232970   1.475   4.386   4.093  0.3711 -0.1519 -0.6456
 3852TIP3    H132971   1.434   4.441   4.027  0.8959  1.7136  0.5010
 3852TIP3    H232972   1.405   4.367   4.156  1.0550  3.0641  1.3308
 3853TIP3   OH232973   3.028   2.303   5.427  0.1532  0.1726 -0.0228
 3853TIP3    H132974   3.017   2.372   5.493 -0.9549  0.6024 -0.6294
 3853TIP3    H232975   2.952   2.246   5.440  0.3782 -0.2095 -0.3818
 3854TIP3   OH232976   1.768   3.864   0.073 -0.1918 -0.0118 -0.6645
 3854TIP3    H132977   1.795   3.796   0.134  1.0322  0.5418 -0.5597
 3854TIP3    H232978   1.677   3.882   0.094  0.2154  0.1820  1.0250
 3855TIP3   OH232979   0.745   5.492  14.642 -0.1244 -0.2393 -0.1564
 3855TIP3    H132980   0.837   5.467  14.651  0.0681  0.4140 -0.2391
 3855TIP3    H232981   0.731   5.499  14.548 -0.3889 -0.8063 -0.1577
 3856TIP3   OH232982   4.760   6.115   1.624 -0.3885  0.5514 -0.0676
 3856TIP3    H132983   4.746   6.029   1.585 -0.5867  0.0455  1.0719
 3856TIP3    H232984   4.847   6.110   1.663 -1.2611  0.0868  1.9046
 3857TIP3   OH232985   4.957   4.716   0.770  0.5706 -0.5762 -0.1984
 3857TIP3    H132986   4.920   4.628   0.779  0.1069 -0.2118  2.1192
 3857TIP3    H232987   5.050   4.701   0.752  0.3369 -1.5421 -0.6426
 3858TIP3   OH232988   3.151   3.282   3.789  0.1611 -0.2602  0.9910
 3858TIP3    H132989   3.070   3.277   3.738 -0.1509  0.0317  1.4506
 3858TIP3    H232990   3.203   3.207   3.759  0.7279  0.8406 -0.9922
 3859TIP3   OH232991   2.018   1.913   0.433  0.4751 -0.1575  0.0041
 3859TIP3    H132992   2.060   1.836   0.397  2.1137  1.2248 -1.2275
 3859TIP3    H232993   1.940   1.880   0.476  0.3764 -2.3365 -1.6669
 3860TIP3   OH232994   2.504   5.959  16.511  0.3181  0.0828  0.6645
 3860TIP3    H132995   2.559   5.899  16.461  0.3578 -1.0963  2.0490
 3860TIP3    H232996   2.526   6.045  16.477  0.6714 -0.6189 -1.0078
 3861TIP3   OH232997   1.190   2.442  16.763  0.0601 -0.0084  0.0471
 3861TIP3    H132998   1.114   2.456  16.820 -0.3007  0.8842 -0.6260
 3861TIP3    H232999   1.169   2.491  16.684  2.8438  3.2988  1.1291
 3862TIP3   OH233000   5.548   4.883   1.464  0.0911  0.0100  0.1002
 3862TIP3    H133001   5.625   4.836   1.433 -0.3814  0.3695 -1.7759
 3862TIP3    H233002   5.474   4.839   1.420 -0.6491  0.4748  0.8483
 3863TIP3   OH233003   1.890   2.524  16.516  0.3290  0.0520  0.2861
 3863TIP3    H133004   1.871   2.469  16.591  0.4380 -0.1239  0.1845
 3863TIP3    H233005   1.861   2.473  16.440 -0.8596  0.6901  0.2767
 3864TIP3   OH233006   4.857   1.503   4.604 -0.0840  0.2053  0.0245
 3864TIP3    H133007   4.867   1.577   4.544 -0.0158 -0.0167 -0.2386
 3864TIP3    H233008   4.889   1.536   4.688  0.3885  0.3281 -0.2023
 3865TIP3   OH233009   0.914   4.977  15.659  0.0765  0.1676  0.5514
 3865TIP3    H133010   0.907   4.971  15.755 -1.7460 -0.8306  0.4140
 3865TIP3    H233011   0.964   4.899  15.635 -0.2634 -0.0786  0.6341
 3866TIP3   OH233012   4.488   1.048  12.305  0.1133 -0.1155  0.3626
 3866TIP3    H133013   4.435   0.969  12.294 -1.7725  0.9943  1.0076
 3866TIP3    H233014   4.578   1.016  12.312 -0.2195 -1.9686 -2.4154
 3867TIP3   OH233015   3.820   5.775   4.228  0.1386  0.7683  0.2035
 3867TIP3    H133016   3.840   5.767   4.321  1.0140 -0.7957 -0.0850
 3867TIP3    H233017   3.895   5.821   4.191  1.2748 -1.3117 -0.1888
 3868TIP3   OH233018   3.304   3.713   1.121 -0.0200 -0.0696 -0.0941
 3868TIP3    H133019   3.293   3.736   1.029 -2.4476  0.1204  0.1870
 3868TIP3    H233020   3.270   3.787   1.170  2.4389  0.4168  1.0714
 3869TIP3   OH233021   4.991   2.207   0.762  0.0576  0.1656  0.5502
 3869TIP3    H133022   4.962   2.128   0.716 -2.2130  0.5910  1.1370
 3869TIP3    H233023   4.960   2.195   0.852  2.2025  0.4891  1.3894
 3870TIP3   OH233024   2.011   5.557   4.003 -0.0314 -0.5537 -0.0643
 3870TIP3    H133025   2.044   5.479   4.048 -0.8048 -0.8477  0.0086
 3870TIP3    H233026   1.978   5.613   4.073  0.9487  0.0620 -0.0752
 3871TIP3   OH233027   3.725   6.192  13.688 -0.2478  0.5822 -0.1694
 3871TIP3    H133028   3.749   6.252  13.759 -0.4725  0.2743  0.1685
 3871TIP3    H233029   3.760   6.233  13.609  0.5855  0.5963  0.2007
 3872TIP3   OH233030   6.429   3.350  11.448  0.0407  0.0951  0.3452
 3872TIP3    H133031   6.478   3.354  11.530  0.5337  4.2079  0.0854
 3872TIP3    H233032   6.480   3.292  11.392  1.8541  0.2960  1.6963
 3873TIP3   OH233033   1.198   2.239  13.033  0.3736 -0.2414 -0.1810
 3873TIP3    H133034   1.134   2.310  13.020 -1.0767 -1.4279  0.2158
 3873TIP3    H233035   1.250   2.268  13.108 -1.2761 -0.2901  1.0440
 3874TIP3   OH233036   5.260   5.883   1.789 -0.1006  0.5476 -0.3463
 3874TIP3    H133037   5.240   5.792   1.813 -1.7520  1.4233  2.0106
 3874TIP3    H233038   5.242   5.888   1.696 -0.0859 -1.4955 -0.5110
 3875TIP3   OH233039   1.572   2.345   4.139  0.1633 -0.3282 -0.3212
 3875TIP3    H133040   1.529   2.377   4.218 -2.1067 -0.3592 -1.4638
 3875TIP3    H233041   1.524   2.266   4.116  1.6314 -1.0586 -1.0501
 3876TIP3   OH233042   5.180   0.765   4.702 -0.2557 -0.0457  0.4164
 3876TIP3    H133043   5.092   0.729   4.693 -0.6590  0.8796  0.5440
 3876TIP3    H233044   5.239   0.692   4.682 -1.0506 -0.2871 -1.1190
 3877TIP3   OH233045   6.314   5.518   5.802 -0.0074  0.5442  0.1027
 3877TIP3    H133046   6.302   5.427   5.831  0.8982  0.2959 -0.2846
 3877TIP3    H233047   6.355   5.510   5.716 -0.4548  1.3169 -0.1825
 3878TIP3   OH233048   6.581   3.654  14.844  0.2709  0.3883  0.0353
 3878TIP3    H133049   6.517   3.626  14.779  2.8499 -1.8186 -1.7948
 3878TIP3    H233050   6.608   3.742  14.816  1.1271 -0.4159 -1.7976
 3879TIP3   OH233051   4.033   6.023   2.907  0.4850  0.6685 -0.9856
 3879TIP3    H133052   4.075   6.083   2.845  1.3697 -0.2455 -1.2978
 3879TIP3    H233053   3.997   5.954   2.852  0.8655  0.0905 -0.5139
 3880TIP3   OH233054   4.617   0.142   0.456  0.3581 -0.1162  1.0038
 3880TIP3    H133055   4.669   0.064   0.435 -0.3855 -0.2305 -0.5408
 3880TIP3    H233056   4.540   0.136   0.399  0.9269  2.4142 -0.1648
 3881TIP3   OH233057   6.352   0.353   2.343 -0.3598  0.1097 -0.2995
 3881TIP3    H133058   6.428   0.403   2.372  1.5461 -1.2688 -2.5751
 3881TIP3    H233059   6.286   0.419   2.322  0.9241  1.4707 -0.2012
 3882TIP3   OH233060   5.826   5.216   1.845 -0.3982 -0.1663  0.5640
 3882TIP3    H133061   5.839   5.260   1.762  1.3818  0.0605  0.9319
 3882TIP3    H233062   5.795   5.128   1.821  1.3031 -0.5380 -0.4188
 3883TIP3   OH233063   1.701   4.865  16.791 -0.7421 -0.3068  0.6100
 3883TIP3    H133064   1.698   4.815  16.873  0.6698  1.0485  1.5414
 3883TIP3    H233065   1.641   4.938  16.805  1.1711  1.2105  1.4059
 3884TIP3   OH233066   6.765   1.651   3.939 -0.4389 -0.9675 -0.3811
 3884TIP3    H133067   6.745   1.719   4.004  0.7176 -1.1018  0.1437
 3884TIP3    H233068   6.726   1.571   3.976 -2.2513 -0.5358 -1.2472
 3885TIP3   OH233069   5.802   1.956   0.377  0.0544 -0.1967 -0.2292
 3885TIP3    H133070   5.806   1.964   0.282 -0.4861  3.2611 -0.1139
 3885TIP3    H233071   5.743   1.882   0.393  1.1869 -1.6825 -2.4985
 3886TIP3   OH233072   2.763   0.568  12.801 -0.5517  0.1859  0.4792
 3886TIP3    H133073   2.798   0.492  12.755 -0.0660 -0.0077  1.1505
 3886TIP3    H233074   2.837   0.601  12.853 -0.0649  2.4788 -1.5052
 3887TIP3   OH233075   2.097   6.209  12.340 -0.3200 -0.4454  0.0095
 3887TIP3    H133076   2.189   6.181  12.345 -0.5057 -1.2442 -0.8046
 3887TIP3    H233077   2.062   6.191  12.427  0.1254 -0.7230  0.1352
 3888TIP3   OH233078   5.703   6.429  12.550 -0.2489 -0.3552 -0.3717
 3888TIP3    H133079   5.714   6.414  12.644 -1.1960 -0.0054 -0.1969
 3888TIP3    H233080   5.613   6.458  12.540 -0.3180 -0.8687 -1.4543
 3889TIP3   OH233081   2.639   6.149  11.762 -0.4774 -0.1673  0.2783
 3889TIP3    H133082   2.703   6.125  11.696 -1.0567 -0.1552 -0.3009
 3889TIP3    H233083   2.559   6.102  11.737 -0.5206 -0.7002  1.3515
 3890TIP3   OH233084   2.039   2.418   4.648 -0.1050 -0.4003 -0.0765
 3890TIP3    H133085   2.032   2.509   4.678  0.7660 -0.6756  1.0639
 3890TIP3    H233086   2.035   2.423   4.553  2.5050  1.1362 -0.1936
 3891TIP3   OH233087   1.085   1.147   6.340  0.4684 -0.0135  0.4686
 3891TIP3    H133088   1.014   1.092   6.373  0.5587  0.7989  2.1056
 3891TIP3    H233089   1.161   1.124   6.393  1.0601  0.1972 -0.2597
 3892TIP3   OH233090   4.067   4.988  17.098 -0.0903  0.4355  0.6019
 3892TIP3    H133091   4.154   5.025  17.111 -0.0246  0.1749  0.9349
 3892TIP3    H233092   4.081   4.915  17.038 -0.2520  1.0670 -0.2251
 3893TIP3   OH233093   5.783   0.357  15.869  0.2650 -0.0964 -0.1906
 3893TIP3    H133094   5.779   0.271  15.910  0.2416 -0.3914 -0.8021
 3893TIP3    H233095   5.869   0.361  15.827  0.2972  0.2070 -0.0989
 3894TIP3   OH233096   1.844   4.025  11.936 -0.0595  0.2754  0.3214
 3894TIP3    H133097   1.786   3.954  11.906 -2.0730  1.5741  0.9548
 3894TIP3    H233098   1.866   4.001  12.026  0.1348 -0.0761  0.1812
 3895TIP3   OH233099   3.736   4.289  15.935  0.2837 -0.2063 -0.1196
 3895TIP3    H133100   3.762   4.362  15.992  1.3008 -1.0544  0.5341
 3895TIP3    H233101   3.709   4.220  15.996 -0.9620 -0.2904 -0.7371
 3896TIP3   OH233102   0.278   2.585   1.335  0.0887 -0.1873 -0.6638
 3896TIP3    H133103   0.185   2.577   1.354  0.2154 -1.5315 -0.4711
 3896TIP3    H233104   0.293   2.520   1.265  0.6698  0.8070 -1.4925
 3897TIP3   OH233105   2.954   6.454   4.125 -0.6922  1.1118  0.2264
 3897TIP3    H133106   2.973   6.520   4.058  1.6890  0.3988  0.0920
 3897TIP3    H233107   3.037   6.442   4.171 -1.0974 -1.5511  0.4357
 3898TIP3   OH233108   6.235   2.546  15.885  0.4254  0.4338 -0.0986
 3898TIP3    H133109   6.143   2.519  15.886  0.6227 -0.3413 -0.9921
 3898TIP3    H233110   6.238   2.625  15.938 -0.5735 -0.1147  0.8154
 3899TIP3   OH233111   4.533   0.931   0.894 -0.0937 -1.1393  0.0453
 3899TIP3    H133112   4.482   0.859   0.856 -0.6795 -0.4487 -0.5029
 3899TIP3    H233113   4.467   0.988   0.935  0.2542 -0.3499 -0.4703
 3900TIP3   OH233114   2.359   0.071  14.680  0.3176  0.5053 -0.3721
 3900TIP3    H133115   2.319   0.015  14.614 -0.9260  1.0737 -0.1189
 3900TIP3    H233116   2.363   0.158  14.639 -0.3562  0.8349  0.2362
 3901TIP3   OH233117   2.654   3.069  12.437 -0.0998  0.5094  0.0651
 3901TIP3    H133118   2.577   3.121  12.415 -0.1033  0.1495 -0.7894
 3901TIP3    H233119   2.660   3.003  12.368  2.1802  1.8429 -1.1346
 3902TIP3   OH233120   2.423   1.634  14.770  0.5310  0.4319  0.0114
 3902TIP3    H133121   2.471   1.716  14.759 -0.2637  0.9763  0.5257
 3902TIP3    H233122   2.338   1.660  14.805 -0.1980 -0.4935 -0.9718
 3903TIP3   OH233123   6.137   3.212  11.809  0.1870  0.4752  0.3966
 3903TIP3    H133124   6.169   3.272  11.877 -1.7237  0.6493  1.1848
 3903TIP3    H233125   6.066   3.164  11.851  0.8219 -1.4608 -0.6258
 3904TIP3   OH233126   0.287   0.014  11.506 -0.7565 -0.3094  0.2901
 3904TIP3    H133127   0.328   0.084  11.456 -0.8883 -0.2477  0.2676
 3904TIP3    H233128   0.358  -0.046  11.527 -0.2637  0.7943  1.9549
 3905TIP3   OH233129   6.229   2.368  13.911 -0.2065  0.4184 -0.5881
 3905TIP3    H133130   6.216   2.342  13.820 -0.7231 -2.6775  0.2509
 3905TIP3    H233131   6.315   2.333  13.935 -0.3183  0.7050  0.2822
 3906TIP3   OH233132   6.068   0.202  15.223 -0.5483  0.5828 -0.8392
 3906TIP3    H133133   5.987   0.253  15.218 -1.0306  0.4147  2.5464
 3906TIP3    H233134   6.043   0.123  15.272  1.6208  0.4795  0.2139
 3907TIP3   OH233135   6.777   1.247   0.576  0.2088 -0.1304 -0.2114
 3907TIP3    H133136   6.734   1.330   0.557  2.0109  0.8449 -0.2729
 3907TIP3    H233137   6.769   1.237   0.670 -1.2611 -0.6306 -0.3727
 3908TIP3   OH233138   6.785   6.778   5.522  0.2870 -0.5787  0.2284
 3908TIP3    H133139   6.873   6.793   5.557  0.0202  2.0088 -0.0409
 3908TIP3    H233140   6.727   6.793   5.596 -0.1976  3.7333 -0.7282
 3909TIP3   OH233141   2.139   0.884  14.553 -0.0467  0.1728  0.2929
 3909TIP3    H133142   2.143   0.792  14.581 -0.0397 -0.6828 -2.2742
 3909TIP3    H233143   2.046   0.904  14.549 -0.0724  1.2171  3.3748
 3910TIP3   OH233144   2.706   1.159   0.053  0.2462 -0.1386 -0.0966
 3910TIP3    H133145   2.677   1.249   0.041 -0.1463 -0.3878 -1.1500
 3910TIP3    H233146   2.637   1.118   0.105  0.3817  0.1369  0.3071
 3911TIP3   OH233147   5.251   3.785   3.098 -0.1348  0.1690  0.2191
 3911TIP3    H133148   5.273   3.693   3.081  0.9987  0.4877 -0.1642
 3911TIP3    H233149   5.328   3.819   3.144 -0.9380  0.6965  1.1929
 3912TIP3   OH233150   0.935   6.746  10.948 -0.4551 -0.3443 -0.3828
 3912TIP3    H133151   0.889   6.818  10.904 -2.7087 -1.7817 -0.5422
 3912TIP3    H233152   0.948   6.680  10.880 -0.2247 -0.9120  0.2000
 3913TIP3   OH233153   4.016   5.143  14.923 -0.3967 -0.6149  0.5681
 3913TIP3    H133154   3.954   5.072  14.903 -0.3617 -0.6144  0.4574
 3913TIP3    H233155   4.068   5.153  14.844 -1.5974  0.7608 -0.0908
 3914TIP3   OH233156   1.878   2.701  15.154 -0.1304  0.2206  0.1211
 3914TIP3    H133157   1.896   2.608  15.166 -0.0031  0.3374  0.8385
 3914TIP3    H233158   1.963   2.744  15.160 -0.2998  0.4812  0.7778
 3915TIP3   OH233159   0.672   0.439  12.257 -0.0077 -0.3313 -0.4663
 3915TIP3    H133160   0.709   0.413  12.173  0.5315  1.2540 -0.7493
 3915TIP3    H233161   0.698   0.530  12.268  0.1756 -0.5794  1.5694
 3916TIP3   OH233162   1.598   6.779   1.713  0.2078 -0.0015 -0.2571
 3916TIP3    H133163   1.692   6.780   1.695 -0.2115 -0.8182 -2.8831
 3916TIP3    H233164   1.586   6.846   1.780  2.5504  0.6546 -0.3938
 3917TIP3   OH233165   0.176   0.653  12.122 -0.2347  0.1349 -0.2494
 3917TIP3    H133166   0.199   0.741  12.151  0.0749  0.3232 -1.0447
 3917TIP3    H233167   0.121   0.618  12.193  0.3191  0.6533  0.4478
 3918TIP3   OH233168   0.509   3.306  14.565  0.3068 -0.1914 -0.2351
 3918TIP3    H133169   0.552   3.374  14.514 -0.2383  0.4959  0.1886
 3918TIP3    H233170   0.558   3.226  14.546  1.1805  0.3856 -0.4748
 3919TIP3   OH233171   3.232   0.324   3.425 -0.5238 -0.5041 -0.0578
 3919TIP3    H133172   3.302   0.383   3.398  1.7783 -3.6436 -1.6364
 3919TIP3    H233173   3.187   0.301   3.344 -3.1747  0.9994  0.8575
 3920TIP3   OH233174   4.841   5.919   5.282 -0.6193 -1.0487 -0.4498
 3920TIP3    H133175   4.924   5.895   5.323  0.0039 -1.5544 -1.9588
 3920TIP3    H233176   4.819   6.004   5.320  0.1748 -1.2740  0.5481
 3921TIP3   OH233177   3.044   0.460   0.012 -0.0250 -0.5208 -0.1634
 3921TIP3    H133178   3.112   0.419   0.066  0.6844  0.7775 -0.0283
 3921TIP3    H233179   2.964   0.412   0.034  0.6468 -1.4003  0.4562
 3922TIP3   OH233180   4.111   2.349   0.677 -0.2669 -0.0402 -0.0087
 3922TIP3    H133181   4.157   2.429   0.653 -0.7554  0.5060  0.8252
 3922TIP3    H233182   4.078   2.313   0.595 -1.3415  1.4120 -0.2405
 3923TIP3   OH233183   1.579   3.902   3.510  0.4537  0.4448  0.1696
 3923TIP3    H133184   1.513   3.835   3.524  1.3409 -0.4523  0.1733
 3923TIP3    H233185   1.544   3.956   3.439 -0.2972  0.0102  0.2048
 3924TIP3   OH233186   5.888   5.947  14.090 -0.3070 -0.1651 -0.1486
 3924TIP3    H133187   5.889   5.993  14.006 -1.5059 -0.1723 -0.1905
 3924TIP3    H233188   5.963   5.888  14.086 -1.2234 -1.3154 -1.9023
 3925TIP3   OH233189   2.059   0.921   5.704 -0.6920  0.0845  0.1429
 3925TIP3    H133190   2.015   0.839   5.726  1.2877 -0.7308  1.3025
 3925TIP3    H233191   2.071   0.964   5.789  1.2798 -0.0245 -0.0520
 3926TIP3   OH233192   6.694   3.622  15.733  0.1347  0.0534  0.0364
 3926TIP3    H133193   6.632   3.693  15.718  0.3039  0.4262  1.0301
 3926TIP3    H233194   6.768   3.663  15.777 -0.0938 -0.8617  1.3424
 3927TIP3   OH233195   4.094   5.767  13.397  0.0849  0.8666  0.2994
 3927TIP3    H133196   4.087   5.840  13.337 -1.5185  0.4653 -0.0472
 3927TIP3    H233197   4.139   5.699  13.348  0.9994  1.3721  0.4103
 3928TIP3   OH233198   5.809   2.792  14.740  0.3537 -0.2917  0.4170
 3928TIP3    H133199   5.872   2.864  14.739  0.0862 -0.0486 -0.8264
 3928TIP3    H233200   5.724   2.835  14.729  0.2867 -0.8406 -1.6144
 3929TIP3   OH233201   1.166   2.666  14.692  0.1265 -0.6600 -0.0349
 3929TIP3    H133202   1.158   2.571  14.695  0.9479 -0.8232 -1.6832
 3929TIP3    H233203   1.198   2.691  14.778  0.2515 -1.9133  0.2909
 3930TIP3   OH233204   5.393   5.068   2.873 -0.0458 -0.0785 -0.3493
 3930TIP3    H133205   5.434   5.150   2.899  1.2479 -0.7251 -0.2704
 3930TIP3    H233206   5.403   5.065   2.778  0.3901 -0.3820 -0.2976
 3931TIP3   OH233207   1.564   1.978   2.938  0.3407  0.0466  0.2876
 3931TIP3    H133208   1.481   1.939   2.965  0.3278  0.4420  0.8594
 3931TIP3    H233209   1.542   2.069   2.918  0.0846 -0.5485 -2.4610
 3932TIP3   OH233210   4.644   0.838  15.540  0.1384  0.2969 -0.2415
 3932TIP3    H133211   4.639   0.804  15.451  1.9064  1.8988 -1.0072
 3932TIP3    H233212   4.628   0.761  15.595  1.6782 -1.3370 -1.9118
 3933TIP3   OH233213   1.773   1.603  11.822  0.0366  0.2191 -0.2652
 3933TIP3    H133214   1.781   1.698  11.821  0.3352  0.2123  0.7925
 3933TIP3    H233215   1.683   1.586  11.851  0.8981  0.1946  2.7389
 3934TIP3   OH233216   6.722   2.735  13.669  0.1520  0.1252 -0.4287
 3934TIP3    H133217   6.807   2.746  13.711  0.2989 -0.3296 -0.6022
 3934TIP3    H233218   6.671   2.684  13.731 -0.1064  0.6653 -0.1854
 3935TIP3   OH233219   5.904   3.374   5.086  0.1828 -0.1564 -0.3177
 3935TIP3    H133220   5.820   3.329   5.082 -0.4262  1.0090 -0.8875
 3935TIP3    H233221   5.962   3.323   5.029 -0.3645 -0.4868 -0.5830
 3936TIP3   OH233222   4.617   4.100  12.345  0.0575 -0.0161  0.5315
 3936TIP3    H133223   4.658   4.109  12.259 -3.5773  3.2911 -1.1651
 3936TIP3    H233224   4.587   4.009  12.348  1.6052 -0.6382 -0.9342
 3937TIP3   OH233225   2.843   3.275  12.414  0.1810 -0.0300 -0.2032
 3937TIP3    H133226   2.775   3.210  12.395 -1.3661  1.6810 -0.8198
 3937TIP3    H233227   2.914   3.254  12.353  1.2653 -3.1870  1.8996
 3938TIP3   OH233228   1.881   4.193   6.364 -0.1670  0.1712 -0.0825
 3938TIP3    H133229   1.872   4.100   6.385  0.9739 -0.2575 -1.3198
 3938TIP3    H233230   1.794   4.219   6.335 -0.4241 -0.6094 -0.0465
 3939TIP3   OH233231   6.032   1.551  11.076  0.0591  0.0760 -0.2402
 3939TIP3    H133232   6.016   1.478  11.017  1.4752 -1.0926  0.7535
 3939TIP3    H233233   5.957   1.609  11.063 -1.6436 -2.0280 -0.3155
 3940TIP3   OH233234   4.373   1.134   1.268 -0.3638 -0.7287 -0.6251
 3940TIP3    H133235   4.334   1.197   1.328 -2.1409  0.0715 -2.5046
 3940TIP3    H233236   4.446   1.096   1.317  0.7385  2.6814  0.6371
 3941TIP3   OH233237   4.735   2.448  11.484 -0.2165  0.8339  0.2233
 3941TIP3    H133238   4.742   2.509  11.557  0.4182  2.0747 -0.8150
 3941TIP3    H233239   4.765   2.499  11.408  2.4561 -1.3781 -0.3721
 3942TIP3   OH233240   6.146   2.861   0.706 -0.2099  0.1054  0.4487
 3942TIP3    H133241   6.224   2.880   0.654  0.4577 -0.6500  1.1616
 3942TIP3    H233242   6.179   2.829   0.789 -1.1889  3.3937  2.3018
 3943TIP3   OH233243   2.316   2.377   5.088 -0.1550  0.1842  0.1721
 3943TIP3    H133244   2.291   2.306   5.148  2.0786 -0.8063  0.0253
 3943TIP3    H233245   2.293   2.343   5.001  0.0316  0.0485  0.1760
 3944TIP3   OH233246   1.298   1.607   0.651  0.5787  0.4235 -0.0840
 3944TIP3    H133247   1.236   1.604   0.724  0.0391 -3.6155 -0.4634
 3944TIP3    H233248   1.245   1.629   0.575  0.0837 -0.4180  0.0030
 3945TIP3   OH233249   5.550   0.922  15.028 -0.1149  0.2959  0.4497
 3945TIP3    H133250   5.472   0.951  15.075  0.4029 -0.2836  1.6991
 3945TIP3    H233251   5.573   0.839  15.070 -2.1584 -2.6926 -3.5831
 3946TIP3   OH233252   6.092   2.572  11.393  0.1497 -0.5763 -0.1706
 3946TIP3    H133253   6.183   2.560  11.368  0.1180  0.2666 -0.7507
 3946TIP3    H233254   6.060   2.641  11.334 -0.2129  0.7757  1.5106
 3947TIP3   OH233255   4.967   1.581  14.692 -0.0783  0.4540 -0.8301
 3947TIP3    H133256   4.959   1.605  14.785  0.0692 -1.5830 -0.2299
 3947TIP3    H233257   4.889   1.618  14.651 -1.3750 -0.5654  0.5867
 3948TIP3   OH233258   5.488   6.289   1.374 -0.5876  0.1252 -0.3203
 3948TIP3    H133259   5.488   6.220   1.307  0.5341 -0.7472  0.5243
 3948TIP3    H233260   5.437   6.252   1.446 -0.9269  0.6427 -0.2946
 3949TIP3   OH233261   1.763   6.149  13.181 -0.0173  0.1490 -0.7511
 3949TIP3    H133262   1.858   6.147  13.177  0.0767  1.0702  0.2740
 3949TIP3    H233263   1.741   6.242  13.177 -0.8291 -0.0159 -0.3979
 3950TIP3   OH233264   2.612   3.164  15.912  0.0674 -0.3944 -0.5894
 3950TIP3    H133265   2.634   3.210  15.831 -2.0282  2.3515  0.2214
 3950TIP3    H233266   2.534   3.112  15.890  1.2555 -2.0595 -1.0078
 3951TIP3   OH233267   6.414   2.704   2.967  0.3880 -0.2305  0.5881
 3951TIP3    H133268   6.369   2.786   2.947  0.6881 -0.3653 -0.7711
 3951TIP3    H233269   6.345   2.645   2.998  0.1397  0.4583  1.3798
 3952TIP3   OH233270   3.261   0.080   2.053 -0.1836 -0.0624  0.0023
 3952TIP3    H133271   3.187   0.040   2.007 -0.6194  0.1131  0.5452
 3952TIP3    H233272   3.255   0.047   2.142  1.7428 -1.8972 -0.4547
 3953TIP3   OH233273   2.754   1.747  11.192 -0.2445 -0.3833 -0.4536
 3953TIP3    H133274   2.671   1.709  11.222  0.6596 -1.3010  0.9833
 3953TIP3    H233275   2.806   1.758  11.272 -0.3918  3.9052 -0.7511
 3954TIP3   OH233276   1.615   4.415  13.362 -0.2389 -0.1382  0.2427
 3954TIP3    H133277   1.551   4.379  13.301 -0.7206 -1.7850  1.6415
 3954TIP3    H233278   1.689   4.440  13.307 -1.2161 -0.1855 -1.1629
 3955TIP3   OH233279   2.141   3.350   6.083  0.2480  0.3247 -0.0546
 3955TIP3    H133280   2.179   3.417   6.140 -3.1382  0.9848  1.6303
 3955TIP3    H233281   2.180   3.268   6.113  2.4451  1.1831 -0.3707
 3956TIP3   OH233282   0.819   0.332   1.921 -0.2291  0.2958 -0.3640
 3956TIP3    H133283   0.834   0.378   1.838 -0.4834  1.9581  0.4857
 3956TIP3    H233284   0.747   0.272   1.902 -0.2280  0.5879 -1.3645
 3957TIP3   OH233285   6.208   5.417  13.426  0.7647 -0.0248  0.0078
 3957TIP3    H133286   6.220   5.510  13.445  0.3448 -0.6382  4.3029
 3957TIP3    H233287   6.271   5.372  13.483 -0.3362 -2.3994 -0.5096
 3958TIP3   OH233288   1.781   1.427   3.646  0.2323  0.1063 -0.5994
 3958TIP3    H133289   1.846   1.422   3.716 -0.3502  0.5503 -0.0079
 3958TIP3    H233290   1.831   1.421   3.565  0.7833 -2.0790 -0.1526
 3959TIP3   OH233291   1.985   1.459  12.034 -0.6310 -0.1408 -0.4757
 3959TIP3    H133292   2.078   1.436  12.035  0.0640  2.3032 -1.5461
 3959TIP3    H233293   1.983   1.549  12.002 -3.3490  0.0676  0.0518
 3960TIP3   OH233294   2.011   2.582   1.900  0.3363 -0.0109  0.1849
 3960TIP3    H133295   2.064   2.581   1.980  1.0373  0.4422 -0.2660
 3960TIP3    H233296   1.973   2.669   1.897 -0.0716 -0.1832  0.2658
 3961TIP3   OH233297   5.534   6.494  16.268 -0.5806  0.3012  0.1324
 3961TIP3    H133298   5.477   6.553  16.317  0.0615  1.0695 -0.0124
 3961TIP3    H233299   5.521   6.519  16.176 -1.8292 -1.1734 -0.1276
 3962TIP3   OH233300   5.027   1.932  12.796  0.0174 -0.3960 -0.3329
 3962TIP3    H133301   5.005   2.014  12.751  0.9084  0.3165  0.4855
 3962TIP3    H233302   5.092   1.890  12.739 -1.6128 -1.3548 -1.5650
 3963TIP3   OH233303   4.903   1.233   0.127  0.5074  0.0757  0.5181
 3963TIP3    H133304   4.814   1.250   0.097  0.2578  2.9127  2.4771
 3963TIP3    H233305   4.901   1.142   0.158 -1.2605 -0.3838 -0.7781
 3964TIP3   OH233306   1.260   3.378   5.128 -0.2773  0.3410 -0.4085
 3964TIP3    H133307   1.322   3.308   5.147 -0.1093  0.7467  0.6208
 3964TIP3    H233308   1.224   3.401   5.214 -1.7261  0.2376 -0.9564
 3965TIP3   OH233309   6.383   4.059   3.851 -0.2586  0.6519  0.3111
 3965TIP3    H133310   6.426   3.975   3.863 -0.1750  0.1130 -2.7973
 3965TIP3    H233311   6.438   4.122   3.898  0.7150 -0.7644  1.1254
 3966TIP3   OH233312   4.252   3.301  10.946 -0.4016  0.3320 -0.1869
 3966TIP3    H133313   4.194   3.231  10.914 -1.1652  1.0908 -0.4930
 3966TIP3    H233314   4.315   3.313  10.876 -0.6464  0.3811 -0.3989
 3967TIP3   OH233315   0.344   3.428  15.095  0.0545 -1.1793  0.2156
 3967TIP3    H133316   0.435   3.416  15.066  0.0181 -1.0280  0.0454
 3967TIP3    H233317   0.320   3.515  15.066 -0.4375 -1.5465 -0.5040
 3968TIP3   OH233318   5.236   3.294  11.157  0.5014 -0.0097 -0.2418
 3968TIP3    H133319   5.293   3.363  11.190 -0.3523 -0.3215  2.0634
 3968TIP3    H233320   5.280   3.263  11.078  1.0078  2.9656 -1.2317
 3969TIP3   OH233321   6.484   3.852   2.305 -0.5246 -0.2950 -0.1402
 3969TIP3    H133322   6.551   3.836   2.371 -1.5554 -2.3319  0.5169
 3969TIP3    H233323   6.461   3.764   2.273 -2.5094  0.3644 -0.6790
 3970TIP3   OH233324   3.574   3.310   2.105  0.7158  1.0000  0.5206
 3970TIP3    H133325   3.532   3.273   2.183 -2.6712 -0.3356 -1.7271
 3970TIP3    H233326   3.550   3.251   2.034  2.7203  2.7494 -1.7884
 3971TIP3   OH233327   4.419   3.556  15.282  0.4800  0.3940 -0.6446
 3971TIP3    H133328   4.325   3.537  15.275  0.6379 -0.9815  0.3995
 3971TIP3    H233329   4.424   3.630  15.342  0.0847 -0.3757  0.3795
 3972TIP3   OH233330   5.400   3.213   2.946 -0.2714  0.3823  0.1483
 3972TIP3    H133331   5.346   3.133   2.940  2.2242 -1.4247  0.1299
 3972TIP3    H233332   5.385   3.245   3.035 -0.9567 -0.3645  0.3191
 3973TIP3   OH233333   1.515   3.334   0.459  0.6174  0.3310  0.0926
 3973TIP3    H133334   1.554   3.338   0.372  1.3435  0.1646  0.4046
 3973TIP3    H233335   1.558   3.404   0.508  1.9055 -1.0096  0.9722
 3974TIP3   OH233336   5.328   6.489  14.730  0.0232 -0.1315  0.2511
 3974TIP3    H133337   5.252   6.528  14.773 -2.4219 -2.7654 -1.3450
 3974TIP3    H233338   5.382   6.454  14.801 -0.6084  1.0990  1.3791
 3975TIP3   OH233339   5.435   0.162   5.953  0.0979  0.3988 -0.0602
 3975TIP3    H133340   5.431   0.072   5.983 -2.3405  0.1917 -0.7877
 3975TIP3    H233341   5.368   0.207   6.005  1.4118  1.8769  0.4447
 3976TIP3   OH233342   4.369   2.149  17.009 -0.1102 -0.2116  0.4843
 3976TIP3    H133343   4.419   2.214  16.960 -0.8656  0.1839  0.2300
 3976TIP3    H233344   4.372   2.070  16.954 -0.3715  0.0283  0.1163
 3977TIP3   OH233345   0.299   6.537  15.167  0.4888 -0.2227  0.2481
 3977TIP3    H133346   0.291   6.442  15.172 -0.7552 -0.0827  1.8424
 3977TIP3    H233347   0.228   6.565  15.110  0.9516 -0.2494 -0.3485
 3978TIP3   OH233348   4.772   3.042   0.522  0.1871 -0.3495 -0.1346
 3978TIP3    H133349   4.824   3.086   0.454 -1.0058 -1.2018 -1.6640
 3978TIP3    H233350   4.694   3.012   0.476 -0.5784 -1.1238  1.6053
 3979TIP3   OH233351   5.408   2.799   0.279  0.0559  0.0308  0.8972
 3979TIP3    H133352   5.468   2.726   0.270  1.3363  1.0305  0.9445
 3979TIP3    H233353   5.337   2.765   0.333 -0.1479 -1.5940 -0.3266
 3980TIP3   OH233354   0.652   0.565  15.970  0.6650 -0.6433 -0.8660
 3980TIP3    H133355   0.590   0.580  16.042  1.2825 -0.9038 -0.2680
 3980TIP3    H233356   0.635   0.475  15.942  1.4687 -1.1006  0.0181
 3981TIP3   OH233357   0.444   2.169   5.775 -0.7524 -0.0128 -0.5192
 3981TIP3    H133358   0.480   2.081   5.782 -0.6332  0.0688 -0.1332
 3981TIP3    H233359   0.513   2.220   5.732 -0.5152  0.0768 -0.0346
 3982TIP3   OH233360   4.521   6.728  16.522 -0.4949  0.3104  0.9093
 3982TIP3    H133361   4.578   6.667  16.569 -1.2061 -2.7179 -1.7417
 3982TIP3    H233362   4.436   6.719  16.566  0.1432  2.1031  2.6328
 3983TIP3   OH233363   0.253   2.694   0.848  0.3099  0.1150 -0.3653
 3983TIP3    H133364   0.341   2.655   0.846  0.7081  0.6763  2.4083
 3983TIP3    H233365   0.269   2.789   0.843 -0.0750  0.2391  0.5671
 3984TIP3   OH233366   3.030   2.966   3.485  0.6615  0.1482  0.6065
 3984TIP3    H133367   3.092   3.033   3.514 -0.8135  0.9326  2.1104
 3984TIP3    H233368   2.944   3.006   3.496 -0.1861 -1.3297 -0.2973
 3985TIP3   OH233369   6.263   0.860   6.714  0.0345 -0.0303  0.0242
 3985TIP3    H133370   6.346   0.899   6.687 -0.2994  0.3980 -0.4104
 3985TIP3    H233371   6.202   0.885   6.645  0.1639 -2.7222 -1.1520
 3986TIP3   OH233372   4.485   6.368   3.699 -0.1495 -0.5697  0.0773
 3986TIP3    H133373   4.516   6.392   3.787 -0.7335  0.2951  0.0649
 3986TIP3    H233374   4.530   6.286   3.679  1.4439  0.1737  0.4187
 3987TIP3   OH233375   0.413   1.637  17.046 -0.0913  0.1520 -0.1615
 3987TIP3    H133376   0.405   1.732  17.055 -0.5443  0.0311  0.8678
 3987TIP3    H233377   0.410   1.605  17.136  0.9649 -0.7734 -0.4305
 3988TIP3   OH233378   5.761   3.685  14.381 -0.5360  0.2430  0.3545
 3988TIP3    H133379   5.690   3.736  14.341  0.6953  2.4114  0.7872
 3988TIP3    H233380   5.737   3.680  14.473 -0.2466  0.8365  0.4716
 3989TIP3   OH233381   1.710   2.135   4.963  0.8611 -0.0024  0.1501
 3989TIP3    H133382   1.657   2.137   4.883  0.6985 -0.6364  0.2410
 3989TIP3    H233383   1.686   2.216   5.009  0.0666 -0.2170  0.1291
 3990TIP3   OH233384   4.052   0.939  15.414  0.3410  0.5786  0.0091
 3990TIP3    H133385   3.978   0.956  15.472 -0.6813 -0.2855 -0.9958
 3990TIP3    H233386   4.115   1.008  15.435  0.8325 -0.6888  3.4406
 3991TIP3   OH233387   4.331   0.746   0.856  0.3396 -0.3723 -0.7561
 3991TIP3    H133388   4.285   0.699   0.925  1.3900 -0.4749 -0.1146
 3991TIP3    H233389   4.271   0.817   0.832 -0.1896 -0.5482 -0.0022
 3992TIP3   OH233390   2.909   0.013   3.307 -0.1902 -0.6667 -0.2170
 3992TIP3    H133391   2.871  -0.069   3.339  0.9092 -0.9762  0.3202
 3992TIP3    H233392   2.854   0.081   3.347 -0.0608 -1.1018  0.7298
 3993TIP3   OH233393   6.570   5.826   0.820 -0.5162 -0.3170 -0.5459
 3993TIP3    H133394   6.583   5.732   0.827  0.0225 -0.3462 -1.6659
 3993TIP3    H233395   6.630   5.853   0.750  0.0425  1.0073  0.4031
 3994TIP3   OH233396   1.159   3.285  13.788  0.2666  0.2973  0.2072
 3994TIP3    H133397   1.168   3.361  13.844 -0.6440  0.8938 -0.4336
 3994TIP3    H233398   1.249   3.261  13.766  0.6483 -0.0349  1.9861
 3995TIP3   OH233399   6.712   6.329   4.615 -0.0353 -0.1473  0.5188
 3995TIP3    H133400   6.653   6.285   4.554 -1.6374  1.5298  0.7920
 3995TIP3    H233401   6.658   6.394   4.659  2.1451  1.9133  0.3529
 3996TIP3   OH233402   5.719   2.574  13.946  0.0779 -0.1703 -0.0310
 3996TIP3    H133403   5.697   2.644  14.008 -0.2701 -1.1768  1.0006
 3996TIP3    H233404   5.787   2.612  13.891  0.9825  0.4700  1.4789
 3997TIP3   OH233405   0.366   5.841   0.678 -0.1770  0.3428 -0.1600
 3997TIP3    H133406   0.353   5.931   0.706 -1.1833  0.5096 -1.0949
 3997TIP3    H233407   0.369   5.845   0.582 -2.4851 -0.8335 -0.3637
 3998TIP3   OH233408   3.655   4.061  11.378 -0.4767 -0.7943 -0.2824
 3998TIP3    H133409   3.708   4.066  11.298  0.9460  1.8634  0.7087
 3998TIP3    H233410   3.598   4.138  11.374 -1.0348 -1.1293  0.8304
 3999TIP3   OH233411   4.059   0.883   1.068 -0.0460 -0.2420 -0.2544
 3999TIP3    H133412   4.021   0.813   1.014  0.7813  0.0207 -1.1977
 3999TIP3    H233413   4.072   0.842   1.153  0.0009 -1.1120 -0.6664
 4000TIP3   OH233414   1.885   0.843   4.800  0.2089 -0.2871  0.0641
 4000TIP3    H133415   1.796   0.817   4.825 -0.3437 -0.0489 -1.5290
 4000TIP3    H233416   1.913   0.775   4.738  0.6300  0.3232 -0.4245
 4001TIP3   OH233417   3.401   0.708  14.982  0.2733 -0.3645  0.1471
 4001TIP3    H133418   3.467   0.693  14.915 -1.6543  0.1125 -1.9704
 4001TIP3    H233419   3.447   0.696  15.065  3.3766  1.3718 -1.1660
 4002TIP3   OH233420   6.277   2.246  15.945  0.5964 -0.5062  0.3693
 4002TIP3    H133421   6.215   2.250  16.017  0.1254 -0.8719 -0.0077
 4002TIP3    H233422   6.305   2.155  15.942  1.7765 -0.1849  1.0453
 4003TIP3   OH233423   0.188   2.921   4.679  0.3422 -0.0040 -0.3249
 4003TIP3    H133424   0.093   2.931   4.682  0.3819  0.3121 -0.1279
 4003TIP3    H233425   0.219   2.963   4.759  0.6216 -0.4015 -0.2170
 4004TIP3   OH233426   3.537   4.709  11.560  0.0883 -0.4935  0.0908
 4004TIP3    H133427   3.490   4.722  11.643  3.4724  1.3079  1.9657
 4004TIP3    H233428   3.537   4.796  11.519  0.5981 -0.7610 -0.4952
 4005TIP3   OH233429   4.138   2.380   4.425 -0.6969 -0.0131  0.5222
 4005TIP3    H133430   4.163   2.432   4.349 -1.8046 -0.4816 -0.1878
 4005TIP3    H233431   4.182   2.296   4.413 -0.4879  0.0756  0.6549
 4006TIP3   OH233432   4.665   2.135  14.746  0.4725  0.1715  0.4134
 4006TIP3    H133433   4.749   2.095  14.726 -0.9964 -2.3767 -1.2740
 4006TIP3    H233434   4.630   2.161  14.660 -0.8504  0.3078  0.9706
 4007TIP3   OH233435   3.590   6.111   0.647 -0.2016 -0.1918  0.3758
 4007TIP3    H133436   3.617   6.135   0.559  1.7361 -2.3171  0.3100
 4007TIP3    H233437   3.624   6.182   0.702  1.5589 -0.4914 -0.2617
 4008TIP3   OH233438   0.015   2.889  11.337 -0.3285 -0.2399  0.4222
 4008TIP3    H133439  -0.022   2.943  11.267  1.5302 -1.0932 -1.2925
 4008TIP3    H233440   0.031   2.951  11.409  0.4210  1.2653 -0.9824
 4009TIP3   OH233441   3.580   2.019  11.385  0.4226 -0.2892 -0.2663
 4009TIP3    H133442   3.625   1.935  11.394 -0.8834 -0.9830  0.0641
 4009TIP3    H233443   3.489   2.000  11.409  0.2908  1.4280  0.7385
 4010TIP3   OH233444   1.008   2.481   3.794  0.1373 -0.3093  0.4601
 4010TIP3    H133445   0.975   2.560   3.752 -0.8064  0.1485  1.9840
 4010TIP3    H233446   1.103   2.491   3.793  0.0862  0.2570 -0.4075
 4011TIP3   OH233447   1.999   5.819   2.179 -0.2502 -0.3241  0.2591
 4011TIP3    H133448   2.020   5.911   2.189 -0.3464 -0.4276  1.5858
 4011TIP3    H233449   1.933   5.801   2.247  0.4850 -1.5875  0.6786
 4012TIP3   OH233450   1.952   1.424   5.738 -0.2450 -0.6112  0.0349
 4012TIP3    H133451   1.870   1.380   5.715 -1.1947  0.5754  1.0182
 4012TIP3    H233452   1.926   1.511   5.769  1.3019 -0.4923  1.1850
 4013TIP3   OH233453   6.644   0.818  16.672  0.4673 -0.1916 -0.6218
 4013TIP3    H133454   6.717   0.875  16.698  1.8689 -1.7688 -0.8928
 4013TIP3    H233455   6.684   0.754  16.614 -0.9417 -1.7157  0.0179
 4014TIP3   OH233456   3.837   0.113  14.349 -0.4626 -0.1755  0.3197
 4014TIP3    H133457   3.842   0.175  14.276  0.6895 -1.5035 -0.7994
 4014TIP3    H233458   3.767   0.052  14.325 -0.3473 -0.3834  0.5016
 4015TIP3   OH233459   0.702   0.304   5.695 -0.1422  0.3479  0.4321
 4015TIP3    H133460   0.726   0.213   5.715  0.6439  0.4781  0.1476
 4015TIP3    H233461   0.626   0.322   5.750 -1.2242 -0.9478 -0.5834
 4016TIP3   OH233462   1.053   6.177  16.410 -0.2588 -0.1881 -0.6130
 4016TIP3    H133463   0.985   6.205  16.471 -0.7922 -0.4599 -1.0690
 4016TIP3    H233464   1.059   6.082  16.422  1.3616  0.0385  0.7408
 4017TIP3   OH233465   0.563   6.456  12.097 -0.1121  0.1008 -0.0719
 4017TIP3    H133466   0.540   6.506  12.019 -1.9028 -2.4723 -1.3252
 4017TIP3    H233467   0.519   6.501  12.168  0.0860  1.4777 -0.7738
 4018TIP3   OH233468   1.420   4.603   3.836 -0.0410  0.3882 -0.0483
 4018TIP3    H133469   1.487   4.654   3.791  1.0464 -1.0172 -0.1091
 4018TIP3    H233470   1.343   4.608   3.780  0.3054  1.2667 -0.4517
 4019TIP3   OH233471   0.055   1.210   0.295  0.1273 -0.3004  0.4052
 4019TIP3    H133472   0.032   1.216   0.388  0.7118  1.3864  0.4638
 4019TIP3    H233473  -0.021   1.247   0.250  0.8973  1.3086  0.3752
 4020TIP3   OH233474   1.780   0.598   3.465 -0.1855  0.1349 -0.0873
 4020TIP3    H133475   1.758   0.587   3.372 -0.1395 -0.4441 -0.0285
 4020TIP3    H233476   1.870   0.569   3.472 -0.9045 -2.1393  0.5701
 4021TIP3   OH233477   1.338   4.027  11.265  0.0442 -0.3410  0.0661
 4021TIP3    H133478   1.373   4.059  11.182  1.2678  1.6920  1.2970
 4021TIP3    H233479   1.415   4.022  11.323 -1.0446  0.0605  1.6011
 4022TIP3   OH233480   5.364   3.864   1.401 -0.4897  0.1399 -0.5965
 4022TIP3    H133481   5.363   3.937   1.339 -0.7951  1.2684  0.6780
 4022TIP3    H233482   5.452   3.866   1.438 -0.9173  0.7979  0.4529
 4023TIP3   OH233483   1.341   6.371  11.689 -0.5817 -0.2730  0.1343
 4023TIP3    H133484   1.300   6.337  11.769  0.6110  0.1753  0.9629
 4023TIP3    H233485   1.402   6.303  11.662 -0.7877 -0.3083 -0.2465
 4024TIP3   OH233486   0.305   2.640   5.566 -0.9415  0.9442  0.1070
 4024TIP3    H133487   0.308   2.707   5.634 -0.5303  1.4560 -0.4046
 4024TIP3    H233488   0.362   2.674   5.497 -0.6460  0.0228 -0.1146
 4025TIP3   OH233489   3.288   5.004   1.431  0.0592 -0.4300 -0.1088
 4025TIP3    H133490   3.310   4.986   1.523 -0.5701  1.1733  0.3934
 4025TIP3    H233491   3.211   4.950   1.415 -0.5070  0.1110  0.6836
 4026TIP3   OH233492   4.431   1.878   4.529 -0.2420  0.1291 -0.0981
 4026TIP3    H133493   4.366   1.882   4.600 -1.4164  0.4747 -1.1594
 4026TIP3    H233494   4.407   1.800   4.480  0.1679  0.2440 -0.4807
 4027TIP3   OH233495   6.049   3.110   0.161 -0.2142  0.5280 -0.0040
 4027TIP3    H133496   6.023   3.018   0.165  2.7848 -0.4004  0.5991
 4027TIP3    H233497   6.081   3.130   0.249  1.0630  1.5182 -0.6658
 4028TIP3   OH233498   5.769   1.158   1.185 -0.0771  1.2207  0.3415
 4028TIP3    H133499   5.816   1.132   1.265  1.1071 -2.6988 -1.3525
 4028TIP3    H233500   5.688   1.106   1.187 -0.1649  1.2822 -0.8230
 4029TIP3   OH233501   0.315   0.774   1.555 -0.3355  0.0087  0.5526
 4029TIP3    H133502   0.293   0.857   1.598 -3.2077 -1.3018  1.9110
 4029TIP3    H233503   0.388   0.739   1.607 -0.4246  0.7779  1.2225
 4030TIP3   OH233504   0.002   5.897   4.839 -0.6335 -0.3397  0.1543
 4030TIP3    H133505   0.028   5.852   4.920  2.1963  0.1690 -0.3465
 4030TIP3    H233506   0.032   5.839   4.769 -0.4943  0.4916 -0.4908
 4031TIP3   OH233507   0.972   4.703  12.654 -0.5299  0.0283 -0.2306
 4031TIP3    H133508   0.980   4.649  12.733 -1.6141  0.8264  0.4549
 4031TIP3    H233509   0.885   4.742  12.661 -0.2326  0.9203 -1.3152
 4032TIP3   OH233510   5.869   1.354   0.144  0.0775  0.0676 -0.2822
 4032TIP3    H133511   5.783   1.327   0.178  0.2024 -1.1856 -0.9219
 4032TIP3    H233512   5.907   1.405   0.216 -0.1473 -1.5299  1.0429
 4033TIP3   OH233513   3.769   6.212  14.458 -0.5292 -0.6452  0.5900
 4033TIP3    H133514   3.699   6.200  14.394 -0.7360  0.7428  0.5337
 4033TIP3    H233515   3.811   6.126  14.464  0.1713 -0.5938 -2.1825
 4034TIP3   OH233516   5.716   2.867  16.022  1.2586  0.7615 -0.3288
 4034TIP3    H133517   5.650   2.906  16.079  1.0186 -0.7526  0.4610
 4034TIP3    H233518   5.767   2.942  15.990  0.4209  1.7677  0.6242
 4035TIP3   OH233519   6.570   2.457   2.836 -0.2802 -0.1663 -1.1696
 4035TIP3    H133520   6.618   2.396   2.779 -0.0835  0.9298 -2.2227
 4035TIP3    H233521   6.530   2.519   2.775 -0.2322  0.9348 -0.1006
 4036TIP3   OH233522   2.294   1.154   1.592 -0.6630  0.0507  0.3105
 4036TIP3    H133523   2.259   1.122   1.509 -1.2086  0.1975  0.4797
 4036TIP3    H233524   2.242   1.110   1.659 -0.7825  0.5655  0.5601
 4037TIP3   OH233525   1.037   2.050  11.656  0.5255  0.2049  0.3263
 4037TIP3    H133526   1.086   2.018  11.732 -0.7801  0.0262  1.1399
 4037TIP3    H233527   0.946   2.051  11.686 -0.1185 -0.5727 -1.4825
 4038TIP3   OH233528   2.147   1.954   2.788  0.6169 -0.2356 -0.2102
 4038TIP3    H133529   2.097   2.031   2.813 -1.2101 -1.7970  1.2682
 4038TIP3    H233530   2.234   1.967   2.827 -0.2767  0.1892  1.7591
 4039TIP3   OH233531   5.845   2.176   5.629  0.4778 -0.0746 -0.4660
 4039TIP3    H133532   5.807   2.242   5.688  0.5903 -1.0088  0.6711
 4039TIP3    H233533   5.791   2.182   5.550 -0.9316 -0.1331  0.4528
 4040TIP3   OH233534   5.789   6.544   1.003 -0.0240 -0.3733  0.0275
 4040TIP3    H133535   5.880   6.518   1.017  0.4340  1.6518  1.2773
 4040TIP3    H233536   5.764   6.501   0.921  1.5098 -2.2692  0.4855
 4041TIP3   OH233537   4.339   3.239  11.458  0.2922  0.5143 -0.1137
 4041TIP3    H133538   4.247   3.220  11.478  0.9622 -1.9831  1.0334
 4041TIP3    H233539   4.341   3.252  11.363 -1.4624  2.4349  0.0452
 4042TIP3   OH233540   0.174   3.875  15.619 -0.3449  0.4439 -0.2976
 4042TIP3    H133541   0.084   3.904  15.609 -0.2491  1.2452  0.9597
 4042TIP3    H233542   0.220   3.912  15.544 -1.0973 -0.2016 -1.0995
 4043TIP3   OH233543   3.836   3.839   2.677  0.1723 -0.2818  0.2650
 4043TIP3    H133544   3.810   3.749   2.699 -0.7420 -0.3478 -0.9788
 4043TIP3    H233545   3.831   3.843   2.581  0.3907  1.0516  0.2872
 4044TIP3   OH233546   5.085   4.832   5.662 -0.5155  0.4979 -0.3012
 4044TIP3    H133547   5.048   4.917   5.688 -0.9189  0.2550 -0.0686
 4044TIP3    H233548   5.173   4.832   5.698 -0.7680  0.5223  0.3276
 4045TIP3   OH233549   3.769   4.314   4.782 -0.2249  0.2948  0.2504
 4045TIP3    H133550   3.751   4.408   4.777 -0.8262  0.1071 -1.5266
 4045TIP3    H233551   3.763   4.283   4.692 -0.9674 -1.6364  0.9201
 4046TIP3   OH233552   3.099   5.006  13.490  0.4415 -0.3638  0.3160
 4046TIP3    H133553   3.082   5.100  13.491  0.0097 -0.4359  1.4159
 4046TIP3    H233554   3.071   4.976  13.577 -1.3950 -1.8339 -0.7047
 4047TIP3   OH233555   1.961   0.329  16.813 -0.7393  0.2606  0.5974
 4047TIP3    H133556   1.988   0.405  16.761  0.4360  0.5828  1.6356
 4047TIP3    H233557   1.870   0.313  16.786  0.1862 -0.4937 -2.6247
 4048TIP3   OH233558   3.341   2.364   1.257 -0.0729 -0.1474 -0.2012
 4048TIP3    H133559   3.410   2.430   1.244 -0.9139  0.6324 -0.8275
 4048TIP3    H233560   3.350   2.305   1.182  0.5009 -0.6018  0.2130
 4049TIP3   OH233561   3.882   3.110   0.454  0.0744 -0.4027 -0.5223
 4049TIP3    H133562   3.842   3.054   0.520  2.4181 -2.1214 -0.4164
 4049TIP3    H233563   3.955   3.152   0.500  1.1414 -0.8794 -1.7213
 4050TIP3   OH233564   6.662   4.241   2.555 -0.2196 -0.3575 -0.2558
 4050TIP3    H133565   6.681   4.216   2.464  0.8128  2.5865 -0.9723
 4050TIP3    H233566   6.741   4.286   2.584 -0.5902 -1.1346  2.1116
 4051TIP3   OH233567   0.227   3.918   4.357  0.7049 -0.1328 -0.5038
 4051TIP3    H133568   0.207   3.965   4.438 -0.7032  1.7139 -1.7955
 4051TIP3    H233569   0.302   3.964   4.320 -1.3273  2.0623 -2.3065
 4052TIP3   OH233570   6.097   0.007   5.448  0.2991 -1.4137 -0.4646
 4052TIP3    H133571   6.060   0.095   5.460 -1.7019 -2.3302  0.6296
 4052TIP3    H233572   6.184   0.023   5.410  0.9204  1.1477  1.6726
 4053TIP3   OH233573   2.079   1.314  16.521  0.0017  0.5029 -0.0640
 4053TIP3    H133574   2.122   1.351  16.445 -1.2590 -0.1794 -1.1616
 4053TIP3    H233575   2.098   1.375  16.593  0.8348  1.3963 -1.0257
 4054TIP3   OH233576   3.683   5.013  11.413  0.7246 -0.1147  0.2933
 4054TIP3    H133577   3.743   4.958  11.463 -0.3072 -1.3333  0.2654
 4054TIP3    H233578   3.677   4.970  11.328 -0.5182 -0.3188  0.4526
 4055TIP3   OH233579   2.853   6.493  12.458  0.7973  0.1033 -0.0238
 4055TIP3    H133580   2.921   6.536  12.405  1.7609 -0.1714  0.9404
 4055TIP3    H233581   2.889   6.493  12.547  0.5203 -2.0572  0.1470
 4056TIP3   OH233582   2.245   0.909  15.209  0.5538 -0.0493 -0.0225
 4056TIP3    H133583   2.248   0.950  15.296  0.5885  0.3766 -0.2219
 4056TIP3    H233584   2.224   0.981  15.149 -0.6441 -0.5536 -0.2335
 4057TIP3   OH233585   2.890   0.937   2.443 -0.2917  0.4574 -0.1108
 4057TIP3    H133586   2.933   1.021   2.425 -0.5958  0.7224  0.3805
 4057TIP3    H233587   2.798   0.952   2.419 -0.3976  0.3446  0.2193
 4058TIP3   OH233588   0.925   0.432  10.772 -0.9442 -0.2565 -0.0188
 4058TIP3    H133589   0.838   0.450  10.809 -0.5873 -0.8807  1.1545
 4058TIP3    H233590   0.940   0.505  10.711 -2.6225 -0.5565 -0.8634
 4059TIP3   OH233591   0.240   1.358  12.306 -0.3211  0.4078 -0.6381
 4059TIP3    H133592   0.319   1.307  12.327 -0.7849 -0.4041 -0.7965
 4059TIP3    H233593   0.191   1.301  12.247 -0.9706  0.9581 -0.6383
 4060TIP3   OH233594   1.921   6.710  13.497 -0.2921  0.2010 -0.1903
 4060TIP3    H133595   1.941   6.650  13.426 -0.0065  1.4425 -1.2027
 4060TIP3    H233596   1.903   6.793  13.453  3.4896  2.0289  1.2903
 4061TIP3   OH233597   6.772   3.648   0.230  0.4472 -0.2977  0.3730
 4061TIP3    H133598   6.690   3.619   0.191  0.4857 -0.1093  0.1498
 4061TIP3    H233599   6.833   3.655   0.156  0.7391 -0.6895  0.5721
 4062TIP3   OH233600   2.431   6.641   1.972 -0.1775  0.2928 -0.3182
 4062TIP3    H133601   2.407   6.669   2.060 -0.5052 -0.9829  0.0209
 4062TIP3    H233602   2.519   6.678   1.958 -0.7203  1.7304 -0.0487
 4063TIP3   OH233603   5.092   3.138  13.405  0.2745  0.5442  0.3281
 4063TIP3    H133604   5.101   3.216  13.461  1.2770  1.0277 -0.4878
 4063TIP3    H233605   5.038   3.168  13.332  3.0175  1.3644 -1.4993
 4064TIP3   OH233606   2.714   4.505   6.145 -0.2662  0.4267 -0.0060
 4064TIP3    H133607   2.721   4.415   6.179  1.7795  0.6282  0.2632
 4064TIP3    H233608   2.705   4.559   6.223 -0.7023  0.5120 -0.1167
 4065TIP3   OH233609   4.435   6.231  11.712 -0.1853  0.7946 -0.5509
 4065TIP3    H133610   4.493   6.299  11.676 -2.3860  2.5950 -0.8752
 4065TIP3    H233611   4.379   6.206  11.638 -1.8594  1.3511  0.4830
 4066TIP3   OH233612   2.917   1.016   3.180  0.1439 -0.0783  0.1800
 4066TIP3    H133613   2.927   1.031   3.274  0.8834 -3.0185  0.6837
 4066TIP3    H233614   2.825   0.993   3.169 -0.0321  0.6462  0.1032
 4067TIP3   OH233615   5.893   6.794  13.556 -0.4043 -0.5358 -0.3948
 4067TIP3    H133616   5.918   6.886  13.556 -0.6435 -0.4368  1.1875
 4067TIP3    H233617   5.805   6.792  13.520 -1.4504  0.2293  1.9382
 4068TIP3   OH233618   1.050   4.259   5.386 -0.6258 -0.2256 -0.1011
 4068TIP3    H133619   1.120   4.305   5.432 -0.7252 -1.6492  1.5896
 4068TIP3    H233620   0.977   4.321   5.386 -0.2426  0.2375  0.6379
 4069TIP3   OH233621   2.624   4.970   4.553  0.7276  0.0735 -0.5965
 4069TIP3    H133622   2.531   4.963   4.575  0.5766 -0.1761 -1.2898
 4069TIP3    H233623   2.669   4.958   4.636  0.1917 -1.1995 -0.4671
 4070TIP3   OH233624   2.858   2.678   3.247 -0.6145  0.0972  0.5962
 4070TIP3    H133625   2.782   2.708   3.197  0.4322  2.6523  0.3517
 4070TIP3    H233626   2.931   2.731   3.214  0.7920 -0.5572  2.4572
 4071TIP3   OH233627   2.346   6.126  11.449  0.2938  0.3973 -0.0576
 4071TIP3    H133628   2.431   6.116  11.405 -0.3149 -0.1141 -1.1774
 4071TIP3    H233629   2.293   6.055  11.412 -0.0011 -0.6215  2.1923
 4072TIP3   OH233630   1.053   1.093  16.794  0.0116  0.2419 -0.4173
 4072TIP3    H133631   1.039   1.070  16.702  1.6178  0.2986 -0.7138
 4072TIP3    H233632   1.072   1.010  16.837 -2.0457  0.0296  0.1763
 4073TIP3   OH233633   6.405   6.245   4.646 -0.3968 -0.1156  0.2971
 4073TIP3    H133634   6.462   6.170   4.627 -0.4424 -0.8674  2.7736
 4073TIP3    H233635   6.461   6.305   4.696 -1.0496  0.3422  0.4895
 4074TIP3   OH233636   2.625   1.502   1.107  0.0722 -0.1563 -0.2157
 4074TIP3    H133637   2.693   1.494   1.174  1.3042 -2.8267 -1.6416
 4074TIP3    H233638   2.612   1.596   1.099  2.1496  0.3874  1.5270
 4075TIP3   OH233639   3.347   6.603  14.635  0.0383 -0.2979 -0.3933
 4075TIP3    H133640   3.273   6.599  14.697  0.0652  0.6702 -0.2783
 4075TIP3    H233641   3.385   6.689  14.650  2.2345 -1.3974  0.7074
 4076TIP3   OH233642   1.567   3.604   4.047 -0.2903  0.2971  0.0507
 4076TIP3    H133643   1.501   3.581   4.112 -0.5401 -3.9701 -1.3366
 4076TIP3    H233644   1.518   3.616   3.966  0.3723 -0.1952 -0.4418
 4077TIP3   OH233645   1.531   3.256  15.397  0.3366 -0.0832 -0.6267
 4077TIP3    H133646   1.529   3.349  15.377  0.8264 -0.3508 -2.0069
 4077TIP3    H233647   1.486   3.214  15.324  1.3347 -1.0378 -0.7288
 4078TIP3   OH233648   1.347   4.063   2.459 -0.1149  0.2712 -0.3273
 4078TIP3    H133649   1.278   4.002   2.485  0.9649 -1.0902 -0.5259
 4078TIP3    H233650   1.364   4.041   2.367 -0.0558  1.2433 -0.5612
 4079TIP3   OH233651   5.799   5.111  15.176 -0.0466  0.0597  0.1988
 4079TIP3    H133652   5.796   5.015  15.186  0.0862  0.1095  0.7700
 4079TIP3    H233653   5.802   5.144  15.266  0.2104  0.5952 -0.0027
 4080TIP3   OH233654   5.881   6.610   5.393  0.1625  0.4648 -0.5740
 4080TIP3    H133655   5.816   6.651   5.450  2.0048  1.0578  1.2423
 4080TIP3    H233656   5.957   6.668   5.399  1.2268 -0.7481 -1.7684
 4081TIP3   OH233657   4.936   5.653   3.906  0.8514 -0.5355 -0.3108
 4081TIP3    H133658   4.946   5.614   3.993  0.5599 -2.3088 -1.0244
 4081TIP3    H233659   4.851   5.697   3.909 -0.1577 -2.3837 -0.3039
 4082TIP3   OH233660   3.264   6.467  16.865 -0.0507 -0.5399 -0.3987
 4082TIP3    H133661   3.232   6.383  16.830 -0.6557 -1.1163  1.4600
 4082TIP3    H233662   3.193   6.500  16.919  1.4292 -0.5397  1.6806
 4083TIP3   OH233663   6.141   3.539  11.125 -0.1605 -0.1834  0.1562
 4083TIP3    H133664   6.206   3.550  11.195 -0.5290 -0.9793  0.6397
 4083TIP3    H233665   6.161   3.454  11.086 -1.2058 -0.6731  0.6425
 4084TIP3   OH233666   0.952   0.842  16.018  0.1920 -0.6300  0.0281
 4084TIP3    H133667   0.891   0.861  16.089  0.1214 -0.4090 -0.0919
 4084TIP3    H233668   1.013   0.778  16.055  0.7506  0.2275  0.5952
 4085TIP3   OH233669   3.792   6.795  10.662  1.0556 -0.1265  0.3988
 4085TIP3    H133670   3.731   6.785  10.735  0.6777 -2.5261 -0.1722
 4085TIP3    H233671   3.859   6.729  10.678  1.7534  0.2955 -0.6977
 4086TIP3   OH233672   4.968   4.557   5.009  0.1972 -0.0603 -0.0688
 4086TIP3    H133673   4.902   4.547   5.077  1.5644 -0.4578  1.2683
 4086TIP3    H233674   5.016   4.474   5.011  1.4159  0.6193 -0.2135
 4087TIP3   OH233675   4.433   6.163  14.710 -0.2006  0.3325  0.4017
 4087TIP3    H133676   4.470   6.238  14.756  1.3569  0.1785 -0.5459
 4087TIP3    H233677   4.457   6.176  14.618 -0.2256 -1.1268  0.1615
 4088TIP3   OH233678   3.714   4.789  12.685  0.0211 -0.1293  0.1474
 4088TIP3    H133679   3.708   4.738  12.604 -0.0815  0.4503 -0.2144
 4088TIP3    H233680   3.807   4.788  12.708  0.1054  0.0392 -0.1916
 4089TIP3   OH233681   3.625   5.333   3.827  0.0332  0.4345  0.5862
 4089TIP3    H133682   3.595   5.253   3.785  0.2653  0.6751 -0.0634
 4089TIP3    H233683   3.566   5.401   3.795  1.2882  0.9350 -0.8131
 4090TIP3   OH233684   0.027   2.169  14.344 -0.4705 -0.4156 -0.4575
 4090TIP3    H133685  -0.058   2.213  14.341 -0.6465 -0.6540  0.6941
 4090TIP3    H233686   0.018   2.103  14.412  0.7725 -0.1646 -0.0204
 4091TIP3   OH233687   5.832   5.250  10.956  0.2111 -0.0684  0.7340
 4091TIP3    H133688   5.914   5.287  10.990  0.3105 -1.3544  1.9842
 4091TIP3    H233689   5.838   5.156  10.975 -0.4923 -0.5870 -1.3869
 4092TIP3   OH233690   0.129   3.720  15.850  0.5194  0.0562 -0.4777
 4092TIP3    H133691   0.171   3.750  15.931 -0.5670 -0.6170  0.3758
 4092TIP3    H233692   0.143   3.790  15.787 -0.2387  1.4504  0.8541
 4093TIP3   OH233693   3.381   2.008   2.250  0.4953 -0.2390  0.0982
 4093TIP3    H133694   3.387   1.930   2.305  2.2553  0.2841  0.7136
 4093TIP3    H233695   3.348   2.077   2.308 -0.1105 -0.2924 -0.1818
 4094TIP3   OH233696   5.173   5.219  15.338  0.4487 -0.0998 -0.1194
 4094TIP3    H133697   5.089   5.173  15.334  0.1401  0.4471 -3.6052
 4094TIP3    H233698   5.173   5.276  15.261  3.9178  0.1066 -0.1487
 4095TIP3   OH233699   0.818   5.205   1.156  0.6199 -0.0063  0.3305
 4095TIP3    H133700   0.846   5.160   1.075 -1.4209 -0.2346 -0.2914
 4095TIP3    H233701   0.853   5.150   1.226  0.0111 -1.4076 -0.4160
 4096TIP3   OH233702   1.334   1.242   3.414  0.5594  0.3320  0.1112
 4096TIP3    H133703   1.387   1.173   3.452  1.9715  0.6491 -1.2167
 4096TIP3    H233704   1.267   1.261   3.481  0.0690 -2.3373  0.4660
 4097TIP3   OH233705   6.748   2.660   3.433  0.1126  0.0331 -0.1268
 4097TIP3    H133706   6.762   2.754   3.440 -0.3026  0.0641  0.3020
 4097TIP3    H233707   6.814   2.621   3.490 -0.3541  0.1054  0.4661
 4098TIP3   OH233708   1.283   3.548   2.760 -0.2081 -0.1889  0.8334
 4098TIP3    H133709   1.260   3.638   2.782 -1.1405 -0.3336  0.5122
 4098TIP3    H233710   1.200   3.509   2.731  0.2611 -1.0400  0.6127
 4099TIP3   OH233711   6.509   1.538  13.089  0.6438  0.0225  0.1100
 4099TIP3    H133712   6.580   1.600  13.101 -0.1266  1.2998 -1.4876
 4099TIP3    H233713   6.502   1.527  12.994 -0.9059 -0.5037  0.2525
 4100TIP3   OH233714   1.767   1.354   1.110  0.8174 -0.0523  0.2060
 4100TIP3    H133715   1.749   1.437   1.066 -2.0552 -1.1878 -1.0221
 4100TIP3    H233716   1.733   1.365   1.199 -1.1127 -0.3414 -0.4402
 4101TIP3   OH233717   2.175   1.220  12.246 -0.0009 -0.3653  0.0764
 4101TIP3    H133718   2.269   1.219  12.266  0.1205  0.4140 -0.4054
 4101TIP3    H233719   2.143   1.134  12.274  1.3701 -1.7167 -2.2137
 4102TIP3   OH233720   3.252   3.215   0.477  0.4253 -0.4073 -0.2559
 4102TIP3    H133721   3.280   3.307   0.481  1.5404 -0.7279 -0.2212
 4102TIP3    H233722   3.281   3.185   0.391 -0.0417 -0.6987 -0.3132
 4103TIP3   OH233723   5.642   2.429   3.696  0.1046 -0.0134  0.1060
 4103TIP3    H133724   5.691   2.405   3.617 -0.2445 -0.3762 -0.0018
 4103TIP3    H233725   5.554   2.395   3.681 -0.3502  1.1801  0.0465
 4104TIP3   OH233726   6.542   3.933   1.000 -0.1506  0.4764  0.6313
 4104TIP3    H133727   6.495   3.983   0.934 -0.5523  0.2523  0.7461
 4104TIP3    H233728   6.476   3.876   1.039 -0.1209  1.2862  1.8989
 4105TIP3   OH233729   4.527   0.742  11.326 -0.3074  0.2265  0.3060
 4105TIP3    H133730   4.588   0.804  11.285 -1.1959  0.7620 -0.2268
 4105TIP3    H233731   4.474   0.709  11.254 -0.9147  0.0659  0.8152
 4106TIP3   OH233732   1.775   4.480   0.113 -0.4916  0.4767  0.6168
 4106TIP3    H133733   1.704   4.434   0.158 -1.2515  2.1214  1.2008
 4106TIP3    H233734   1.853   4.428   0.131 -1.7046 -2.2292 -1.2901
 4107TIP3   OH233735   2.780   3.032   2.877 -0.6363 -0.2633  0.0047
 4107TIP3    H133736   2.827   2.974   2.817 -2.4127 -0.8658 -0.8789
 4107TIP3    H233737   2.714   2.976   2.918 -1.3594  0.7939  0.3253
 4108TIP3   OH233738   0.740   5.029   1.868  0.4092  0.2966  0.1921
 4108TIP3    H133739   0.791   5.079   1.932  0.2455 -1.5562  1.8672
 4108TIP3    H233740   0.651   5.032   1.902  0.1874 -0.1448 -0.3362
 4109TIP3   OH233741   3.395   4.440  11.953 -0.3779 -0.0750 -0.4785
 4109TIP3    H133742   3.468   4.382  11.930  0.7937  1.2949 -0.3458
 4109TIP3    H233743   3.435   4.510  12.003 -1.9476  0.2579  0.3730
 4110TIP3   OH233744   4.884   4.810   5.474  0.0764  0.0380 -0.9956
 4110TIP3    H133745   4.935   4.839   5.399  0.8529  0.8817 -0.1649
 4110TIP3    H233746   4.946   4.812   5.548 -1.8943  4.7664  0.8815
 4111TIP3   OH233747   2.324   3.821  16.523 -0.2915  0.4448  0.6807
 4111TIP3    H133748   2.327   3.896  16.464 -0.3524 -0.7711 -0.9391
 4111TIP3    H233749   2.399   3.767  16.496 -2.4519 -2.0029 -0.9542
 4112TIP3   OH233750   3.428   5.151  16.277  0.2794 -1.0252  0.1522
 4112TIP3    H133751   3.385   5.153  16.191 -0.7067 -1.5834  0.6110
 4112TIP3    H233752   3.520   5.135  16.257  0.1617 -0.5697 -0.8273
 4113TIP3   OH233753   4.509   5.255  17.017  0.1534 -1.0623  0.4533
 4113TIP3    H133754   4.482   5.183  17.075  0.2688 -0.3459  1.4167
 4113TIP3    H233755   4.557   5.315  17.074  0.4657 -0.4440 -0.4421
 4114TIP3   OH233756   4.927   3.981  12.614  0.8140 -0.7302  0.3536
 4114TIP3    H133757   4.886   4.003  12.698  0.9955  0.7736  0.0843
 4114TIP3    H233758   4.931   4.065  12.567  1.0502 -1.4839 -1.0101
 4115TIP3   OH233759   6.445   0.926  12.393 -0.1431 -0.1801  0.2204
 4115TIP3    H133760   6.354   0.921  12.423 -0.3188  0.5331 -0.1681
 4115TIP3    H233761   6.492   0.967  12.465 -0.2651  0.0894  0.1481
 4116TIP3   OH233762   0.958   1.956  16.973  0.0936 -0.0396 -0.3752
 4116TIP3    H133763   1.016   1.990  17.041 -0.8195 -3.0656  2.1673
 4116TIP3    H233764   0.870   1.976  17.005 -0.3759 -2.3289 -0.0273
 4117TIP3   OH233765   3.622   4.257  13.047 -0.2319 -0.0991  0.3642
 4117TIP3    H133766   3.653   4.340  13.083  0.3275 -0.2557  0.2636
 4117TIP3    H233767   3.527   4.259  13.058 -0.1797  0.3675  0.7558
 4118TIP3   OH233768   0.094   0.806   0.325  0.5464 -0.1787 -0.8402
 4118TIP3    H133769   0.167   0.755   0.290  0.6510 -1.6877  1.3957
 4118TIP3    H233770   0.120   0.897   0.311  3.2733 -0.6292  0.5019
 4119TIP3   OH233771   5.779   6.366   0.063 -0.2313  0.0863 -0.3772
 4119TIP3    H133772   5.809   6.341  -0.024  0.1716 -0.5406 -0.0671
 4119TIP3    H233773   5.764   6.460   0.057  1.0709  0.2999 -0.7724
 4120TIP3   OH233774   2.437   0.365   2.679 -0.5974  0.0380  0.0468
 4120TIP3    H133775   2.379   0.371   2.603 -0.2832  1.3849 -0.1100
 4120TIP3    H233776   2.444   0.455   2.711  3.0409  0.4051 -1.2172
 4121TIP3   OH233777   2.967   2.338  11.470  0.4782  0.0905 -1.1548
 4121TIP3    H133778   3.034   2.403  11.451  0.6815 -0.0229 -0.8370
 4121TIP3    H233779   2.945   2.353  11.562  2.1423 -1.7363 -0.3932
 4122TIP3   OH233780   1.347   6.652   0.119  0.0157  0.5729 -0.6519
 4122TIP3    H133781   1.432   6.609   0.116  0.6638  1.8051 -0.4154
 4122TIP3    H233782   1.284   6.580   0.126  1.1047 -0.3191  0.4470
 4123TIP3   OH233783   4.242   1.904   0.418 -0.0702  0.6903 -0.3629
 4123TIP3    H133784   4.298   1.976   0.450 -0.8498  0.8869  0.6220
 4123TIP3    H233785   4.153   1.934   0.436 -0.3971 -0.7943  0.6773
 4124TIP3   OH233786   4.888   0.815   6.607  0.6391  0.0533 -0.2568
 4124TIP3    H133787   4.862   0.886   6.548  1.9831  1.2326  0.4968
 4124TIP3    H233788   4.806   0.785   6.645  0.1568  3.1631  1.5227
 4125TIP3   OH233789   2.426   6.150   6.156  0.2952  0.2239 -0.3674
 4125TIP3    H133790   2.381   6.138   6.239  0.1815  2.3801 -0.0420
 4125TIP3    H233791   2.490   6.220   6.173 -0.8690  1.9383 -2.4340
 4126TIP3   OH233792   5.378   2.746  14.788 -0.3008 -0.1809 -0.3472
 4126TIP3    H133793   5.403   2.655  14.776  0.2176 -0.0693 -0.1499
 4126TIP3    H233794   5.328   2.747  14.869 -0.3558 -0.3019 -0.3807
 4127TIP3   OH233795   6.760   1.566  14.703  0.2930 -0.3208 -0.2685
 4127TIP3    H133796   6.785   1.570  14.611  1.5585  0.8718  0.0895
 4127TIP3    H233797   6.742   1.657  14.727  0.7876 -0.5081  0.8686
 4128TIP3   OH233798   4.372   0.813  12.567 -0.1223 -0.1119 -0.0852
 4128TIP3    H133799   4.458   0.856  12.574  0.1061 -0.5371 -0.2709
 4128TIP3    H233800   4.333   0.851  12.489 -1.6693  2.8505  1.9493
 4129TIP3   OH233801   0.744   3.526   1.806  0.1865  0.2811  0.4020
 4129TIP3    H133802   0.734   3.511   1.712  0.6713 -0.4038  0.4536
 4129TIP3    H233803   0.693   3.605   1.823 -0.4558  0.0362 -0.3194
 4130TIP3   OH233804   2.835   6.752  11.506 -0.0022  0.1203 -0.5064
 4130TIP3    H133805   2.816   6.703  11.426 -0.6576 -0.3263 -0.0855
 4130TIP3    H233806   2.808   6.694  11.577 -1.3465  1.2890 -0.0096
 4131TIP3   OH233807   5.635   3.927   1.446  0.3162 -0.0048 -0.8117
 4131TIP3    H133808   5.646   3.937   1.540 -0.7866 -2.0216 -0.4088
 4131TIP3    H233809   5.651   4.014   1.410  0.2269  0.9241  1.2846
 4132TIP3   OH233810   2.591   2.760  16.745 -0.4849 -0.2291 -0.0403
 4132TIP3    H133811   2.630   2.707  16.814 -2.0426  1.0449  1.9003
 4132TIP3    H233812   2.501   2.730  16.739  0.0533 -1.5965 -2.9004
 4133TIP3   OH233813   1.430   1.737   2.028 -0.1433 -0.3045  0.8919
 4133TIP3    H133814   1.380   1.658   2.011 -0.6679  0.3699 -0.9148
 4133TIP3    H233815   1.520   1.708   2.038 -0.4938 -1.2363  1.4638
 4134TIP3   OH233816   4.633   1.434   5.685 -0.2680  0.0221  0.5906
 4134TIP3    H133817   4.604   1.432   5.776 -0.8402  0.2715  0.4158
 4134TIP3    H233818   4.621   1.525   5.658 -0.4072 -0.1216  0.1645
 4135TIP3   OH233819   6.144   1.171   0.917 -0.1508  0.4372 -0.1813
 4135TIP3    H133820   6.188   1.199   0.837  1.1786 -0.5530  0.1623
 4135TIP3    H233821   6.216   1.160   0.980 -0.9012 -1.2078  0.4132
 4136TIP3   OH233822   6.295   6.779   0.260 -0.7062 -0.4286 -0.3916
 4136TIP3    H133823   6.205   6.795   0.232 -0.6421  0.4987 -0.1071
 4136TIP3    H233824   6.307   6.685   0.252 -1.4239 -0.4529 -1.2714
 4137TIP3   OH233825   5.335   2.959  16.511 -0.0312  0.7062  0.4587
 4137TIP3    H133826   5.395   2.932  16.441 -0.3311  2.0779 -0.3578
 4137TIP3    H233827   5.249   2.965  16.469 -0.8453 -1.3848  1.6458
 4138TIP3   OH233828   5.101   5.051   2.823  0.8320  0.1177 -0.0882
 4138TIP3    H133829   5.188   5.082   2.850  2.0243 -3.4846  0.6487
 4138TIP3    H233830   5.105   5.051   2.727  2.0661 -0.9036 -0.0703
 4139TIP3   OH233831   4.551   6.263   2.591 -0.3427 -0.2093 -0.1416
 4139TIP3    H133832   4.566   6.337   2.532 -2.7144  2.5182  2.3320
 4139TIP3    H233833   4.629   6.259   2.646 -0.7055  1.4677  0.5637
 4140TIP3   OH233834   2.951   4.382  15.092  0.3023  0.4788  0.5020
 4140TIP3    H133835   2.904   4.329  15.027  0.2459  0.3873  0.6178
 4140TIP3    H233836   2.882   4.418  15.148  0.2863  1.2205  0.0172
 4141TIP3   OH233837   1.588   2.245  15.481  0.2846 -0.1561 -0.7048
 4141TIP3    H133838   1.522   2.262  15.414 -0.8371 -0.4185  0.2871
 4141TIP3    H233839   1.632   2.165  15.452 -0.0435 -0.1511 -1.2288
 4142TIP3   OH233840   2.298   5.570  13.215  0.1885  0.1487 -0.2995
 4142TIP3    H133841   2.218   5.522  13.233  1.1169 -1.0163  0.9402
 4142TIP3    H233842   2.312   5.559  13.121 -0.2428 -1.0305 -0.2377
 4143TIP3   OH233843   0.490   4.008   4.289  0.1629  0.0790  0.1303
 4143TIP3    H133844   0.534   3.929   4.323  2.0507  0.4565 -1.2342
 4143TIP3    H233845   0.552   4.079   4.306 -0.2032  0.7694 -1.2553
 4144TIP3   OH233846   6.501   1.242  13.441  0.1216  0.6038  0.0292
 4144TIP3    H133847   6.455   1.159  13.430 -0.5019  0.7242  1.4255
 4144TIP3    H233848   6.469   1.298  13.370 -1.8435  0.6298  0.8577
 4145TIP3   OH233849   6.018   0.820  13.299  0.0794  0.0085 -0.3231
 4145TIP3    H133850   6.042   0.912  13.283 -0.7350  0.3463  0.2921
 4145TIP3    H233851   6.032   0.808  13.393 -1.4462  0.0243 -0.0709
 4146TIP3   OH233852   0.281   3.573   3.919 -0.2008 -0.0989 -0.3409
 4146TIP3    H133853   0.256   3.597   3.829  0.8589 -2.1156 -1.2337
 4146TIP3    H233854   0.375   3.555   3.914  0.0475  0.5180  1.3793
 4147TIP3   OH233855   2.099   3.170   1.937  0.2742 -0.3571 -0.3308
 4147TIP3    H133856   2.095   3.170   1.841 -2.6940  0.9487 -0.3342
 4147TIP3    H233857   2.162   3.238   1.959  0.4504 -0.1660 -1.3582
 4148TIP3   OH233858   1.020   5.456  14.744 -0.6359  0.4294  0.0077
 4148TIP3    H133859   1.023   5.531  14.803 -0.5429  0.1698  0.3358
 4148TIP3    H233860   1.083   5.394  14.781  1.0899  1.1420 -1.5885
 4149TIP3   OH233861   3.165   5.325   5.301  0.6396 -0.0317 -0.0852
 4149TIP3    H133862   3.080   5.315   5.344 -0.4996  0.7251 -2.0396
 4149TIP3    H233863   3.211   5.390   5.355 -0.6014  0.6382  0.2140
 4150TIP3   OH233864   5.889   0.737  16.611  0.2274 -0.5406 -0.0244
 4150TIP3    H133865   5.823   0.710  16.547  1.0844 -2.5317 -0.1450
 4150TIP3    H233866   5.856   0.705  16.695 -0.9544  2.1661  0.6562
 4151TIP3   OH233867   4.576   0.088   3.234  0.3690 -0.1995  0.8345
 4151TIP3    H133868   4.559   0.181   3.249  0.0241 -0.0502 -0.3132
 4151TIP3    H233869   4.558   0.046   3.318  0.2152  0.7342  1.2801
 4152TIP3   OH233870   4.186   0.181   4.074  0.3342  0.0391  0.0459
 4152TIP3    H133871   4.131   0.217   4.005  0.1199 -0.4467 -0.0407
 4152TIP3    H233872   4.128   0.171   4.149 -0.3218 -2.6698 -0.7274
 4153TIP3   OH233873   4.963   6.101  16.300 -0.2038  0.3899  0.6611
 4153TIP3    H133874   4.881   6.138  16.334 -0.5443 -0.3246  0.6365
 4153TIP3    H233875   4.948   6.094  16.206 -0.7993 -1.3631  0.8515
 4154TIP3   OH233876   5.937   1.939   5.618  0.3763  0.3931 -0.1656
 4154TIP3    H133877   5.928   2.034   5.615 -0.4062  0.3106 -1.3222
 4154TIP3    H233878   5.955   1.919   5.709 -0.4460  1.5692  0.2699
 4155TIP3   OH233879   3.093   2.140   1.570 -0.0691 -0.2778 -0.1688
 4155TIP3    H133880   3.168   2.085   1.546  0.8774  0.8953 -0.0085
 4155TIP3    H233881   3.132   2.225   1.591 -1.4761  0.4042 -0.2359
 4156TIP3   OH233882   0.398   0.317   1.599 -0.0051  0.1630 -0.7778
 4156TIP3    H133883   0.313   0.344   1.566 -0.5984 -0.6543 -0.0084
 4156TIP3    H233884   0.383   0.228   1.633  0.5902  0.8104  1.3672
 4157TIP3   OH233885   4.733   6.169  12.626  0.4370 -0.5117 -0.4265
 4157TIP3    H133886   4.666   6.114  12.586  1.8310 -1.3244 -1.7665
 4157TIP3    H233887   4.685   6.243  12.663 -1.1853 -1.0725 -1.3263
 4158TIP3   OH233888   6.324   6.122   5.613  0.2120  0.3694 -0.1073
 4158TIP3    H133889   6.250   6.131   5.554  0.7822 -2.9517 -1.4989
 4158TIP3    H233890   6.285   6.115   5.700 -1.0165 -0.0937 -0.6820
 4159TIP3   OH233891   1.121   5.246  11.997  0.2691  0.6651  0.0259
 4159TIP3    H133892   1.048   5.299  12.030  0.3243  0.2944  0.7593
 4159TIP3    H233893   1.096   5.225  11.907  0.4204  2.2489 -0.4244
 4160TIP3   OH233894   0.176   4.785   1.792  0.0474  0.3011 -0.0868
 4160TIP3    H133895   0.174   4.863   1.848  2.0502  0.4688 -0.1904
 4160TIP3    H233896   0.102   4.732   1.822 -0.6636  1.6998  0.7509
 4161TIP3   OH233897   0.861   6.218  16.602 -0.0879 -0.2919 -0.2300
 4161TIP3    H133898   0.782   6.269  16.585  0.4113  0.7006  0.2766
 4161TIP3    H233899   0.835   6.153  16.667 -0.4648  0.1143  0.0338
 4162TIP3   OH233900   1.289   2.690   5.354 -0.2507  0.2700 -0.6257
 4162TIP3    H133901   1.227   2.755   5.386 -0.2198 -0.0574  0.1477
 4162TIP3    H233902   1.275   2.614   5.412  0.2686 -0.1100 -0.9917
 4163TIP3   OH233903   2.039   4.546  16.119 -1.0101 -0.5974  0.0135
 4163TIP3    H133904   2.104   4.616  16.115 -0.0068 -1.5610 -1.7605
 4163TIP3    H233905   2.005   4.550  16.208  0.9587  0.3914  0.7842
 4164TIP3   OH233906   2.405   0.814  11.426 -0.1986  0.2332  0.3662
 4164TIP3    H133907   2.339   0.746  11.415  1.1954 -1.4646  2.0000
 4164TIP3    H233908   2.471   0.794  11.360  0.4825 -0.3489  1.2160
 4165TIP3   OH233909   3.177   6.633   1.247 -0.1100 -0.7003 -0.4989
 4165TIP3    H133910   3.099   6.578   1.243 -0.5270 -0.2860  0.9955
 4165TIP3    H233911   3.146   6.720   1.223 -0.1130 -0.5419  0.0644
 4166TIP3   OH233912   6.570   1.358  11.992 -0.6762 -0.0134  0.2930
 4166TIP3    H133913   6.666   1.357  11.987 -0.5087  3.5010  0.1337
 4166TIP3    H233914   6.550   1.344  12.084  0.1525  0.9209  0.6372
 4167TIP3   OH233915   6.289   0.176  12.270  0.0048 -0.0977 -0.3397
 4167TIP3    H133916   6.297   0.081  12.277 -0.3412 -0.0838  0.3244
 4167TIP3    H233917   6.309   0.195  12.178 -0.0713 -0.8238 -0.5135
 4168TIP3   OH233918   6.339   1.724  16.386 -0.0842  0.5651 -0.3503
 4168TIP3    H133919   6.363   1.636  16.412  0.9683  0.6318 -1.0597
 4168TIP3    H233920   6.285   1.757  16.459  0.4455 -0.2499  0.4281
 4169TIP3   OH233921   3.105   2.426   1.746 -0.5293 -0.0346  0.1484
 4169TIP3    H133922   3.060   2.384   1.819 -0.3920 -0.8832 -0.2401
 4169TIP3    H233923   3.037   2.472   1.699 -0.6873  0.1782  0.5809
 4170TIP3   OH233924   6.158   2.892   5.143 -0.3248 -0.3006 -0.0260
 4170TIP3    H133925   6.128   2.857   5.227 -0.2144  0.2069  0.2261
 4170TIP3    H233926   6.077   2.921   5.100 -0.2482  0.7993  0.5324
 4171TIP3   OH233927   3.927   2.427  15.872  0.1827 -0.0549 -0.5854
 4171TIP3    H133928   3.964   2.376  15.800  2.3859  0.4301  0.1450
 4171TIP3    H233929   3.996   2.489  15.896 -1.2963  1.2257  0.5542
 4172TIP3   OH233930   2.132   3.029   3.505 -0.3139 -0.2551  0.3950
 4172TIP3    H133931   2.203   3.080   3.466 -0.2374  0.7523  1.7699
 4172TIP3    H233932   2.084   2.992   3.431  0.0371  1.2802 -0.6251
 4173TIP3   OH233933   1.904   5.402  11.711  0.3822  0.1146 -0.2765
 4173TIP3    H133934   1.968   5.354  11.658  1.4800  1.7799 -0.5471
 4173TIP3    H233935   1.839   5.337  11.736  0.9334 -1.1462 -1.9683
 4174TIP3   OH233936   3.464   4.022  11.964 -0.4020 -0.2954  0.3583
 4174TIP3    H133937   3.397   4.090  11.972 -3.1125 -2.9244  2.1771
 4174TIP3    H233938   3.533   4.048  12.025  1.7827  3.7213 -3.2588
 4175TIP3   OH233939   3.093   4.243   1.145  0.0393 -0.3862 -0.5314
 4175TIP3    H133940   3.181   4.261   1.177 -0.5135 -0.0225  0.8718
 4175TIP3    H233941   3.039   4.243   1.224 -1.5278  1.2746 -1.5278
 4176TIP3   OH233942   5.604   4.210  15.492  0.0906 -0.2213 -0.0820
 4176TIP3    H133943   5.540   4.278  15.513  0.5919  0.0869  0.4693
 4176TIP3    H233944   5.612   4.159  15.573  1.5410  0.5689  0.2914
 4177TIP3   OH233945   2.185   4.830  12.060 -0.6638 -0.1546  0.1698
 4177TIP3    H133946   2.230   4.897  12.009  0.8893  0.4128  2.1250
 4177TIP3    H233947   2.104   4.813  12.012  1.4121 -1.0059 -3.4130
 4178TIP3   OH233948   3.981   4.378  13.882 -0.2396 -0.0652 -0.2611
 4178TIP3    H133949   3.914   4.430  13.837  0.6689  1.2129 -0.1813
 4178TIP3    H233950   4.044   4.356  13.814 -0.3876 -0.6943 -0.1988
 4179TIP3   OH233951   2.649   5.456  13.765  0.3487  0.0912  0.1080
 4179TIP3    H133952   2.600   5.504  13.831  0.5971 -1.6296  1.6366
 4179TIP3    H233953   2.632   5.364  13.784  2.4755 -0.5254 -0.6269
 4180TIP3   OH233954   4.158   2.421   1.362 -0.6606  0.1727  0.3497
 4180TIP3    H133955   4.090   2.355   1.375 -0.0066 -0.6183 -0.1185
 4180TIP3    H233956   4.118   2.503   1.390 -1.3036 -0.5091  1.5166
 4181TIP3   OH233957   2.356   2.236   6.203 -0.4414  0.7783  0.2243
 4181TIP3    H133958   2.358   2.181   6.125 -1.0149  1.7526 -0.4989
 4181TIP3    H233959   2.345   2.325   6.170 -0.5999  1.2233  1.4089
 4182TIP3   OH233960   6.736   6.316   2.809  0.5771 -0.0754 -0.4822
 4182TIP3    H133961   6.691   6.401   2.811 -2.2329 -1.4471  1.4195
 4182TIP3    H233962   6.742   6.291   2.901  3.0938 -1.1472 -0.8831
 4183TIP3   OH233963   1.552   3.225  13.317  0.4809  0.3409  0.4791
 4183TIP3    H133964   1.600   3.175  13.251 -0.7855  0.9642 -0.9971
 4183TIP3    H233965   1.497   3.159  13.360 -0.6845  0.2928 -0.9918
 4184TIP3   OH233966   1.706   4.047   1.566 -0.7507  0.1090  0.4215
 4184TIP3    H133967   1.703   4.000   1.649  2.6310  1.3349  1.3855
 4184TIP3    H233968   1.742   4.133   1.589 -0.1369  0.6434 -2.2485
 4185TIP3   OH233969   0.766   5.251   5.716  0.7371 -0.7992  0.0750
 4185TIP3    H133970   0.704   5.180   5.735  0.7076 -0.6569  0.5060
 4185TIP3    H233971   0.750   5.316   5.784  0.2554 -0.0417 -0.7495
 4186TIP3   OH233972   5.084   1.976  14.540  0.6927  0.3493 -0.4558
 4186TIP3    H133973   5.117   2.059  14.574  1.5029 -0.6508  1.3162
 4186TIP3    H233974   5.157   1.915  14.549  0.1146 -0.5916 -1.7287
 4187TIP3   OH233975   1.508   1.147  13.074  0.0961  0.3561  0.3538
 4187TIP3    H133976   1.416   1.170  13.057  0.1277 -0.5262 -1.2761
 4187TIP3    H233977   1.516   1.146  13.169 -2.2081 -1.8561  0.6201
 4188TIP3   OH233978   3.509   4.147  12.371 -0.4727 -0.0919 -0.3482
 4188TIP3    H133979   3.516   4.069  12.424  0.5198  1.1009  1.3795
 4188TIP3    H233980   3.590   4.148  12.319  0.0923  0.3588  0.5084
 4189TIP3   OH233981   2.184   4.643  12.991  0.0158  0.3718 -0.2833
 4189TIP3    H133982   2.178   4.548  12.993 -0.2672  0.3887 -0.1266
 4189TIP3    H233983   2.260   4.662  12.936 -0.0465  0.0596 -0.4817
 4190TIP3   OH233984   5.452   0.410   4.515  0.5581 -0.9156  0.0107
 4190TIP3    H133985   5.447   0.471   4.589  0.6218  1.6548 -1.9906
 4190TIP3    H233986   5.533   0.361   4.531  2.4717  1.9839  0.0056
 4191TIP3   OH233987   6.534   1.644   0.988  0.3520  0.3440 -0.0918
 4191TIP3    H133988   6.531   1.654   0.893 -1.3176  4.2023  0.1465
 4191TIP3    H233989   6.444   1.624   1.013  0.0724  2.3207  0.7303
 4192TIP3   OH233990   6.005   6.396  16.995  0.2467  0.0339  0.1774
 4192TIP3    H133991   6.071   6.336  17.030 -1.0860 -1.2060  0.6504
 4192TIP3    H233992   5.981   6.359  16.910 -2.6287 -1.8508  1.6503
 4193TIP3   OH233993   3.071   0.048  14.114 -0.1024  0.4216  0.4054
 4193TIP3    H133994   3.037   0.124  14.161  2.1928  1.9491 -0.2325
 4193TIP3    H233995   3.147   0.020  14.166  0.6693  0.2610 -0.7780
 4194TIP3   OH233996   0.699   6.800   5.454 -0.3991 -0.4550 -0.0798
 4194TIP3    H133997   0.638   6.726   5.460 -0.9808 -0.1056 -1.3616
 4194TIP3    H233998   0.745   6.786   5.371  0.0270  0.2251  0.0370
 4195TIP3   OH233999   6.102   0.675   6.046 -0.4565 -0.4165  0.6202
 4195TIP3    H134000   6.138   0.669   6.134 -0.7874  0.7413  0.8568
 4195TIP3    H234001   6.060   0.761   6.043 -1.9228 -1.1123 -0.1286
 4196TIP3   OH234002   3.901   6.239   3.512 -0.2888  0.2112  0.2244
 4196TIP3    H134003   3.836   6.184   3.469  1.6013  0.3185 -3.1152
 4196TIP3    H234004   3.960   6.177   3.555  0.2343 -0.2194 -1.0934
 4197TIP3   OH234005   0.105   1.821   0.358  1.3330  0.1045  0.3252
 4197TIP3    H134006   0.114   1.896   0.417  0.0263  0.8482 -0.3707
 4197TIP3    H234007   0.121   1.857   0.271  0.1652 -0.2885 -0.0709
 4198TIP3   OH234008   5.195   3.006  11.143  0.6205 -0.3816  0.1133
 4198TIP3    H134009   5.186   3.101  11.140 -0.1314 -0.3977  1.1321
 4198TIP3    H234010   5.152   2.975  11.064 -1.0292  0.0349  0.7972
 4199TIP3   OH234011   3.176   1.845  15.603  0.3368 -0.5502 -0.0870
 4199TIP3    H134012   3.236   1.886  15.666 -1.2825 -0.8037  1.7369
 4199TIP3    H234013   3.127   1.918  15.566  1.2512 -0.4045 -1.0373
 4200TIP3   OH234014   2.477   1.593   3.578  0.4853  0.1431 -0.1753
 4200TIP3    H134015   2.465   1.529   3.507 -0.5190  0.5030 -0.3553
 4200TIP3    H234016   2.408   1.571   3.641 -0.4302  1.5344 -0.6283
 4201TIP3   OH234017   4.465   0.583  15.490 -0.1879 -0.2388  0.2049
 4201TIP3    H134018   4.421   0.650  15.438  1.4627  0.0716 -0.8489
 4201TIP3    H234019   4.422   0.501  15.466  0.3493 -0.0679 -1.4860
 4202TIP3   OH234020   4.902   3.682   4.270 -0.5038  0.4751 -0.2786
 4202TIP3    H134021   4.868   3.596   4.247 -1.3710  1.2830 -2.2040
 4202TIP3    H234022   4.969   3.700   4.205 -0.9867  1.6390 -0.4772
 4203TIP3   OH234023   3.275   1.325   2.703  0.1952 -0.2694 -0.3533
 4203TIP3    H134024   3.217   1.303   2.630  1.0279 -1.1675 -0.7677
 4203TIP3    H234025   3.217   1.331   2.779 -0.3914 -1.7383 -0.6517
 4204TIP3   OH234026   5.306   6.021  11.555  0.2673 -0.0127  0.1895
 4204TIP3    H134027   5.301   6.017  11.651  0.2060  0.7532  0.2184
 4204TIP3    H234028   5.383   5.967  11.534 -0.4550 -1.2551  0.5730
 4205TIP3   OH234029   2.862   6.381  17.035  0.0242  0.0183 -0.2986
 4205TIP3    H134030   2.941   6.407  17.083 -1.1705  1.3668  1.0485
 4205TIP3    H234031   2.839   6.457  16.983 -0.6515 -0.2049 -0.3329
 4206TIP3   OH234032   5.465   6.499  16.711  0.3518 -0.7820  0.1663
 4206TIP3    H134033   5.446   6.550  16.632  1.0802 -1.2971 -0.3560
 4206TIP3    H234034   5.424   6.548  16.782 -2.2187 -1.4107 -0.7803
 4207TIP3   OH234035   0.983   5.723  14.824 -0.8267 -0.2225  0.4325
 4207TIP3    H134036   0.988   5.742  14.918  1.6905  0.7120  0.1730
 4207TIP3    H234037   0.962   5.808  14.785  2.0564  0.3582 -0.0774
 4208TIP3   OH234038   2.712   5.184   5.599 -0.2726 -0.3809 -0.0338
 4208TIP3    H134039   2.622   5.191   5.565 -0.2481 -0.7064 -0.1742
 4208TIP3    H234040   2.703   5.199   5.693 -0.5214 -0.7102 -0.0007
 4209TIP3   OH234041   4.894   4.606  16.872  0.1385  0.6210  0.4838
 4209TIP3    H134042   4.986   4.611  16.895 -0.1607  1.3789  1.5973
 4209TIP3    H234043   4.850   4.666  16.933 -1.3614 -1.3088  1.3888
 4210TIP3   OH234044   3.204   2.749  13.446 -0.4518 -0.1594  0.1699
 4210TIP3    H134045   3.110   2.757  13.427 -0.8813 -1.6399  1.4360
 4210TIP3    H234046   3.211   2.767  13.539  1.0101  2.8709 -0.4098
 4211TIP3   OH234047   6.040   3.841   3.680 -0.2132  0.8474 -0.0149
 4211TIP3    H134048   6.088   3.758   3.688  0.6274  1.1244 -1.6185
 4211TIP3    H234049   6.107   3.909   3.685 -0.6048  1.3150 -0.8139
 4212TIP3   OH234050   2.943   3.924   2.685 -0.1588 -0.2536  0.2059
 4212TIP3    H134051   2.863   3.874   2.703 -0.2498 -0.4525 -0.7096
 4212TIP3    H234052   2.924   4.012   2.715 -1.0532 -0.0869 -0.8106
 4213TIP3   OH234053   4.856   6.771   2.141 -0.7457 -0.2218 -0.1991
 4213TIP3    H134054   4.775   6.762   2.091 -0.3313  0.8204 -1.0945
 4213TIP3    H234055   4.827   6.774   2.233 -1.6096 -0.9968 -0.4271
 4214TIP3   OH234056   5.252   6.792   1.976  0.1610  0.0966  0.0959
 4214TIP3    H134057   5.347   6.803   1.988  0.0183  0.8868  0.6249
 4214TIP3    H234058   5.243   6.754   1.889  0.9630  0.1115 -0.0051
 4215TIP3   OH234059   2.345   0.287  15.193  0.0260 -0.5107 -0.0800
 4215TIP3    H134060   2.290   0.325  15.262  0.4121  0.6066 -0.3521
 4215TIP3    H234061   2.374   0.363  15.142  3.4796 -0.7252  1.2435
 4216TIP3   OH234062   4.624   2.891   3.975 -0.1421 -0.1564  0.1799
 4216TIP3    H134063   4.667   2.828   4.032  1.0125  0.3782 -0.0703
 4216TIP3    H234064   4.601   2.964   4.032  0.9027  0.3255  0.0017
 4217TIP3   OH234065   1.184   2.807  11.463 -0.7646  0.0925  0.5431
 4217TIP3    H134066   1.135   2.868  11.519  1.8361  0.7413  2.2785
 4217TIP3    H234067   1.220   2.742  11.523  0.3996 -0.4124 -0.6537
 4218TIP3   OH234068   0.605   2.523  15.315 -0.2254 -0.6228 -0.5231
 4218TIP3    H134069   0.655   2.538  15.234  0.6115 -1.6727 -0.2163
 4218TIP3    H234070   0.665   2.476  15.372 -0.9155 -0.1682  0.6154
 4219TIP3   OH234071   0.683   2.369  16.193  0.0103 -0.3341 -0.2912
 4219TIP3    H134072   0.634   2.397  16.116 -0.7455 -1.1396 -0.1214
 4219TIP3    H234073   0.729   2.448  16.222 -2.6717  1.0046  0.6756
 4220TIP3   OH234074   4.152   5.802  14.369 -0.3764 -0.0088  0.0638
 4220TIP3    H134075   4.178   5.746  14.443  0.6198 -0.5634 -0.6769
 4220TIP3    H234076   4.225   5.863  14.360 -0.0069 -0.5835 -1.0726
 4221TIP3   OH234077   3.468   3.582   5.424 -0.2844  0.0886  0.4888
 4221TIP3    H134078   3.374   3.568   5.411 -0.5493  0.2249  2.0475
 4221TIP3    H234079   3.504   3.494   5.434 -0.0881 -0.0131 -0.9294
 4222TIP3   OH234080   0.190   2.382  14.421 -0.4993  0.9612  0.4205
 4222TIP3    H134081   0.153   2.300  14.390  1.1626  1.3167 -2.9823
 4222TIP3    H234082   0.283   2.365  14.431 -0.1721  2.3084 -0.0205
 4223TIP3   OH234083   5.943   3.497   5.722  0.0844 -0.5036  0.0706
 4223TIP3    H134084   6.005   3.440   5.766  1.0482  0.7394  0.3806
 4223TIP3    H234085   5.859   3.478   5.763  0.9192  0.4625  2.3605
 4224TIP3   OH234086   4.139   6.003   5.830  0.4036  0.2885 -0.4186
 4224TIP3    H134087   4.106   5.914   5.821 -0.2648  0.5439 -0.5668
 4224TIP3    H234088   4.233   5.996   5.812 -0.0057 -0.0435 -2.7949
 4225TIP3   OH234089   3.424   0.420   4.899 -0.0608  0.6599 -0.2992
 4225TIP3    H134090   3.447   0.512   4.911  2.9876 -0.0614  0.0093
 4225TIP3    H234091   3.454   0.376   4.978 -2.4356 -0.5236  0.0402
 4226TIP3   OH234092   3.236   4.424   1.513 -0.4912  0.6762 -0.0691
 4226TIP3    H134093   3.278   4.378   1.440  1.2982 -0.0190  1.3111
 4226TIP3    H234094   3.162   4.469   1.474 -0.6162 -1.0644 -2.0050
 4227TIP3   OH234095   3.958   0.192   5.464 -0.0447  0.6525 -0.1074
 4227TIP3    H134096   4.052   0.179   5.473 -0.3563 -0.2717  2.7923
 4227TIP3    H234097   3.920   0.105   5.479 -1.4454  1.5948  2.4193
 4228TIP3   OH234098   2.782   4.056  15.139 -0.0657 -0.2269 -0.6420
 4228TIP3    H134099   2.753   4.065  15.230 -0.3402 -1.6665 -0.5534
 4228TIP3    H234100   2.878   4.058  15.144 -0.0548 -1.0527 -0.1954
 4229TIP3   OH234101   5.290   0.971   5.138 -0.0301 -0.6663  0.1960
 4229TIP3    H134102   5.275   1.019   5.219  1.3358  0.5862 -0.2499
 4229TIP3    H234103   5.207   0.974   5.092 -0.3011  0.2056  0.7253
 4230TIP3   OH234104   0.923   0.818   3.733 -0.2716  0.2116 -0.1675
 4230TIP3    H134105   0.882   0.887   3.681 -1.0750  0.5863  0.9415
 4230TIP3    H234106   0.866   0.742   3.719  0.1557 -0.0130 -0.7329
 4231TIP3   OH234107   0.654   5.743  11.354  0.4022  0.0703 -0.0034
 4231TIP3    H134108   0.599   5.778  11.424  0.6490 -0.0704  0.2633
 4231TIP3    H234109   0.600   5.676  11.311 -0.4123  1.3985 -1.1114
 4232TIP3   OH234110   2.960   4.227   3.318 -0.3360  0.0674 -0.3870
 4232TIP3    H134111   2.946   4.277   3.238  2.3015  0.5489 -0.6370
 4232TIP3    H234112   3.030   4.274   3.364 -1.3886 -0.4940  1.9673
 4233TIP3   OH234113   6.516   1.399   2.097  0.4993  0.8226 -0.2080
 4233TIP3    H134114   6.482   1.442   2.176 -0.6358  1.3682 -0.9563
 4233TIP3    H234115   6.492   1.459   2.026 -0.4378 -0.6639 -1.2014
 4234TIP3   OH234116   6.385   2.815  13.518 -1.0221  0.2755 -0.0557
 4234TIP3    H134117   6.323   2.859  13.576 -0.9848  0.5957 -0.2517
 4234TIP3    H234118   6.357   2.841  13.430 -2.1274 -1.5577 -0.2925
 4235TIP3   OH234119   6.598   3.320  11.676 -0.1000 -0.3329 -0.6121
 4235TIP3    H134120   6.676   3.279  11.637 -1.3891 -2.2377 -1.3206
 4235TIP3    H234121   6.560   3.252  11.731 -1.7624  0.2469 -0.9788
 4236TIP3   OH234122   3.468   4.197  14.566  0.5008 -0.3575  0.1397
 4236TIP3    H134123   3.517   4.125  14.606  1.9424 -0.4938 -1.7085
 4236TIP3    H234124   3.395   4.155  14.521  0.5463 -0.5180  0.2177
 4237TIP3   OH234125   2.598   2.586  11.726  0.1119 -0.5221 -0.4516
 4237TIP3    H134126   2.684   2.587  11.769 -0.4006 -3.1529  0.8111
 4237TIP3    H234127   2.537   2.612  11.795 -0.4409 -2.0583 -0.3401
 4238TIP3   OH234128   6.652   6.269  12.106  0.5086  0.3750 -0.0173
 4238TIP3    H134129   6.713   6.317  12.162  0.4213  0.0835  0.3260
 4238TIP3    H234130   6.613   6.203  12.163  0.9599 -0.4059 -0.5894
 4239TIP3   OH234131   2.804   4.763   4.689  0.6727 -0.1020 -0.4482
 4239TIP3    H134132   2.758   4.679   4.689 -0.8997  0.7124 -0.9379
 4239TIP3    H234133   2.798   4.793   4.780  1.6191 -0.6949 -0.1763
 4240TIP3   OH234134   1.757   4.636   3.990  0.2576 -0.3020  0.7505
 4240TIP3    H134135   1.686   4.575   3.970 -0.5075  0.2960  1.5709
 4240TIP3    H234136   1.728   4.719   3.951  0.4446 -0.0178  1.2150
 4241TIP3   OH234137   1.009   0.391   2.093 -0.5388 -0.0468  0.0446
 4241TIP3    H134138   0.948   0.340   2.039 -0.0573 -0.1971 -0.3693
 4241TIP3    H234139   0.956   0.423   2.166 -0.8736 -1.0759  0.2748
 4242TIP3   OH234140   2.732   0.116  12.515  1.1895  0.2739  0.9963
 4242TIP3    H134141   2.678   0.039  12.527  0.2749  0.6649 -0.3714
 4242TIP3    H234142   2.714   0.171  12.591  0.5432 -0.1176  1.1242
 4243TIP3   OH234143   1.634   2.731   1.946  0.0308  0.3062  0.0955
 4243TIP3    H134144   1.634   2.641   1.981 -1.5693 -0.4811 -1.7567
 4243TIP3    H234145   1.723   2.743   1.913  0.4291 -0.3904  0.8645
 4244TIP3   OH234146   1.893   6.695   3.364  0.2767  0.4461 -0.3247
 4244TIP3    H134147   1.852   6.623   3.412  0.2935 -0.1852 -1.2319
 4244TIP3    H234148   1.841   6.772   3.387  0.1417  0.1172  0.5079
 4245TIP3   OH234149   4.987   3.431  14.746  0.3043  0.4948  0.5825
 4245TIP3    H134150   4.930   3.505  14.765  1.1927  1.5137 -0.5498
 4245TIP3    H234151   5.043   3.424  14.823  2.3607  3.1167 -0.5277
 4246TIP3   OH234152   6.649   6.432   4.230 -0.0957  0.2537 -0.0660
 4246TIP3    H134153   6.585   6.472   4.288  0.9160 -0.3489  1.5331
 4246TIP3    H234154   6.646   6.339   4.251  0.4891  0.0666 -0.7703
 4247TIP3   OH234155   3.933   3.833   5.255  0.1836  0.4222  0.6575
 4247TIP3    H134156   3.856   3.818   5.311  1.4796 -1.5183  2.0451
 4247TIP3    H234157   3.907   3.798   5.170 -0.6411  0.2128  0.9777
 4248TIP3   OH234158   5.197   1.545  11.902 -0.1354  0.4959 -0.3864
 4248TIP3    H134159   5.245   1.624  11.928  1.3918 -0.2337 -0.8995
 4248TIP3    H234160   5.220   1.480  11.969  0.1134 -0.0479 -0.9955
 4249TIP3   OH234161   5.462   0.246   6.410 -0.5348 -0.0265 -0.2347
 4249TIP3    H134162   5.475   0.340   6.394 -1.0425 -0.0783 -0.9780
 4249TIP3    H234163   5.367   0.234   6.402 -0.4637 -0.6167 -0.1839
 4250TIP3   OH234164   3.993   1.295  15.233 -0.2447  0.5608  0.1636
 4250TIP3    H134165   4.087   1.284  15.225 -0.0049  1.1965  1.7530
 4250TIP3    H234166   3.977   1.298  15.327 -1.8492  0.5258 -0.0765
 4251TIP3   OH234167   6.703   3.714   2.897  0.1673 -0.3805  0.3525
 4251TIP3    H134168   6.736   3.695   2.985 -1.9704  0.8495  1.5225
 4251TIP3    H234169   6.779   3.748   2.850  1.4586 -1.4504  1.5822
 4252TIP3   OH234170   3.710   2.930  15.090 -0.3306  0.2634  0.3574
 4252TIP3    H134171   3.719   2.969  15.003  1.4143  0.5194  0.6207
 4252TIP3    H234172   3.615   2.919  15.102 -0.5824 -1.7766 -2.4615
 4253TIP3   OH234173   5.204   5.951  10.951  0.3905 -0.4187 -0.0283
 4253TIP3    H134174   5.234   5.902  10.875 -0.6309 -2.0188  0.5498
 4253TIP3    H234175   5.128   6.000  10.920  0.5603 -0.3031 -0.2611
 4254TIP3   OH234176   4.263   0.471  16.375 -0.0329 -0.3925 -0.8185
 4254TIP3    H134177   4.246   0.531  16.448 -0.6729  0.2414 -1.4770
 4254TIP3    H234178   4.176   0.447  16.343  0.2436 -0.4055 -1.5787
 4255TIP3   OH234179   6.606   1.864   4.950 -0.3901  0.0680  0.3691
 4255TIP3    H134180   6.684   1.837   4.998 -0.3015 -0.9316 -0.3053
 4255TIP3    H234181   6.575   1.784   4.908 -0.9155  0.7634 -0.5953
 4256TIP3   OH234182   1.629   4.517  13.891  0.3269 -0.1665 -0.0134
 4256TIP3    H134183   1.715   4.482  13.915  1.6635  1.1255 -2.5779
 4256TIP3    H234184   1.647   4.602  13.853 -2.2731  0.7202  0.5279
 4257TIP3   OH234185   3.790   5.072   5.724  0.3872 -0.0859  0.0276
 4257TIP3    H134186   3.710   5.089   5.773  0.1833  0.2131 -0.3970
 4257TIP3    H234187   3.761   5.066   5.633  0.9339  0.7603 -0.2239
 4258TIP3   OH234188   3.898   6.802   0.480 -0.4702  0.1678 -0.1673
 4258TIP3    H134189   3.916   6.870   0.544 -0.1740  0.7633 -0.8723
 4258TIP3    H234190   3.968   6.810   0.416  0.6793 -2.0494  0.7225
 4259TIP3   OH234191   2.517   0.961  14.312  0.3377  0.1286  0.2232
 4259TIP3    H134192   2.447   0.967  14.377  1.2560 -0.6344  1.3245
 4259TIP3    H234193   2.486   1.015  14.238 -1.6545 -0.6655  0.4119
 4260TIP3   OH234194   1.858   5.455  12.348 -0.1178  0.0538  0.3965
 4260TIP3    H134195   1.847   5.426  12.258  0.0782  2.2733 -0.3871
 4260TIP3    H234196   1.951   5.477  12.355  0.4418 -2.3017  1.9019
 4261TIP3   OH234197   4.582   5.161  11.815 -0.0160 -0.5275 -0.6235
 4261TIP3    H134198   4.617   5.250  11.816 -0.6868 -0.2399  0.5426
 4261TIP3    H234199   4.658   5.104  11.814  0.4185  0.0525 -1.6771
 4262TIP3   OH234200   5.349   2.332  15.826  0.2654 -0.1137 -0.3278
 4262TIP3    H134201   5.327   2.370  15.912 -1.3525 -0.0851 -0.7228
 4262TIP3    H234202   5.326   2.240  15.834  0.9803 -0.3143 -0.4634
 4263TIP3   OH234203   0.209   4.597   1.067 -0.2887 -0.4786  0.1431
 4263TIP3    H134204   0.155   4.642   1.132  0.1676  0.3048 -0.0087
 4263TIP3    H234205   0.293   4.642   1.070  0.5488 -1.9973  0.7246
 4264TIP3   OH234206   1.425   2.313   5.934 -0.2254  0.4126 -0.2401
 4264TIP3    H134207   1.490   2.354   5.990 -1.4079 -0.3608  1.7937
 4264TIP3    H234208   1.356   2.378   5.925 -0.1709  0.4268 -0.5718
 4265TIP3   OH234209   0.551   5.434  12.824 -0.2562 -0.3661 -0.1604
 4265TIP3    H134210   0.639   5.457  12.794 -0.2829 -1.5497 -1.2039
 4265TIP3    H234211   0.534   5.495  12.895  0.7399  1.0112 -1.0484
 4266TIP3   OH234212   5.974   1.588  16.789  0.5491  0.0122 -0.4391
 4266TIP3    H134213   5.914   1.661  16.777  0.4213  0.3907  2.0048
 4266TIP3    H234214   6.061   1.627  16.781  0.4827  0.4892  0.8916
 4267TIP3   OH234215   3.707   2.816   3.194  0.4340 -0.3695 -0.2743
 4267TIP3    H134216   3.801   2.805   3.187  0.3387 -1.2466 -0.2634
 4267TIP3    H234217   3.670   2.737   3.155 -0.2474 -1.2247  1.9272
 4268TIP3   OH234218   5.069   1.673  10.981  0.8375  0.4966  0.3128
 4268TIP3    H134219   5.057   1.761  11.017  0.2060  0.6133 -0.1786
 4268TIP3    H234220   5.130   1.631  11.042  0.0872  0.8189  1.3007
 4269TIP3   OH234221   5.429   6.483  12.548 -0.0982 -0.0019  0.3352
 4269TIP3    H134222   5.383   6.466  12.630 -0.9412  0.2668 -0.0627
 4269TIP3    H234223   5.405   6.573  12.525  0.1024 -0.0825 -0.2115
 4270TIP3   OH234224   6.380   4.967  12.041 -0.5163  0.4997 -0.0833
 4270TIP3    H134225   6.292   5.003  12.033 -0.9019 -0.2350  0.7684
 4270TIP3    H234226   6.402   4.977  12.133  0.1722  0.4012 -0.2345
 4271TIP3   OH234227   6.129   4.839  16.417  0.0529  0.2066  1.1052
 4271TIP3    H134228   6.199   4.775  16.423 -0.1834 -0.1368  0.3563
 4271TIP3    H234229   6.050   4.787  16.403 -0.2359  0.6281  1.1579
 4272TIP3   OH234230   0.427   4.982  14.622  0.0637 -0.0879  0.6705
 4272TIP3    H134231   0.431   4.908  14.562 -0.4877 -0.7962  1.4954
 4272TIP3    H234232   0.370   4.954  14.692 -2.6046  2.1478 -0.4103
 4273TIP3   OH234233   1.021   2.689  15.815 -0.1017 -0.0483 -0.0872
 4273TIP3    H134234   1.012   2.777  15.779 -2.0071 -0.5025 -0.8339
 4273TIP3    H234235   1.057   2.703  15.903 -1.1132  1.5657  0.1168
 4274TIP3   OH234236   1.074   3.865   1.013  0.3140  0.1151 -0.2427
 4274TIP3    H134237   1.065   3.952   1.051  0.4239 -0.2096  0.5527
 4274TIP3    H234238   1.164   3.861   0.981  0.1062  0.5263 -0.9072
 4275TIP3   OH234239   1.237   5.995  12.656 -0.0505  0.2714 -0.3071
 4275TIP3    H134240   1.294   6.036  12.721 -1.4071  0.7136  0.6387
 4275TIP3    H234241   1.279   6.015  12.572  3.1291 -2.4143  0.4194
 4276TIP3   OH234242   3.318   2.023  10.879  0.0762 -0.5682  0.2915
 4276TIP3    H134243   3.246   2.074  10.915  0.3112 -1.4228  2.1142
 4276TIP3    H234244   3.389   2.087  10.865 -0.2912 -0.0868  0.6105
 4277TIP3   OH234245   4.396   5.000  14.419  0.1339 -0.2020  0.3402
 4277TIP3    H134246   4.327   4.937  14.442 -1.0723  1.2606  0.9165
 4277TIP3    H234247   4.404   4.992  14.324 -0.7541 -0.4994  0.2735
 4278TIP3   OH234248   0.686   2.486  11.563 -0.2008 -0.3472 -0.6783
 4278TIP3    H134249   0.666   2.546  11.634 -0.4884  0.6691 -1.5798
 4278TIP3    H234250   0.666   2.399  11.598 -0.5157  0.1476  0.4046
 4279TIP3   OH234251   3.871   6.754   2.385 -0.0315 -0.3115 -0.1606
 4279TIP3    H134252   3.924   6.797   2.452  0.0564 -0.2893 -0.2445
 4279TIP3    H234253   3.864   6.664   2.415  2.4293 -1.0553 -1.5367
 4280TIP3   OH234254   1.759   0.937   6.290 -0.0569  0.1223  0.2894
 4280TIP3    H134255   1.739   1.011   6.347 -0.6998  0.7539 -0.7146
 4280TIP3    H234256   1.786   0.977   6.207  1.4915 -0.7700  0.3384
 4281TIP3   OH234257   6.762   0.889   1.822 -0.4804 -0.2043 -0.0104
 4281TIP3    H134258   6.758   0.794   1.815  2.3566 -0.3849 -0.5104
 4281TIP3    H234259   6.708   0.921   1.750 -0.5613 -1.4379 -0.5230
 4282TIP3   OH234260   3.902   5.510  13.858 -0.1346 -0.0596 -0.2663
 4282TIP3    H134261   3.908   5.415  13.846  0.9265 -0.0591  0.0827
 4282TIP3    H234262   3.966   5.545  13.796  4.0946  0.0480  3.5479
 4283TIP3   OH234263   2.712   1.449   1.669  0.1607  0.1202 -0.3940
 4283TIP3    H134264   2.652   1.509   1.627  1.1436  0.9901 -0.6065
 4283TIP3    H234265   2.679   1.362   1.648 -0.3709  0.5662 -1.4406
 4284TIP3   OH234266   2.072   5.472   1.204 -0.0482  0.2593 -0.1196
 4284TIP3    H134267   2.012   5.400   1.221  0.9175 -0.4831  0.2713
 4284TIP3    H234268   2.159   5.431   1.206  0.7511  1.8133  2.6804
 4285TIP3   OH234269   0.874   0.355  16.613  0.5343 -0.8535 -0.0337
 4285TIP3    H134270   0.838   0.286  16.557  1.0831 -0.0791 -1.3968
 4285TIP3    H234271   0.805   0.421  16.619  0.3453 -1.0940  0.5155
 4286TIP3   OH234272   4.654   6.658   5.062  0.1655 -0.5343  0.2334
 4286TIP3    H134273   4.721   6.590   5.056  2.1911  1.1182  2.2846
 4286TIP3    H234274   4.655   6.701   4.977  0.4688 -1.6008 -0.3202
 4287TIP3   OH234275   6.026   0.426   2.689 -0.4535 -0.0270  0.0862
 4287TIP3    H134276   6.019   0.520   2.673 -0.1692 -0.1180 -0.6234
 4287TIP3    H234277   5.944   0.389   2.655 -1.2948  0.1300  1.8468
 4288TIP3   OH234278   5.903   1.660  14.592 -0.0204 -0.0663  0.0132
 4288TIP3    H134279   5.987   1.669  14.636  0.2143  0.9019 -0.6003
 4288TIP3    H234280   5.917   1.592  14.526  0.9202  1.4838 -1.4773
 4289TIP3   OH234281   2.582   1.635  12.876  0.1229  0.0564 -0.3563
 4289TIP3    H134282   2.560   1.716  12.830 -0.0425 -0.0017 -0.3781
 4289TIP3    H234283   2.669   1.611  12.843 -0.2543 -0.3238 -1.1005
 4290TIP3   OH234284   4.672   5.450   3.803 -0.5394 -0.4051  0.1862
 4290TIP3    H134285   4.602   5.396   3.766 -0.0650 -2.3225  1.9227
 4290TIP3    H234286   4.632   5.492   3.879 -0.1573 -0.4621  0.4192
 4291TIP3   OH234287   4.646   1.181  11.972  0.2612 -0.1326  0.8218
 4291TIP3    H134288   4.582   1.111  11.958  1.2943 -1.1228  0.9449
 4291TIP3    H234289   4.728   1.135  11.992  0.5804  1.1253  2.6344
 4292TIP3   OH234290   3.018   0.512   4.081 -0.3701  0.5506 -0.1187
 4292TIP3    H134291   2.970   0.446   4.132 -0.0541  0.9378  0.6936
 4292TIP3    H234292   2.978   0.508   3.994 -1.6507  0.6236  0.4376
 4293TIP3   OH234293   6.188   0.673   6.321 -0.3274  0.3462  0.2663
 4293TIP3    H134294   6.281   0.648   6.321 -0.5916 -0.6875  0.0178
 4293TIP3    H234295   6.188   0.764   6.351  0.6753  0.0512  1.2226
 4294TIP3   OH234296   3.467   2.667   1.241 -0.1813  0.3470  0.3540
 4294TIP3    H134297   3.404   2.702   1.178 -0.9425 -1.6499 -0.0410
 4294TIP3    H234298   3.526   2.613   1.189 -0.8099 -1.3183  1.2982
 4295TIP3   OH234299   0.837   4.557  16.604  0.0828  0.0765 -0.3519
 4295TIP3    H134300   0.783   4.494  16.652  0.5597 -0.6608 -0.7625
 4295TIP3    H234301   0.918   4.560  16.654  0.8078 -1.1350 -1.3851
 4296TIP3   OH234302   0.445   5.574  13.282  0.3113  0.2059  0.2227
 4296TIP3    H134303   0.480   5.493  13.246  0.6900  0.2869  0.4024
 4296TIP3    H234304   0.522   5.629  13.297  0.3626 -0.3843  2.5769
 4297TIP3   OH234305   4.684   3.773   5.425  0.0727  0.5272 -0.4691
 4297TIP3    H134306   4.653   3.727   5.347  1.1076  0.5534 -0.9008
 4297TIP3    H234307   4.739   3.710   5.471  0.4510  0.9071 -0.3906
 4298TIP3   OH234308   2.657   5.244   1.710 -0.4376 -0.2000 -0.1870
 4298TIP3    H134309   2.670   5.330   1.670  2.1212 -0.0481  0.8082
 4298TIP3    H234310   2.562   5.233   1.711 -0.8941  2.7925 -0.0340
 4299TIP3   OH234311   3.838   3.642  11.058 -0.1692  0.3307  0.6703
 4299TIP3    H134312   3.817   3.553  11.030 -0.6136  0.6779 -0.1163
 4299TIP3    H234313   3.783   3.656  11.136 -0.6448  0.1762  0.3655
 4300TIP3   OH234314   2.786   2.432   1.414 -0.0240  0.5219  0.1680
 4300TIP3    H134315   2.879   2.419   1.430 -0.1652 -0.2919  0.3371
 4300TIP3    H234316   2.782   2.512   1.360  0.9964 -1.0976 -2.4833
 4301TIP3   OH234317   4.970   6.142   0.325  0.5562 -0.2880 -0.1184
 4301TIP3    H134318   5.060   6.148   0.294  0.2336  2.0155 -0.7407
 4301TIP3    H234319   4.916   6.174   0.253 -0.6832 -0.4863  0.6739
 4302TIP3   OH234320   1.481   0.294   0.531  0.5919  0.0835  0.6008
 4302TIP3    H134321   1.412   0.352   0.562 -0.0859 -0.4458  0.1190
 4302TIP3    H234322   1.448   0.259   0.449  2.7742  2.2638 -1.3571
 4303TIP3   OH234323   2.960   2.452   0.221  0.3981 -0.3702 -0.4484
 4303TIP3    H134324   2.956   2.481   0.130  0.2252 -1.0226 -0.6530
 4303TIP3    H234325   2.951   2.357   0.217 -1.8133 -0.2629  0.3828
 4304TIP3   OH234326   3.127   5.293   6.596  0.1611 -0.4777  0.4482
 4304TIP3    H134327   3.183   5.292   6.673  1.1452 -0.3874 -0.2492
 4304TIP3    H234328   3.078   5.375   6.603  1.6990  0.5225 -0.0213
 4305TIP3   OH234329   5.508   6.351  14.213 -0.0993 -0.2349 -0.1322
 4305TIP3    H134330   5.513   6.447  14.213 -0.7913 -0.1934 -0.7806
 4305TIP3    H234331   5.499   6.327  14.121 -0.0658 -0.9226  0.0372
 4306TIP3   OH234332   5.831   0.136  16.922  0.3875 -1.0455  0.0269
 4306TIP3    H134333   5.926   0.121  16.921  0.5000 -0.3520 -0.5123
 4306TIP3    H234334   5.797   0.078  16.853  0.7747  0.7701 -1.7737
 4307TIP3   OH234335   6.634   4.265  14.892 -0.1756 -0.1230 -0.2014
 4307TIP3    H134336   6.708   4.222  14.850 -0.9775 -0.6341 -1.1319
 4307TIP3    H234337   6.624   4.220  14.975  0.4679 -0.1286 -0.1169
 4308TIP3   OH234338   2.954   5.338   3.341  0.4311  0.2152 -0.5099
 4308TIP3    H134339   2.930   5.331   3.433 -0.1958  1.3088 -0.5743
 4308TIP3    H234340   2.907   5.266   3.298 -1.5413  1.3817 -0.3943
 4309TIP3   OH234341   3.300   1.934   3.284  0.0890  0.7195 -0.1781
 4309TIP3    H134342   3.391   1.962   3.277  0.9023 -1.4566  0.7079
 4309TIP3    H234343   3.285   1.882   3.205  0.0086  0.1230  0.2203
 4310TIP3   OH234344   4.862   2.108   3.992  0.2041 -0.3320 -0.1423
 4310TIP3    H134345   4.877   2.014   3.983  0.2646 -0.2858 -0.5180
 4310TIP3    H234346   4.944   2.148   3.964  0.1375 -0.1600 -0.0915
 4311TIP3   OH234347   0.609   1.676   2.491 -0.1315 -0.5052  0.7489
 4311TIP3    H134348   0.696   1.714   2.492 -0.6303  0.8914 -1.6268
 4311TIP3    H234349   0.620   1.593   2.445 -0.0186 -0.4528  0.6819
 4312TIP3   OH234350   5.082   3.705   6.123 -0.5422 -0.0404 -0.2134
 4312TIP3    H134351   5.059   3.745   6.039 -1.0351 -1.3557 -0.7234
 4312TIP3    H234352   5.165   3.660   6.106  0.3133  1.1870  0.5128
 4313TIP3   OH234353   3.221   1.451  12.177  0.0396 -0.4456  0.3258
 4313TIP3    H134354   3.171   1.532  12.182  0.0733 -0.1789 -2.4173
 4313TIP3    H234355   3.256   1.439  12.266 -0.5116  2.1536  0.9704
 4314TIP3   OH234356   2.876   6.493   2.797 -0.6650  0.2254  0.0946
 4314TIP3    H134357   2.834   6.538   2.724  0.5657 -1.9506 -2.0939
 4314TIP3    H234358   2.804   6.453   2.846 -1.3831 -1.7822 -2.4188
 4315TIP3   OH234359   2.955   0.643  12.973 -0.1973  0.4040  0.6473
 4315TIP3    H134360   3.011   0.598  13.036 -1.4293  0.2589  1.6830
 4315TIP3    H234361   2.959   0.735  12.998  0.6268  0.5949 -0.1319
 4316TIP3   OH234362   6.119   4.420  16.445 -0.6448 -0.4513 -0.2396
 4316TIP3    H134363   6.097   4.332  16.474 -0.2623 -0.2457  0.7210
 4316TIP3    H234364   6.081   4.427  16.357 -2.6167 -0.8265  0.5123
 4317TIP3   OH234365   1.357   0.106  12.878 -0.0539  0.5568 -0.5275
 4317TIP3    H134366   1.374   0.195  12.908  0.3673  1.0874 -2.2291
 4317TIP3    H234367   1.385   0.105  12.786 -0.7067 -1.1328 -0.7590
 4318TIP3   OH234368   1.679   0.005   5.061  0.0313 -0.3365 -0.3221
 4318TIP3    H134369   1.627  -0.005   5.141 -0.7065  0.6344 -0.6524
 4318TIP3    H234370   1.618   0.045   4.999  1.3293  1.4324 -0.5487
 4319TIP3   OH234371   5.997   5.741  16.186 -0.1074  0.1636  0.0370
 4319TIP3    H134372   5.921   5.683  16.186  0.4707 -0.6230 -0.8975
 4319TIP3    H234373   5.962   5.827  16.209 -0.9262 -0.6049  1.8621
 4320TIP3   OH234374   4.231   3.424   1.630 -0.4523  0.1501  0.3111
 4320TIP3    H134375   4.325   3.416   1.616 -0.4438  0.8841 -0.0869
 4320TIP3    H234376   4.193   3.356   1.574 -0.1963  0.3756 -0.1465
 4321TIP3   OH234377   3.655   1.875   2.706  0.2560  0.2877  0.3726
 4321TIP3    H134378   3.702   1.954   2.679  0.0657  0.5819  0.8965
 4321TIP3    H234379   3.577   1.907   2.750 -1.0617 -0.1992 -1.4949
 4322TIP3   OH234380   6.029   0.447  15.661  0.0704  0.0409  0.8972
 4322TIP3    H134381   6.103   0.420  15.716  0.5231 -0.2685  0.1497
 4322TIP3    H234382   6.060   0.436  15.572 -0.4268  1.1830  0.5631
 4323TIP3   OH234383   4.098   0.654   2.909  0.0884  0.7280  0.1804
 4323TIP3    H134384   4.129   0.659   2.818 -0.0177  0.4582  0.1296
 4323TIP3    H234385   4.003   0.660   2.902 -0.0276 -0.7571  0.1551
 4324TIP3   OH234386   2.976   2.192   0.097  0.3875  0.5144  0.6104
 4324TIP3    H134387   3.013   2.109   0.065  1.6437  1.6759 -1.1233
 4324TIP3    H234388   2.882   2.181   0.087  0.6123  0.1670 -2.1200
 4325TIP3   OH234389   3.371   3.086   4.443  0.3108 -0.4927  0.1235
 4325TIP3    H134390   3.300   3.075   4.506 -1.5759  2.6704 -1.1915
 4325TIP3    H234391   3.338   3.045   4.363  0.3986  0.0403 -0.1931
 4326TIP3   OH234392   6.395   5.566  14.153  0.3703 -0.1202  0.2373
 4326TIP3    H134393   6.388   5.566  14.248 -1.7471 -0.7909  0.1302
 4326TIP3    H234394   6.478   5.520  14.135 -0.7954 -3.1317  1.7453
 4327TIP3   OH234395   3.239   5.352  15.833 -0.4514  0.0723 -0.3468
 4327TIP3    H134396   3.174   5.392  15.892  0.4717  0.2929  0.5565
 4327TIP3    H234397   3.294   5.425  15.806  2.1151 -0.6494  2.4203
 4328TIP3   OH234398   2.385   0.797   3.918  0.8911  0.3109  0.3739
 4328TIP3    H134399   2.388   0.724   3.980 -1.2352  1.1555  1.6020
 4328TIP3    H234400   2.313   0.774   3.860  0.7853  1.0192  0.2265
 4329TIP3   OH234401   0.611   2.513  15.631  0.3388 -0.0909 -0.0287
 4329TIP3    H134402   0.668   2.554  15.697  0.8760 -0.5084 -0.2262
 4329TIP3    H234403   0.672   2.467  15.573 -0.1000  0.5338 -1.0041
 4330TIP3   OH234404   2.857   0.278   2.131  0.4977  0.5696  0.0450
 4330TIP3    H134405   2.783   0.220   2.119 -1.6161  3.0527  0.1324
 4330TIP3    H234406   2.922   0.248   2.066 -0.7049 -1.4279 -0.3095
 4331TIP3   OH234407   5.473   0.247   4.222 -0.6241  0.3866  0.4083
 4331TIP3    H134408   5.547   0.245   4.162 -1.1529  0.5523 -0.2626
 4331TIP3    H234409   5.435   0.334   4.211 -1.5612 -0.0669 -0.0665
 4332TIP3   OH234410   2.469   5.236   5.814 -0.7514  0.2427 -0.1790
 4332TIP3    H134411   2.548   5.182   5.825 -0.5590  0.8164  1.7235
 4332TIP3    H234412   2.398   5.180   5.845 -1.0757 -0.1580 -1.5894
 4333TIP3   OH234413   0.122   1.230  14.993 -0.2141 -0.3470 -0.7455
 4333TIP3    H134414   0.059   1.178  14.943 -0.0185 -1.6830  0.3231
 4333TIP3    H234415   0.123   1.315  14.950 -1.5605 -0.8020 -1.7474
 4334TIP3   OH234416   0.412   2.847   1.073 -0.3323  0.1958  0.0708
 4334TIP3    H134417   0.360   2.776   1.035 -0.1893  0.4604 -0.6340
 4334TIP3    H234418   0.389   2.923   1.020  0.5677  0.3756 -0.0704
 4335TIP3   OH234419   0.199   4.491   3.413 -0.0170 -0.1567  0.3604
 4335TIP3    H134420   0.274   4.432   3.424 -0.4891 -0.5668  1.5898
 4335TIP3    H234421   0.179   4.520   3.502 -1.3428 -0.0944  0.0623
 4336TIP3   OH234422   4.210   4.954  16.686 -0.1040 -0.0830  0.5644
 4336TIP3    H134423   4.149   5.012  16.640  0.1788 -0.6390 -0.5489
 4336TIP3    H234424   4.256   5.011  16.747 -0.3988  0.7117  0.0652
 4337TIP3   OH234425   4.488   1.199   4.250  0.3081 -0.2900 -0.2732
 4337TIP3    H134426   4.539   1.121   4.229 -0.7414 -0.9960 -0.2610
 4337TIP3    H234427   4.500   1.257   4.175  1.0867 -0.4443 -0.2826
 4338TIP3   OH234428   4.755   1.303  16.113  0.1135  0.3309  0.6827
 4338TIP3    H134429   4.819   1.235  16.088 -0.9175  0.0193 -1.3234
 4338TIP3    H234430   4.671   1.267  16.086 -0.6383  1.7201  1.1207
 4339TIP3   OH234431   1.974   6.770   4.354  0.3747  0.4270 -0.0738
 4339TIP3    H134432   2.062   6.806   4.356  0.5787 -0.0913  1.1991
 4339TIP3    H234433   1.954   6.749   4.445 -0.6791 -0.3950 -0.4657
 4340TIP3   OH234434   1.369   0.261   1.001  0.8027  0.6540  0.3741
 4340TIP3    H134435   1.381   0.200   0.928  0.1026  1.6499 -0.6234
 4340TIP3    H234436   1.310   0.216   1.061 -1.6328  1.1939 -1.4752
 4341TIP3   OH234437   1.277   4.078  13.859  0.0307  0.5168  0.6289
 4341TIP3    H134438   1.349   4.061  13.799 -0.7628 -2.1932  0.3169
 4341TIP3    H234439   1.202   4.099  13.803 -0.5937 -1.5593  0.5940
 4342TIP3   OH234440   6.049   6.061  12.140 -0.0461 -0.0809  0.2599
 4342TIP3    H134441   5.973   6.028  12.188  0.6295 -1.0779  0.6856
 4342TIP3    H234442   6.112   6.086  12.208 -0.5391  2.1855 -0.0515
 4343TIP3   OH234443   4.244   5.175   3.722  0.6077  0.2426  0.7746
 4343TIP3    H134444   4.226   5.259   3.763  1.0249  0.9553 -0.4753
 4343TIP3    H234445   4.192   5.175   3.642  2.2123  0.2088 -0.3128
 4344TIP3   OH234446   1.836   5.502  17.133 -0.0079  0.5363 -0.0834
 4344TIP3    H134447   1.807   5.498  17.224 -0.9123 -0.6949 -0.4033
 4344TIP3    H234448   1.769   5.455  17.084  1.0655  0.1394 -1.2317
 4345TIP3   OH234449   6.531   4.899  14.126  0.1533  0.2652  0.3219
 4345TIP3    H134450   6.501   4.988  14.106  2.1293  0.5873 -1.5173
 4345TIP3    H234451   6.611   4.911  14.176  0.6055 -0.4838 -0.2079
 4346TIP3   OH234452   1.904   2.497  12.516  0.1801  0.0072  0.1144
 4346TIP3    H134453   1.900   2.503  12.612  0.8133  2.1332  0.0627
 4346TIP3    H234454   1.843   2.427  12.493 -1.5797  0.8598  1.9396
 4347TIP3   OH234455   1.741   2.294  12.465  0.2871  0.1912 -0.0672
 4347TIP3    H134456   1.667   2.251  12.508  0.9510 -0.5482  0.3551
 4347TIP3    H234457   1.729   2.276  12.372 -0.7448  1.1532 -0.1327
 4348TIP3   OH234458   3.829   4.391  17.100 -0.0685  0.0308  0.4931
 4348TIP3    H134459   3.769   4.460  17.130 -0.6798 -0.0324 -0.5123
 4348TIP3    H234460   3.915   4.432  17.102 -0.5508  1.2828 -1.2060
 4349TIP3   OH234461   5.769   1.740   0.798 -0.1817 -0.3645  0.0101
 4349TIP3    H134462   5.857   1.713   0.827  0.7914  0.0638 -2.3184
 4349TIP3    H234463   5.780   1.832   0.771 -1.6414  0.0495  0.7422
 4350TIP3   OH234464   2.621   6.006  15.300  0.7021  0.0408  0.2795
 4350TIP3    H134465   2.571   5.929  15.274  1.4134 -0.1529 -0.5523
 4350TIP3    H234466   2.557   6.064  15.339 -0.1340 -0.3020 -0.5512
 4351TIP3   OH234467   5.110   2.452  12.825 -0.3375 -0.2596  0.5199
 4351TIP3    H134468   5.154   2.505  12.891  0.9458  0.3611 -0.7709
 4351TIP3    H234469   5.057   2.514  12.776 -0.0693 -0.4291  0.0058
 4352TIP3   OH234470   3.074   0.708  13.532 -0.8629 -0.0251  0.1849
 4352TIP3    H134471   3.137   0.776  13.557 -1.3200  0.5563 -0.2122
 4352TIP3    H234472   3.116   0.626  13.559  0.2596  0.3151 -0.4448
 4353TIP3   OH234473   5.945   2.625  11.616 -0.0902 -0.4552  0.0270
 4353TIP3    H134474   5.993   2.599  11.537  1.9440  0.8949  0.7356
 4353TIP3    H234475   5.935   2.719  11.609 -0.2935 -0.3724  1.1724
 4354TIP3   OH234476   2.086   3.207   3.228 -0.0162  0.3091 -0.0781
 4354TIP3    H134477   2.125   3.294   3.227  0.1152  0.2488 -0.0943
 4354TIP3    H234478   1.996   3.222   3.199  0.4779  0.1954 -1.7539
 4355TIP3   OH234479   3.897   3.305  14.558 -0.1252 -0.0237 -0.1972
 4355TIP3    H134480   3.838   3.375  14.530 -1.9394 -1.0059  0.9890
 4355TIP3    H234481   3.917   3.257  14.478 -0.3278  0.7644 -0.7328
 4356TIP3   OH234482   5.886   0.435  15.166 -0.9623  0.0186 -0.0053
 4356TIP3    H134483   5.813   0.399  15.116 -0.6960  1.1963 -1.3081
 4356TIP3    H234484   5.892   0.526  15.137  1.2079 -0.1174 -0.1509
 4357TIP3   OH234485   1.503   0.890   0.935  0.0892 -0.5069  0.3313
 4357TIP3    H134486   1.409   0.885   0.955 -0.2399 -0.6549 -1.1063
 4357TIP3    H234487   1.544   0.826   0.993 -0.3385  1.3319  2.8062
 4358TIP3   OH234488   2.807   1.489   2.107 -0.1192 -0.0143 -0.0490
 4358TIP3    H134489   2.877   1.552   2.089 -0.9510  1.0825  0.4484
 4358TIP3    H234490   2.803   1.485   2.202  1.3751 -2.5215 -0.0032
 4359TIP3   OH234491   3.117   2.909  12.133  0.5304  0.2642 -0.2645
 4359TIP3    H134492   3.137   2.830  12.183 -0.1563 -0.7738 -1.5778
 4359TIP3    H234493   3.168   2.901  12.053  1.7591  2.0002  0.2667
 4360TIP3   OH234494   0.101   2.530   3.267 -0.0811 -0.0138  0.0725
 4360TIP3    H134495   0.031   2.581   3.307 -0.4743 -0.4381 -0.0700
 4360TIP3    H234496   0.059   2.482   3.196  0.3514 -0.2806 -0.0078
 4361TIP3   OH234497   4.623   4.422   3.103 -0.3263  0.0537 -0.4028
 4361TIP3    H134498   4.653   4.501   3.147  5.0847 -0.7554 -1.8210
 4361TIP3    H234499   4.635   4.352   3.168  0.4180 -0.2059 -0.7986
 4362TIP3   OH234500   3.584   3.612  11.683  0.4048 -0.3648 -0.6672
 4362TIP3    H134501   3.626   3.686  11.639  1.8969  0.3054  1.7116
 4362TIP3    H234502   3.567   3.643  11.771 -2.0886 -1.7862 -0.5501
 4363TIP3   OH234503   6.350   1.697   1.732  0.0304 -0.2325 -0.1332
 4363TIP3    H134504   6.322   1.611   1.700 -0.4530 -0.3565  0.6025
 4363TIP3    H234505   6.393   1.737   1.656  0.2257 -1.0986 -0.5017
 4364TIP3   OH234506   1.611   3.312   0.165 -0.4879 -0.1935 -0.1677
 4364TIP3    H134507   1.587   3.390   0.115 -0.0040  0.4531  0.5829
 4364TIP3    H234508   1.703   3.297   0.142 -0.9191 -1.2902 -1.2623
 4365TIP3   OH234509   3.251   4.060  14.509  0.9876 -0.2610 -0.4574
 4365TIP3    H134510   3.156   4.051  14.493  1.2268  0.1586 -2.4137
 4365TIP3    H234511   3.281   3.970  14.520  0.5753 -0.5490 -1.4921
 4366TIP3   OH234512   3.474   2.965  11.347  0.0050  0.0349  0.3075
 4366TIP3    H134513   3.423   3.029  11.297  2.6514  0.2907 -2.3654
 4366TIP3    H234514   3.562   3.001  11.348  0.8262 -1.8557  1.9734
 4367TIP3   OH234515   0.964   0.262   5.891  0.1118  0.0430  0.2062
 4367TIP3    H134516   0.927   0.350   5.902  1.4584  0.6985 -0.3018
 4367TIP3    H234517   0.927   0.211   5.963 -0.8122  0.9842  0.4222
 4368TIP3   OH234518   1.740   5.334  13.565 -0.1852  0.1228 -0.4523
 4368TIP3    H134519   1.701   5.412  13.605 -1.3933 -0.1765 -0.9908
 4368TIP3    H234520   1.699   5.328  13.479 -0.1445 -1.1198 -0.4068
 4369TIP3   OH234521   4.045   4.339   1.306  0.2160 -0.3762  0.6914
 4369TIP3    H134522   4.053   4.412   1.245  0.7679 -0.7539  0.3071
 4369TIP3    H234523   3.960   4.300   1.287 -0.2560  0.4000  1.1636
 4370TIP3   OH234524   5.434   3.418  10.666 -0.7044  0.2946 -0.1334
 4370TIP3    H134525   5.516   3.373  10.684 -0.4303  0.7793 -0.1373
 4370TIP3    H234526   5.372   3.348  10.646 -0.4753 -0.1203  0.5608
 4371TIP3   OH234527   1.004   4.163   4.104 -0.4940  0.2250 -0.0621
 4371TIP3    H134528   1.007   4.198   4.193 -0.6845  1.9064 -0.6716
 4371TIP3    H234529   0.937   4.095   4.107 -1.3375  1.0635  0.8334
 4372TIP3   OH234530   3.609   3.515  16.444 -0.2297  0.1146 -0.1462
 4372TIP3    H134531   3.594   3.422  16.427  2.0286 -0.5491  1.1023
 4372TIP3    H234532   3.618   3.521  16.539  2.5525  1.0571 -0.3839
 4373TIP3   OH234533   6.073   1.612   1.282 -0.2695 -0.3753 -0.0527
 4373TIP3    H134534   6.021   1.692   1.292 -2.4742 -1.6712 -0.4688
 4373TIP3    H234535   6.011   1.541   1.298  1.0028 -2.0697 -2.0781
 4374TIP3   OH234536   3.361   1.432  15.762 -1.0127 -0.5623 -0.8212
 4374TIP3    H134537   3.287   1.485  15.793 -2.1423 -1.6494 -1.5572
 4374TIP3    H234538   3.424   1.497  15.728 -2.5019  0.3271 -2.0248
 4375TIP3   OH234539   1.486   3.249  12.370  0.3252 -0.1317 -0.0296
 4375TIP3    H134540   1.523   3.269  12.456  2.0560 -0.6485 -0.6235
 4375TIP3    H234541   1.467   3.335  12.332 -1.5995  0.0878  1.2996
 4376TIP3   OH234542   1.628   2.552  14.851  0.0167  0.5687 -0.1548
 4376TIP3    H134543   1.702   2.521  14.800 -1.3591  0.6241 -2.3203
 4376TIP3    H234544   1.554   2.498  14.822 -0.6246 -0.3266  2.8036
 4377TIP3   OH234545   1.715   4.132  11.262 -0.1666  0.0108 -0.0083
 4377TIP3    H134546   1.682   4.042  11.266  0.4120 -0.1754  2.4424
 4377TIP3    H234547   1.637   4.186  11.252 -0.6476 -0.7057 -0.2079
 4378TIP3   OH234548   6.415   0.003   0.519  0.5958 -0.3976  0.1400
 4378TIP3    H134549   6.335  -0.005   0.571  0.1754 -3.5162 -0.7766
 4378TIP3    H234550   6.387  -0.014   0.430  2.0345  0.2368 -0.4594
 4379TIP3   OH234551   0.213   3.806  13.775 -0.3115  0.2128 -0.0856
 4379TIP3    H134552   0.135   3.845  13.814  0.1615  1.3651 -0.2412
 4379TIP3    H234553   0.284   3.834  13.832  0.6204  3.2197 -2.4374
 4380TIP3   OH234554   3.695   4.747   2.029  0.9611  0.0213  0.5665
 4380TIP3    H134555   3.768   4.689   2.052  1.0248  0.3105  1.1154
 4380TIP3    H234556   3.717   4.781   1.943 -0.4043 -2.9521 -1.1371
 4381TIP3   OH234557   2.865   3.458  12.792 -0.1523 -0.4800  0.2266
 4381TIP3    H134558   2.945   3.455  12.844 -0.5113 -0.5924  0.7827
 4381TIP3    H234559   2.867   3.378  12.740  0.8664  0.2725 -0.9435
 4382TIP3   OH234560   3.587   4.154  11.696 -0.5913  0.6985 -0.2306
 4382TIP3    H134561   3.553   4.101  11.768 -2.2572  0.0569 -1.4370
 4382TIP3    H234562   3.672   4.116  11.677 -1.8718 -1.8792 -1.2995
 4383TIP3   OH234563   1.048   3.203  13.023 -0.0218  0.4269 -0.4535
 4383TIP3    H134564   1.072   3.274  13.083 -0.0212  0.6349 -0.7000
 4383TIP3    H234565   1.130   3.180  12.979 -0.2320  1.0153 -1.1673
 4384TIP3   OH234566   4.657   5.297  15.687 -0.2118  0.2350 -0.4434
 4384TIP3    H134567   4.699   5.222  15.729  0.2474  0.6090 -0.2350
 4384TIP3    H234568   4.587   5.258  15.634  0.3583 -0.3926 -0.7555
 4385TIP3   OH234569   1.214   4.335   1.952 -0.0347 -0.1573  0.6798
 4385TIP3    H134570   1.184   4.373   1.869  0.5012 -1.2906 -0.0525
 4385TIP3    H234571   1.282   4.273   1.927 -0.6276 -1.3308  1.8598
 4386TIP3   OH234572   3.681   3.697  15.661 -0.1617  0.9133  0.2518
 4386TIP3    H134573   3.745   3.645  15.710 -0.1028  2.3889  1.8756
 4386TIP3    H234574   3.601   3.645  15.664  0.7234 -0.6406 -1.2126
 4387TIP3   OH234575   3.450   6.417   3.908  0.3632  0.3095  0.2180
 4387TIP3    H134576   3.411   6.342   3.861  0.3308  1.3408 -1.4967
 4387TIP3    H234577   3.376   6.476   3.923  0.4374  0.1371  1.3150
 4388TIP3   OH234578   4.608   6.137   4.835 -0.0521  0.3689  0.2630
 4388TIP3    H134579   4.702   6.121   4.830 -0.0699  0.2246  0.3663
 4388TIP3    H234580   4.599   6.232   4.826  0.2176  0.5552  1.7074
 4389TIP3   OH234581   5.874   0.384   0.897 -0.1877 -0.1895  0.0406
 4389TIP3    H134582   5.878   0.463   0.843  0.1994  0.1177  0.5077
 4389TIP3    H234583   5.813   0.326   0.851 -0.5448  0.4154 -0.2613
 4390TIP3   OH234584   5.870   1.806   4.223 -0.7281 -0.3562 -0.0465
 4390TIP3    H134585   5.792   1.849   4.258 -0.9900 -1.7573  1.1831
 4390TIP3    H234586   5.836   1.728   4.179 -0.1777  0.1305 -1.3767
 4391TIP3   OH234587   3.676   0.482  12.913 -0.4452 -0.0820  0.2981
 4391TIP3    H134588   3.762   0.495  12.954 -0.5970  0.4931  0.4510
 4391TIP3    H234589   3.626   0.559  12.939 -0.3358  0.6527 -1.5159
 4392TIP3   OH234590   5.152   1.977   0.192  0.0632  0.3142 -0.4425
 4392TIP3    H134591   5.158   1.882   0.192 -0.4792  0.2761 -1.0591
 4392TIP3    H234592   5.122   2.000   0.104 -1.9592  0.9068  0.3372
 4393TIP3   OH234593   2.577   4.497   5.459 -0.4516  0.1506  0.4120
 4393TIP3    H134594   2.600   4.580   5.418  2.9952 -0.2270  1.2570
 4393TIP3    H234595   2.484   4.504   5.478 -0.8343  2.7581 -1.8250
 4394TIP3   OH234596   6.717   3.447  15.272 -0.1264  0.0032 -0.5506
 4394TIP3    H134597   6.683   3.382  15.333  0.8344  0.0916  0.1016
 4394TIP3    H234598   6.754   3.515  15.328  0.8320  0.0602 -1.2238
 4395TIP3   OH234599   5.316   2.074   5.893 -0.0050 -0.0446  0.3100
 4395TIP3    H134600   5.247   2.039   5.950 -0.8499  0.7924 -0.1619
 4395TIP3    H234601   5.315   2.017   5.816  0.3459 -0.4881  0.6358
 4396TIP3   OH234602   4.508   3.850  12.393 -0.0825 -0.1130  0.1374
 4396TIP3    H134603   4.438   3.859  12.329  0.4608  1.8400 -0.2455
 4396TIP3    H234604   4.563   3.780  12.359 -0.2845  0.2946 -1.0818
 4397TIP3   OH234605   2.687   5.444  13.314  0.0474  0.0679 -0.4840
 4397TIP3    H134606   2.610   5.397  13.345 -1.3836  1.1157 -2.2175
 4397TIP3    H234607   2.724   5.388  13.245 -0.8772  0.8140 -1.6242
 4398TIP3   OH234608   4.503   5.498  13.273  0.7603  0.5716 -0.1609
 4398TIP3    H134609   4.432   5.557  13.250 -1.1735 -1.1716  1.0024
 4398TIP3    H234610   4.535   5.530  13.358 -2.0093 -1.3129  1.7806
 4399TIP3   OH234611   1.639   0.177  16.078 -0.1537  0.3407  0.6470
 4399TIP3    H134612   1.652   0.218  15.992 -1.0764 -0.1904  0.2391
 4399TIP3    H234613   1.710   0.212  16.132  1.4836 -0.6219 -0.7799
 4400TIP3   OH234614   3.320   4.813  14.634 -0.3329 -0.0375  0.4112
 4400TIP3    H134615   3.228   4.794  14.650 -0.2963  0.9765  2.0358
 4400TIP3    H234616   3.367   4.740  14.674 -0.3834  0.4974  1.4817
 4401TIP3   OH234617   1.047   5.202   1.669 -0.3405  0.1976  0.2852
 4401TIP3    H134618   1.011   5.113   1.669  0.3065 -0.0886  1.4392
 4401TIP3    H234619   1.142   5.189   1.675 -0.3004  0.9536  1.6850
 4402TIP3   OH234620   2.952   1.838   0.969 -0.5614  0.2635  0.2600
 4402TIP3    H134621   3.014   1.891   1.018  0.2918  1.1515 -1.6587
 4402TIP3    H234622   2.917   1.776   1.033  1.1350  0.7611  1.7481
 4403TIP3   OH234623   6.165   3.403  11.994 -0.1725  0.6606 -0.0373
 4403TIP3    H134624   6.247   3.448  12.013  0.0247  0.7759 -1.0767
 4403TIP3    H234625   6.102   3.440  12.057  0.6929  0.1323  1.1583
 4404TIP3   OH234626   3.346   2.722  14.579  0.1908 -0.3584 -0.3430
 4404TIP3    H134627   3.265   2.773  14.588  1.3588  1.4593  0.3748
 4404TIP3    H234628   3.352   2.703  14.485 -1.6701 -1.6517 -0.2657
 4405TIP3   OH234629   3.349   0.092  16.828  0.1532  0.5325  0.1347
 4405TIP3    H134630   3.422   0.075  16.887  0.0745  0.4330  0.2049
 4405TIP3    H234631   3.357   0.185  16.805  1.0186  0.2335 -0.8278
 4406TIP3   OH234632   0.176   2.121   4.856 -0.5945  0.2419 -0.0710
 4406TIP3    H134633   0.224   2.050   4.812  0.2431  0.7608 -0.0224
 4406TIP3    H234634   0.124   2.077   4.922 -0.0368 -0.3346 -0.0022
 4407TIP3   OH234635   4.332   5.415   0.199  0.1519  0.4150  0.9441
 4407TIP3    H134636   4.374   5.492   0.161 -1.4102  0.7879 -0.1330
 4407TIP3    H234637   4.239   5.427   0.179 -0.1498 -1.6284  0.9626
 4408TIP3   OH234638   5.539   5.921   4.714 -0.7498  0.1884 -0.7466
 4408TIP3    H134639   5.596   5.851   4.747 -2.3316 -1.1104 -0.6620
 4408TIP3    H234640   5.570   6.000   4.759 -1.0069 -1.0277  1.7223
 4409TIP3   OH234641   5.062   6.518  10.725  0.2645 -0.0797  0.4214
 4409TIP3    H134642   4.968   6.498  10.722 -0.0472  1.4256 -0.5619
 4409TIP3    H234643   5.075   6.584  10.658  1.8202  0.6198  1.3623
 4410TIP3   OH234644   3.974   4.009   0.741  0.3239 -0.4320  0.3874
 4410TIP3    H134645   3.952   4.006   0.647  0.1329  1.6381  0.2995
 4410TIP3    H234646   3.890   3.999   0.786  0.1998  0.0782  0.2769
 4411TIP3   OH234647   0.451   4.650   1.319  0.2185  0.1925  0.1173
 4411TIP3    H134648   0.417   4.721   1.372  0.1444 -1.3822  2.3040
 4411TIP3    H234649   0.471   4.691   1.234  0.1345  2.7699  1.2419
 4412TIP3   OH234650   1.024   5.395   3.658  0.1168 -0.3339 -0.1617
 4412TIP3    H134651   0.960   5.420   3.591  0.8063  0.3294 -0.5912
 4412TIP3    H234652   1.054   5.309   3.631 -0.8135 -0.7861  0.2147
 4413TIP3   OH234653   5.059   1.992   6.433  0.3065  0.0863 -0.4682
 4413TIP3    H134654   5.149   2.016   6.413 -0.7220  2.9138 -2.3872
 4413TIP3    H234655   5.035   1.928   6.365  0.4869  0.3584 -0.7913
 4414TIP3   OH234656   2.679   0.634   0.290  0.1044  0.5160  0.0648
 4414TIP3    H134657   2.713   0.693   0.223  2.0428  1.6851  1.9208
 4414TIP3    H234658   2.588   0.659   0.301  0.6182  2.5634  0.1026
 4415TIP3   OH234659   4.224   0.763   6.290 -0.5230  0.1066  0.3388
 4415TIP3    H134660   4.211   0.856   6.272 -0.7703 -0.0254 -0.2013
 4415TIP3    H234661   4.161   0.742   6.358  0.5834  0.6766  1.5816
 4416TIP3   OH234662   4.934   3.559  11.627  0.0591  0.4334  0.4010
 4416TIP3    H134663   4.899   3.584  11.542  0.1968  1.2870  0.5856
 4416TIP3    H234664   5.004   3.497  11.607  0.2844  0.8504 -0.1284
 4417TIP3   OH234665   3.945   3.614  11.381 -0.2270 -0.2589  0.2168
 4417TIP3    H134666   3.876   3.571  11.329  0.7868 -0.4418 -1.0440
 4417TIP3    H234667   3.983   3.543  11.433  0.3636 -0.6103 -0.6535
 4418TIP3   OH234668   5.565   1.915  12.574  0.1893  0.0434 -0.0980
 4418TIP3    H134669   5.517   1.924  12.492 -1.0029 -2.1161  0.3047
 4418TIP3    H234670   5.578   1.821  12.585  1.0908  0.3328  1.7695
 4419TIP3   OH234671   2.592   3.452  11.481 -0.3019  0.2312  0.0583
 4419TIP3    H134672   2.649   3.483  11.411  3.0956 -1.8223  1.6385
 4419TIP3    H234673   2.539   3.383  11.439 -0.3509  0.9087 -1.0450
 4420TIP3   OH234674   5.610   1.303   5.221 -0.2823 -0.1681 -0.3071
 4420TIP3    H134675   5.617   1.262   5.134 -0.9581  0.8007 -0.8316
 4420TIP3    H234676   5.516   1.312   5.236 -0.1535  1.7654 -0.4912
 4421TIP3   OH234677   2.494   1.329  15.084  0.0662  0.4000 -0.1675
 4421TIP3    H134678   2.527   1.318  14.994 -0.9168  0.6620 -0.5774
 4421TIP3    H234679   2.528   1.253  15.131  2.1153  1.1855 -0.2735
 4422TIP3   OH234680   2.457   6.077   1.104 -0.7028 -0.2413  0.1448
 4422TIP3    H134681   2.449   6.165   1.065  0.4170  0.3003  1.0771
 4422TIP3    H234682   2.415   6.019   1.040 -0.1471  0.7880 -1.2164
 4423TIP3   OH234683   2.864   2.255   4.754 -0.2302  0.4906 -0.0167
 4423TIP3    H134684   2.923   2.329   4.765  0.5071 -0.0655 -0.1349
 4423TIP3    H234685   2.860   2.241   4.659 -1.7531  1.4582 -0.1249
 4424TIP3   OH234686   1.421   6.768   1.226 -0.0323  0.0001  0.1688
 4424TIP3    H134687   1.477   6.750   1.151  2.5285 -0.1756  1.9940
 4424TIP3    H234688   1.398   6.681   1.260 -2.2528  0.0307 -1.0233
 4425TIP3   OH234689   3.459   2.057  16.217  0.1323  0.3389  0.2173
 4425TIP3    H134690   3.505   2.050  16.300  0.3320 -0.8962  0.0299
 4425TIP3    H234691   3.519   2.106  16.160  0.6485 -0.1047  0.3705
 4426TIP3   OH234692   0.575   4.474   4.149  0.2102 -0.8073  0.4910
 4426TIP3    H134693   0.583   4.400   4.089  1.0247 -0.6289  0.3780
 4426TIP3    H234694   0.529   4.438   4.225 -1.3920 -0.8949 -0.4696
 4427TIP3   OH234695   5.619   2.200  15.782 -0.2422  0.0674  0.0062
 4427TIP3    H134696   5.635   2.212  15.689 -0.7760 -2.1442 -0.4353
 4427TIP3    H234697   5.525   2.181  15.789 -0.0495 -0.7038  0.8521
 4428TIP3   OH234698   4.189   5.086  14.041  0.4408 -0.3613  0.1416
 4428TIP3    H134699   4.219   5.152  13.978 -0.1235 -2.4726 -2.5384
 4428TIP3    H234700   4.269   5.060  14.088  1.3007 -0.1889 -1.1755
 4429TIP3   OH234701   2.470   1.969  13.538 -0.6759  0.4688 -0.7672
 4429TIP3    H134702   2.538   1.955  13.473 -1.0568  0.8573 -1.2542
 4429TIP3    H234703   2.509   1.938  13.620 -0.2440 -0.1430 -1.1973
 4430TIP3   OH234704   1.337   1.975  13.550 -0.5666 -0.6524 -0.1408
 4430TIP3    H134705   1.327   1.881  13.532 -0.9628 -0.7143  0.3791
 4430TIP3    H234706   1.429   1.993  13.534 -0.8742 -0.6862 -2.2640
 4431TIP3   OH234707   1.173   1.883   1.851  0.1585  0.1837  0.4916
 4431TIP3    H134708   1.082   1.861   1.870 -0.3733  0.6871 -1.2794
 4431TIP3    H234709   1.185   1.968   1.893 -0.2793  0.2531  0.4893
 4432TIP3   OH234710   4.512   5.375  14.778  0.1184  0.0788 -0.2585
 4432TIP3    H134711   4.436   5.410  14.825  0.8161 -1.6951  2.4011
 4432TIP3    H234712   4.477   5.350  14.692 -2.8848 -2.4476  1.4804
 4433TIP3   OH234713   2.092   3.691   4.669  0.3107  0.4408  0.1024
 4433TIP3    H134714   2.096   3.765   4.730 -0.0166  0.9362 -0.4611
 4433TIP3    H234715   2.152   3.714   4.599 -1.1162  1.0430 -0.9840
 4434TIP3   OH234716   3.292   6.410  12.764 -0.0192 -0.2663 -0.1647
 4434TIP3    H134717   3.312   6.356  12.688  1.8146 -0.3041  0.3005
 4434TIP3    H234718   3.296   6.500  12.731  0.5512 -0.2901 -0.1601
 4435TIP3   OH234719   4.248   4.809   0.590 -0.0033 -0.1694  0.3851
 4435TIP3    H134720   4.219   4.732   0.639 -0.1755  0.0988  0.7077
 4435TIP3    H234721   4.176   4.827   0.530 -0.6135  0.6117  1.3182
 4436TIP3   OH234722   5.313   2.177   4.958  0.1682 -0.3173 -0.2656
 4436TIP3    H134723   5.325   2.164   5.053  3.7204  1.3114 -0.3162
 4436TIP3    H234724   5.238   2.235   4.952  1.5744  1.9737  1.9145
 4437TIP3   OH234725   3.665   2.559   3.001 -0.5972 -0.0256  0.0920
 4437TIP3    H134726   3.646   2.474   2.962  0.9579 -0.7495  0.8328
 4437TIP3    H234727   3.690   2.615   2.928  0.2835 -0.7809 -0.2014
 4438TIP3   OH234728   6.330   4.692   0.290  0.4931 -0.8067  0.1164
 4438TIP3    H134729   6.343   4.617   0.348  0.6559 -1.3592 -0.6192
 4438TIP3    H234730   6.235   4.701   0.282  0.4392  0.1399  1.5597
 4439TIP3   OH234731   2.146   5.505  11.400 -0.1898 -0.3156 -0.0454
 4439TIP3    H134732   2.165   5.421  11.358 -0.6388 -0.3889 -0.1095
 4439TIP3    H234733   2.098   5.482  11.479  1.5010 -0.2407  1.0582
 4440TIP3   OH234734   0.043   2.815   2.396  0.5090  0.7559  0.2553
 4440TIP3    H134735   0.111   2.862   2.347 -0.0353  0.1748 -1.1085
 4440TIP3    H234736   0.092   2.761   2.457  1.2924  0.4063 -0.6514
 4441TIP3   OH234737   5.504   4.198  14.300 -0.1983 -0.2805  0.0764
 4441TIP3    H134738   5.544   4.195  14.214 -1.1625 -0.5332 -0.3840
 4441TIP3    H234739   5.554   4.135  14.352  0.1398 -0.4274 -0.4176
 4442TIP3   OH234740   3.152   0.013  14.448  0.0054 -0.1161 -0.5536
 4442TIP3    H134741   3.224  -0.031  14.403  1.2982  2.1810 -0.9001
 4442TIP3    H234742   3.074  -0.015  14.400  1.2566  2.0144 -4.3113
 4443TIP3   OH234743   1.686   5.131  14.641  0.3731 -0.4841 -0.2133
 4443TIP3    H134744   1.774   5.143  14.677  0.5053  0.1050 -0.7122
 4443TIP3    H234745   1.692   5.166  14.552 -0.6254  0.4618  0.0779
 4444TIP3   OH234746   2.327   0.782   1.845 -0.0545  0.0297 -0.0949
 4444TIP3    H134747   2.324   0.877   1.834  2.0260  0.4531  2.1124
 4444TIP3    H234748   2.380   0.751   1.772  2.8029  1.1755  1.3147
 4445TIP3   OH234749   2.289   0.315   2.973 -0.5213 -0.1142 -0.3695
 4445TIP3    H134750   2.279   0.244   3.036 -0.4231 -0.2010 -0.4514
 4445TIP3    H234751   2.366   0.291   2.921  0.5667  0.8740  0.7039
 4446TIP3   OH234752   6.063   6.116  16.766  0.3723  0.1855  0.2700
 4446TIP3    H134753   6.095   6.046  16.709  0.8734  0.8300 -0.2560
 4446TIP3    H234754   6.129   6.185  16.759 -0.0367  0.6496  0.8978
 4447TIP3   OH234755   0.047   4.888  13.298  0.1986  0.2121  0.3866
 4447TIP3    H134756   0.045   4.899  13.393 -0.6897  0.1674  0.3852
 4447TIP3    H234757   0.088   4.802  13.285 -0.1894 -0.0391  0.7665
 4448TIP3   OH234758   1.219   3.499   3.523  0.2948  0.0591 -0.8833
 4448TIP3    H134759   1.189   3.477   3.612  1.1883  1.3018 -0.2458
 4448TIP3    H234760   1.139   3.497   3.470 -0.2603 -0.6568 -0.0477
 4449TIP3   OH234761   4.169   0.033   5.175 -0.0518 -0.3862  0.1729
 4449TIP3    H134762   4.160  -0.062   5.169 -1.4399 -0.4005  1.7734
 4449TIP3    H234763   4.127   0.056   5.257 -0.4749  1.7200 -0.5641
 4450TIP3   OH234764   2.758   5.871  16.122 -0.4803  0.3177  0.7808
 4450TIP3    H134765   2.732   5.780  16.105  1.4212 -0.1739  0.1938
 4450TIP3    H234766   2.790   5.903  16.038  1.6667  0.5051  1.5992
 4451TIP3   OH234767   2.470   6.749  12.284  0.0960  0.1503  0.4881
 4451TIP3    H134768   2.512   6.704  12.211  1.3555  0.7326  0.8327
 4451TIP3    H234769   2.378   6.722  12.279  0.7897 -2.4407  0.6816
 4452TIP3   OH234770   4.921   1.538  10.432 -0.2614  0.3393  0.3435
 4452TIP3    H134771   4.962   1.500  10.510 -1.8786  0.1584  1.1377
 4452TIP3    H234772   4.900   1.628  10.457 -1.8328 -0.0652  0.5409
 4453TIP3   OH234773   2.490   0.987   0.114  0.1536 -0.2608  0.0716
 4453TIP3    H134774   2.532   0.902   0.103  1.0412  0.1615  0.1182
 4453TIP3    H234775   2.410   0.981   0.062  1.2422 -0.4129 -1.6443
 4454TIP3   OH234776   0.356   2.174   0.997 -0.3575  0.0462  0.1399
 4454TIP3    H134777   0.276   2.181   1.049  0.1408 -1.3530  1.1249
 4454TIP3    H234778   0.376   2.081   0.994  1.8585  0.4150  0.8958
 4455TIP3   OH234779   2.498   6.584   0.040  0.4658 -0.0114  0.0068
 4455TIP3    H134780   2.438   6.656   0.059 -0.2442 -0.8873  1.2490
 4455TIP3    H234781   2.529   6.555   0.126 -0.5759 -2.2642 -0.3105
 4456TIP3   OH234782   1.946   4.060   0.808 -0.1014 -0.0601  0.1881
 4456TIP3    H134783   1.876   4.117   0.841 -1.4281 -1.1945 -0.5497
 4456TIP3    H234784   1.900   3.991   0.761  1.5920 -0.0761 -1.5763
 4457TIP3   OH234785   0.531   4.641   5.976  0.5153  0.4027 -0.1510
 4457TIP3    H134786   0.503   4.730   5.956  2.7872  0.8268 -1.8222
 4457TIP3    H234787   0.474   4.585   5.924 -0.5972  0.8728  0.5214
 4458TIP3   OH234788   0.111   1.887   5.014  0.2358  0.2260  0.1073
 4458TIP3    H134789   0.180   1.829   5.044 -0.2683 -0.1886  0.4882
 4458TIP3    H234790   0.085   1.936   5.092 -1.0235 -0.7969  0.3539
 4459TIP3   OH234791   6.290   6.021  12.478  0.3226  0.3294 -0.6311
 4459TIP3    H134792   6.228   6.089  12.451 -1.0760 -0.1421  1.1927
 4459TIP3    H234793   6.241   5.939  12.469  0.9083 -0.1231  0.1849
 4460TIP3   OH234794   0.810   5.626  14.135 -0.0907  0.1070 -0.1072
 4460TIP3    H134795   0.732   5.621  14.078  0.5642  0.5215 -1.0718
 4460TIP3    H234796   0.857   5.544  14.118  0.0748  0.2046 -0.1192
 4461TIP3   OH234797   5.263   4.797   4.415  0.1333 -0.3958  0.7637
 4461TIP3    H134798   5.296   4.877   4.374 -0.5831  0.4040  1.7079
 4461TIP3    H234799   5.209   4.755   4.348  1.5190 -0.7688 -0.1670
 4462TIP3   OH234800   1.815   6.609  16.669 -0.0354 -0.1573  0.5874
 4462TIP3    H134801   1.780   6.533  16.715 -1.2233  0.7725  1.2736
 4462TIP3    H234802   1.866   6.572  16.596 -1.1433 -1.5914  0.5050
 4463TIP3   OH234803   1.701   3.030   0.440  0.1928 -0.0637  0.0075
 4463TIP3    H134804   1.679   3.072   0.356  0.0169 -0.7639 -0.3073
 4463TIP3    H234805   1.642   2.954   0.444  0.6920 -0.4308  0.4367
 4464TIP3   OH234806   6.126   1.063   3.369  0.2022 -0.0189 -0.2620
 4464TIP3    H134807   6.201   1.118   3.392  1.1888 -1.1477 -0.6498
 4464TIP3    H234808   6.119   1.001   3.442  0.1563 -0.4202 -0.6048
 4465TIP3   OH234809   0.523   5.856  11.569  1.0690 -0.0235 -0.0389
 4465TIP3    H134810   0.547   5.816  11.652  0.8196 -2.4586 -1.0498
 4465TIP3    H234811   0.428   5.846  11.564  0.9403  1.0930 -0.1664
 4466TIP3   OH234812   1.704   5.381   4.965 -1.0011  0.0261 -0.5696
 4466TIP3    H134813   1.662   5.406   5.048 -0.6061  0.6214 -0.5424
 4466TIP3    H234814   1.636   5.393   4.899 -1.2551 -0.2453 -0.3563
 4467TIP3   OH234815   0.527   6.425   3.151 -0.2816 -0.9444 -0.1684
 4467TIP3    H134816   0.518   6.455   3.061 -2.1512 -0.5879  0.0954
 4467TIP3    H234817   0.555   6.502   3.200 -1.6696 -0.4566 -0.0773
 4468TIP3   OH234818   2.577   3.245   1.758 -0.2362 -0.5001 -0.1062
 4468TIP3    H134819   2.597   3.261   1.666  2.3216 -0.7978  0.3383
 4468TIP3    H234820   2.642   3.181   1.786  0.2693  0.9528  2.3566
 4469TIP3   OH234821   5.682   4.067   4.171  0.3406 -0.6053  0.0370
 4469TIP3    H134822   5.725   4.034   4.092  2.2994 -0.2304  0.8689
 4469TIP3    H234823   5.746   4.051   4.241 -0.6007  0.6560  1.2477
 4470TIP3   OH234824   0.008   5.941   6.066  0.1028  0.0309  0.1934
 4470TIP3    H134825   0.035   5.985   6.146  0.1706  1.3850 -0.5403
 4470TIP3    H234826  -0.081   5.973   6.049  0.5142  0.6721 -0.8655
 4471TIP3   OH234827   0.925   0.429   5.330 -0.5503  0.1860  0.2697
 4471TIP3    H134828   1.015   0.395   5.335 -0.5856 -0.4581 -2.1562
 4471TIP3    H234829   0.870   0.352   5.342 -0.9497  0.7968  3.4234
 4472TIP3   OH234830   0.747   5.275  14.844  0.1559  0.0200 -0.4504
 4472TIP3    H134831   0.740   5.341  14.775 -0.1988  0.1199 -0.3231
 4472TIP3    H234832   0.820   5.305  14.898  0.5708 -0.1702 -0.8968
 4473TIP3   OH234833   0.423   2.723   6.111 -0.5372 -0.0951  0.1149
 4473TIP3    H134834   0.365   2.689   6.178 -0.3163  1.4401  1.1454
 4473TIP3    H234835   0.428   2.817   6.129  0.5499  0.1543 -1.2689
 4474TIP3   OH234836   3.618   4.451  14.473 -0.1707 -0.4511 -0.5972
 4474TIP3    H134837   3.562   4.375  14.491 -1.2678 -0.0369 -2.0232
 4474TIP3    H234838   3.596   4.475  14.383  0.3332  1.4118 -0.2573
 4475TIP3   OH234839   4.523   5.854  14.653 -0.3132  0.2563 -0.1889
 4475TIP3    H134840   4.548   5.868  14.562 -2.4558  0.5292 -0.7929
 4475TIP3    H234841   4.582   5.910  14.703  0.7536  0.2725 -1.4086
 4476TIP3   OH234842   4.852   4.568   4.521 -0.5269  0.3808 -0.1817
 4476TIP3    H134843   4.829   4.589   4.611 -0.4486  1.3715 -0.3731
 4476TIP3    H234844   4.901   4.645   4.491  0.9553 -0.6469 -0.5332
 4477TIP3   OH234845   1.293   4.751  16.802  0.1031  0.0100 -0.3236
 4477TIP3    H134846   1.332   4.806  16.733 -0.8061  0.5933 -0.3900
 4477TIP3    H234847   1.337   4.667  16.792  0.0374  0.0934 -1.5938
 4478TIP3   OH234848   6.612   5.636   2.621 -0.4438 -0.3832 -0.2115
 4478TIP3    H134849   6.603   5.730   2.607  1.4522  0.0998  1.4713
 4478TIP3    H234850   6.598   5.623   2.714  0.6027 -1.5903 -0.1926
 4479TIP3   OH234851   4.480   6.141  13.871  0.2938  0.6537  0.4345
 4479TIP3    H134852   4.558   6.169  13.824  0.5173  2.3835  1.7435
 4479TIP3    H234853   4.420   6.215  13.866 -1.5043 -0.7978 -0.9161
 4480TIP3   OH234854   6.257   6.143   0.570 -0.1423  0.1543 -0.7231
 4480TIP3    H134855   6.342   6.110   0.541 -0.1046  0.2311 -0.6991
 4480TIP3    H234856   6.211   6.065   0.602  0.1890  0.2230 -0.0699
 4481TIP3   OH234857   2.430   5.570  15.898 -0.3904  0.6960 -0.0063
 4481TIP3    H134858   2.347   5.598  15.859 -0.9484 -1.4347 -0.4714
 4481TIP3    H234859   2.415   5.479  15.923  1.7168  0.3614  0.2118
 4482TIP3   OH234860   3.723   5.392   5.723  0.1484 -0.0783 -0.7311
 4482TIP3    H134861   3.752   5.415   5.811  0.7107  1.0420 -1.1884
 4482TIP3    H234862   3.724   5.296   5.721  1.6137 -0.1006  0.0039
 4483TIP3   OH234863   1.571   3.218  11.943  0.5908  0.4595  0.3112
 4483TIP3    H134864   1.616   3.184  12.021  0.0466  0.8018  0.7895
 4483TIP3    H234865   1.614   3.174  11.870 -0.8584 -2.2541  0.9398
 4484TIP3   OH234866   4.006   2.148  12.325  0.3849  0.1320  0.4572
 4484TIP3    H134867   4.055   2.154  12.243  0.9605 -0.2508  0.7682
 4484TIP3    H234868   4.065   2.182  12.391 -0.5663  1.6966  0.5369
 4485TIP3   OH234869   2.867   1.120   2.139  0.0885 -0.6378  0.1795
 4485TIP3    H134870   2.782   1.139   2.177 -0.4097 -2.1243 -0.1150
 4485TIP3    H234871   2.855   1.037   2.093  1.9222 -1.3473  0.8836
 4486TIP3   OH234872   6.472   1.523   0.071 -0.1964  0.3088 -0.2825
 4486TIP3    H134873   6.497   1.518  -0.021 -0.0002 -1.0788 -0.1803
 4486TIP3    H234874   6.417   1.446   0.085 -0.2252  0.5045  0.7523
 4487TIP3   OH234875   4.818   5.895  14.218  0.4515 -0.5200 -0.1932
 4487TIP3    H134876   4.750   5.930  14.160  2.0577  3.4552 -0.0031
 4487TIP3    H234877   4.876   5.846  14.160  1.4483  2.4932 -1.9859
 4488TIP3   OH234878   5.330   4.767  10.665  0.2580 -0.2530 -0.3844
 4488TIP3    H134879   5.268   4.832  10.634 -0.8125 -0.4418  1.2735
 4488TIP3    H234880   5.277   4.689  10.681  0.8975 -0.4041  1.1186
 4489TIP3   OH234881   1.490   0.984  15.768 -0.7320 -0.1231  0.0457
 4489TIP3    H134882   1.511   1.004  15.676 -1.1367  0.9698  0.1850
 4489TIP3    H234883   1.511   0.890  15.776  0.7080  0.0821 -0.7650
 4490TIP3   OH234884   0.426   6.464  15.992  0.5548 -0.0388  0.0325
 4490TIP3    H134885   0.378   6.545  16.009  0.4392  0.2750 -1.6035
 4490TIP3    H234886   0.514   6.493  15.967 -0.1402 -0.1673 -2.9921
 4491TIP3   OH234887   2.046   1.845   6.197  0.1807  0.1009  0.1004
 4491TIP3    H134888   2.077   1.882   6.280 -1.6579  0.4850  0.6702
 4491TIP3    H234889   2.121   1.798   6.162  1.8695  2.2878  0.5787
 4492TIP3   OH234890   4.481   2.666  15.487  0.6153  0.4214  0.3777
 4492TIP3    H134891   4.537   2.733  15.527 -0.1353  0.8649  0.7124
 4492TIP3    H234892   4.442   2.709  15.411  2.9398 -0.7733 -1.6029
 4493TIP3   OH234893   3.690   4.706  16.068  0.7574  0.3132 -0.2763
 4493TIP3    H134894   3.599   4.737  16.066 -0.4675 -2.9184 -2.2067
 4493TIP3    H234895   3.730   4.743  15.990  1.3164  2.1431  0.8330
 4494TIP3   OH234896   5.623   5.550  16.479  0.0508 -0.0623 -0.2893
 4494TIP3    H134897   5.596   5.628  16.526  1.6019 -1.4686  3.2470
 4494TIP3    H234898   5.718   5.547  16.490  0.6421 -0.3152 -4.0571
 4495TIP3   OH234899   5.962   2.506  15.367  0.0111  0.2691  0.3266
 4495TIP3    H134900   5.928   2.520  15.455  0.9951  2.6522  0.4170
 4495TIP3    H234901   6.057   2.499  15.379 -0.0423 -2.7336 -0.2741
 4496TIP3   OH234902   1.572   5.792  12.636  0.7428  0.2931  0.2194
 4496TIP3    H134903   1.639   5.858  12.619 -0.1696  0.9927 -0.8650
 4496TIP3    H234904   1.527   5.782  12.552  0.5918 -1.4325  0.4629
 4497TIP3   OH234905   2.649   0.988   1.692  0.0847 -0.0270 -0.5406
 4497TIP3    H134906   2.638   1.078   1.660  0.2058  0.0056 -0.4897
 4497TIP3    H234907   2.670   0.998   1.785  2.4132  0.0063 -1.0004
 4498TIP3   OH234908   2.765   6.465  14.061  0.2305  0.2163  0.1186
 4498TIP3    H134909   2.748   6.431  13.973  1.4458  2.0252 -0.9013
 4498TIP3    H234910   2.861   6.474  14.064  0.1954  0.2735  1.6090
 4499TIP3   OH234911   3.011   2.556  12.888  0.2061  0.4069 -0.2374
 4499TIP3    H134912   2.953   2.626  12.917  1.8744  0.5286  3.2677
 4499TIP3    H234913   3.098   2.583  12.917  1.0354 -2.6842  0.5408
 4500TIP3   OH234914   1.205   6.791   3.778  0.1237 -0.7320  0.1757
 4500TIP3    H134915   1.165   6.725   3.721  1.8891 -1.6715 -0.0309
 4500TIP3    H234916   1.160   6.780   3.862 -1.7745 -0.0352 -0.6764
 4501TIP3   OH234917   5.315   4.124   1.270  0.2399  0.0740 -0.6392
 4501TIP3    H134918   5.242   4.154   1.217  0.3837 -0.7488 -1.3363
 4501TIP3    H234919   5.393   4.155   1.223  0.3506  1.5864  0.4916
 4502TIP3   OH234920   6.718   4.297   1.076 -0.1898  0.0076 -0.3564
 4502TIP3    H134921   6.651   4.316   1.140  0.1122 -1.6555  0.5106
 4502TIP3    H234922   6.670   4.280   0.995 -0.8003 -0.7040  0.1396
 4503TIP3   OH234923   0.991   1.654   5.024  0.2604 -0.3209  0.0025
 4503TIP3    H134924   1.061   1.689   5.078  0.3659 -2.6141  1.4858
 4503TIP3    H234925   1.017   1.564   5.006 -1.0772 -0.4343 -1.6306
 4504TIP3   OH234926   3.102   3.280  16.057  0.6526 -0.3085 -0.2349
 4504TIP3    H134927   3.015   3.278  16.019  0.0362  0.1802  1.0804
 4504TIP3    H234928   3.157   3.230  15.996 -0.7297 -1.4325 -0.6096
 4505TIP3   OH234929   4.811   6.784   2.977 -0.0718 -0.1739  0.0090
 4505TIP3    H134930   4.864   6.853   3.016  0.8561 -0.6140 -0.4384
 4505TIP3    H234931   4.874   6.717   2.951 -0.9846 -1.3522  0.7293
 4506TIP3   OH234932   0.044   4.320  13.889  0.0723  0.3131  0.0115
 4506TIP3    H134933  -0.051   4.311  13.875 -0.2502  3.3600 -0.4776
 4506TIP3    H234934   0.053   4.398  13.943  2.3507  0.3662 -0.3426
 4507TIP3   OH234935   1.602   1.984  13.513 -0.4908  0.3948 -0.4858
 4507TIP3    H134936   1.615   1.896  13.475  0.1989  0.3983 -0.2683
 4507TIP3    H234937   1.678   2.034  13.483 -1.4225  1.2402 -1.5085
 4508TIP3   OH234938   0.973   2.899  12.777  0.3778 -0.7427 -0.3096
 4508TIP3    H134939   0.896   2.955  12.788 -0.1517 -1.6660  0.8574
 4508TIP3    H234940   0.952   2.844  12.702  1.5201  1.5394 -2.4680
 4509TIP3   OH234941   3.149   6.296  16.641 -0.0429 -0.0177 -0.8322
 4509TIP3    H134942   3.185   6.229  16.583 -0.8458  0.0638 -1.4396
 4509TIP3    H234943   3.182   6.378  16.607 -0.7145  0.0501 -1.3376
 4510TIP3   OH234944   6.442   4.358   4.995 -0.2165  0.2168  0.4831
 4510TIP3    H134945   6.522   4.398   5.028 -0.0492  3.0052 -2.7569
 4510TIP3    H234946   6.471   4.275   4.957  1.6270  1.8794 -2.0830
 4511TIP3   OH234947   3.376   1.975   1.241  0.0199  0.3943 -0.3934
 4511TIP3    H134948   3.339   2.011   1.322 -1.4828 -2.6995  0.4861
 4511TIP3    H234949   3.470   1.967   1.260 -0.2015  0.3754  0.8014
 4512TIP3   OH234950   5.737   3.003   5.582  0.0651  0.9540 -0.3907
 4512TIP3    H134951   5.745   2.941   5.510  1.3555  1.1884 -0.4718
 4512TIP3    H234952   5.710   2.949   5.657  2.2425  0.0386 -0.1800
 4513TIP3   OH234953   4.078   4.745  16.278 -0.4300 -0.2052  0.0937
 4513TIP3    H134954   4.070   4.664  16.327 -1.0686 -0.1688  0.0539
 4513TIP3    H234955   3.998   4.750  16.226  0.6065 -0.6879 -1.6299
 4514TIP3   OH234956   6.050   2.026   3.369  0.0964 -0.6833  0.5493
 4514TIP3    H134957   6.035   1.978   3.451  2.7749  0.0676  1.5724
 4514TIP3    H234958   6.077   2.113   3.398 -1.2069  0.3837 -1.2299
 4515TIP3   OH234959   5.468   6.183   6.079  0.7617 -0.1873  0.5171
 4515TIP3    H134960   5.430   6.270   6.065 -0.1807 -0.5158  0.9132
 4515TIP3    H234961   5.511   6.189   6.164 -1.5764 -0.8058  1.8447
 4516TIP3   OH234962   2.481   4.865   0.216  0.1782  0.0349 -0.2039
 4516TIP3    H134963   2.509   4.908   0.297  1.2141 -2.7010  0.9945
 4516TIP3    H234964   2.386   4.876   0.214 -0.2343 -1.8352  2.7288
 4517TIP3   OH234965   4.391   3.315  10.713  0.3247 -0.2647  0.1692
 4517TIP3    H134966   4.444   3.383  10.673  1.9996 -1.3320  0.4979
 4517TIP3    H234967   4.379   3.249  10.644 -0.1520 -0.2598  0.2450
 4518TIP3   OH234968   3.432   1.860   2.030 -0.3512  0.1415 -0.5083
 4518TIP3    H134969   3.425   1.915   2.108 -0.2365  0.6405 -0.8473
 4518TIP3    H234970   3.367   1.791   2.044 -0.0475 -0.0083  0.2132
 4519TIP3   OH234971   1.916   1.252   0.342 -0.7164  0.1818 -0.2085
 4519TIP3    H134972   1.823   1.263   0.327 -0.9899 -0.6691  0.7211
 4519TIP3    H234973   1.936   1.165   0.308 -1.2506 -1.5900  3.4792
 4520TIP3   OH234974   6.298   1.755   0.195 -0.0205 -0.0669  0.7968
 4520TIP3    H134975   6.254   1.803   0.125 -1.0949  1.0887  2.2251
 4520TIP3    H234976   6.348   1.687   0.149 -2.7349 -1.0373 -0.9559
 4521TIP3   OH234977   1.607   2.614   0.922 -0.4213  0.2932  0.2209
 4521TIP3    H134978   1.624   2.520   0.918 -0.7972  0.2600 -0.7557
 4521TIP3    H234979   1.691   2.654   0.902 -0.8309  0.1375 -1.9984
 4522TIP3   OH234980   5.147   4.596   4.715 -0.3960 -0.0624  0.1895
 4522TIP3    H134981   5.167   4.574   4.806  0.0104  0.2011  0.1614
 4522TIP3    H234982   5.130   4.690   4.716 -1.8173 -0.2899  0.2468
 4523TIP3   OH234983   2.887   5.615  11.459 -0.3225  0.7276  0.0360
 4523TIP3    H134984   2.973   5.657  11.466 -0.6440  1.2460  1.1580
 4523TIP3    H234985   2.886   5.576  11.372  0.6169  1.6894 -0.4257
 4524TIP3   OH234986   3.949   3.924  11.476 -0.2755  0.1364  0.1607
 4524TIP3    H134987   4.024   3.979  11.453  0.2849  0.2464  2.0377
 4524TIP3    H234988   3.971   3.838  11.441  2.1007 -0.5365  2.9194
 4525TIP3   OH234989   0.151   5.116   3.091 -0.0731  0.6514  0.5200
 4525TIP3    H134990   0.177   5.190   3.146  1.7675 -0.7496  1.6493
 4525TIP3    H234991   0.084   5.071   3.142 -1.0196  1.3485 -0.0629
 4526TIP3   OH234992   0.316   6.236   5.202  0.3903 -0.1612  0.1172
 4526TIP3    H134993   0.285   6.150   5.231  0.6782 -0.3871 -0.2332
 4526TIP3    H234994   0.264   6.255   5.124 -0.0441  0.2252  0.4998
 4527TIP3   OH234995   0.754   6.308   4.741  0.0600  1.0289  0.0770
 4527TIP3    H134996   0.748   6.223   4.784 -1.6002  1.2494  0.3672
 4527TIP3    H234997   0.797   6.365   4.806  1.1548  0.4450 -0.1121
 4528TIP3   OH234998   0.955   5.601  12.764  0.1457  0.6395 -0.3696
 4528TIP3    H134999   1.007   5.636  12.692  2.8833 -1.4460  0.4205
 4528TIP3    H235000   0.924   5.678  12.812  1.1447  1.9869 -1.8141
 4529TIP3   OH235001   0.889   3.859   5.708  0.3327 -0.1820 -0.0647
 4529TIP3    H135002   0.811   3.904   5.676  0.4423  1.3576  1.6524
 4529TIP3    H235003   0.911   3.797   5.639 -1.6709  0.2238 -1.1431
 4530TIP3   OH235004   3.223   2.921  11.456  0.1894  0.0739  0.1134
 4530TIP3    H135005   3.315   2.919  11.430  0.7514 -0.3461  1.9667
 4530TIP3    H235006   3.221   2.977  11.533 -1.4069  1.3856 -0.8108
 4531TIP3   OH235007   3.655   3.889   3.001 -0.1341 -0.2490 -0.5909
 4531TIP3    H135008   3.628   3.798   3.006  1.6325 -0.7629  0.0784
 4531TIP3    H235009   3.613   3.931   3.076 -1.1520 -0.4338 -1.0400
 4532TIP3   OH235010   1.197   0.695   3.688 -0.0314  0.2877  0.1803
 4532TIP3    H135011   1.105   0.719   3.697  0.4843  1.6382  2.8775
 4532TIP3    H235012   1.233   0.762   3.629 -0.2312  1.5495  1.4322
 4533TIP3   OH235013   3.031   3.465   2.708 -0.4199  0.4098  0.1168
 4533TIP3    H135014   3.066   3.554   2.700  0.1829  0.2220  0.6597
 4533TIP3    H235015   2.966   3.471   2.778 -0.0096  0.3037  0.5019
 4534TIP3   OH235016   5.262   6.270  13.402 -0.3102 -0.1469  0.2972
 4534TIP3    H135017   5.334   6.307  13.351 -0.8069 -1.5476 -1.5398
 4534TIP3    H235018   5.214   6.346  13.435  0.9479  0.8028 -0.0001
 4535TIP3   OH235019   4.031   1.823  15.297 -0.4773 -0.1733  0.6229
 4535TIP3    H135020   3.991   1.757  15.240  4.2636 -0.3937 -3.1607
 4535TIP3    H235021   4.078   1.773  15.363 -0.2057 -0.3874  0.2713
 4536TIP3   OH235022   5.881   4.006   1.846  0.4142 -0.1823  0.1885
 4536TIP3    H135023   5.914   3.931   1.796 -0.0361 -0.6681  0.6206
 4536TIP3    H235024   5.955   4.068   1.847  0.1114  0.2854 -1.9381
 4537TIP3   OH235025   4.206   0.888  16.670  0.1402 -0.4872 -0.9311
 4537TIP3    H135026   4.231   0.980  16.668 -1.4528 -0.0196 -1.0933
 4537TIP3    H235027   4.182   0.871  16.761  2.0663 -1.2462 -0.5292
 4538TIP3   OH235028   4.171   0.085   6.622 -0.4726  0.2787 -0.5662
 4538TIP3    H135029   4.139   0.004   6.661  1.9650 -0.9138 -0.8235
 4538TIP3    H235030   4.231   0.056   6.553  0.1658  2.3087 -0.9288
 4539TIP3   OH235031   2.887   2.739  12.628  0.3585 -0.4269  0.1239
 4539TIP3    H135032   2.806   2.783  12.652  0.8333 -0.0099  1.0346
 4539TIP3    H235033   2.951   2.771  12.691  1.3883 -0.2519 -0.9770
 4540TIP3   OH235034   1.001   0.368  13.754 -0.4388  0.1615 -0.0700
 4540TIP3    H135035   1.027   0.278  13.771 -2.5625 -0.7861 -1.4161
 4540TIP3    H235036   0.994   0.408  13.841  0.6952 -0.8880  0.5341
 4541TIP3   OH235037   0.412   3.044  11.195 -0.2257  0.2713  0.3436
 4541TIP3    H135038   0.462   3.125  11.196 -0.2858  0.3100  0.2166
 4541TIP3    H235039   0.389   3.031  11.103  1.0999 -0.6992  0.1192
 4542TIP3   OH235040   0.519   2.263   0.218  0.5815 -0.9451 -0.2470
 4542TIP3    H135041   0.576   2.340   0.210  2.6882 -2.5000 -0.8948
 4542TIP3    H235042   0.470   2.261   0.136 -0.0379  0.0845  0.0774
 4543TIP3   OH235043   1.260   3.460  14.122  0.0148  0.6494  0.8341
 4543TIP3    H135044   1.220   3.522  14.183  0.1931  0.6237  0.9785
 4543TIP3    H235045   1.254   3.503  14.037  0.0440  0.8224  0.9184
 4544TIP3   OH235046   6.388   6.330  11.716 -0.6125 -0.4592  0.1843
 4544TIP3    H135047   6.480   6.351  11.731 -0.6261 -0.8428  0.8539
 4544TIP3    H235048   6.344   6.352  11.799 -0.6618 -2.7980  0.8520
 4545TIP3   OH235049   5.053   3.029  16.539 -0.1072  0.4307  0.0430
 4545TIP3    H135050   5.088   3.007  16.626 -1.0833 -1.0244  0.1030
 4545TIP3    H235051   4.982   3.090  16.557 -0.1093  0.3715  0.2376
 4546TIP3   OH235052   2.674   5.512   0.811  0.4932 -0.7391 -0.2659
 4546TIP3    H135053   2.640   5.479   0.894  0.8466  0.1766  0.2603
 4546TIP3    H235054   2.744   5.572   0.836 -0.1791  0.4672 -1.1740
 4547TIP3   OH235055   1.140   1.312  15.819 -0.0265  0.0829 -0.1815
 4547TIP3    H135056   1.135   1.217  15.806  0.5098  0.1231 -0.7539
 4547TIP3    H235057   1.190   1.322  15.900  0.6928 -0.1203 -0.5892
 4548TIP3   OH235058   6.668   6.772   1.585 -0.1684  0.2341 -0.7527
 4548TIP3    H135059   6.608   6.786   1.511 -0.3764  1.0396 -0.4373
 4548TIP3    H235060   6.617   6.795   1.662  0.5746  1.0000 -0.4834
 4549TIP3   OH235061   2.970   1.966  14.208  0.7610 -0.1534 -0.0738
 4549TIP3    H135062   2.940   1.888  14.256 -0.7762 -1.2923 -2.6352
 4549TIP3    H235063   2.897   2.027  14.215  0.1284 -0.6749 -1.5433
 4550TIP3   OH235064   4.085   5.158   5.036  0.0262  0.1880 -0.2892
 4550TIP3    H135065   4.073   5.098   4.963  0.2232 -0.5228  0.2547
 4550TIP3    H235066   3.996   5.185   5.060 -0.0445  0.3358 -0.7082
 4551TIP3   OH235067   6.238   2.498   3.302 -0.4202 -0.4501 -0.9466
 4551TIP3    H135068   6.200   2.515   3.216 -0.3166 -0.3490 -0.9728
 4551TIP3    H235069   6.309   2.562   3.310 -0.8646 -0.0138 -0.5061
 4552TIP3   OH235070   3.731   5.249  11.599 -0.4426  0.7240  0.3055
 4552TIP3    H135071   3.738   5.182  11.531  0.0917  0.6444  0.4326
 4552TIP3    H235072   3.639   5.251  11.621 -0.2095 -1.3584  1.6874
 4553TIP3   OH235073   6.282   0.377  11.722  0.0186 -0.1157 -0.7016
 4553TIP3    H135074   6.300   0.354  11.631 -1.3884 -1.7162 -0.6229
 4553TIP3    H235075   6.186   0.372  11.729 -0.0833  2.2134  0.3188
 4554TIP3   OH235076   0.911   3.507   0.688  0.1545 -0.3329 -0.0713
 4554TIP3    H135077   0.976   3.568   0.653  0.3527  0.4717  1.5928
 4554TIP3    H235078   0.959   3.457   0.754 -0.5834 -0.7132  0.1815
 4555TIP3   OH235079   4.983   2.115  15.465  0.2873 -0.0563 -0.3289
 4555TIP3    H135080   5.027   2.040  15.426  0.5662  0.4362 -0.9724
 4555TIP3    H235081   4.968   2.175  15.392  1.6017  1.2644  0.4168
 4556TIP3   OH235082   6.626   5.673  15.585 -0.0492 -0.1076 -0.1190
 4556TIP3    H135083   6.628   5.600  15.524 -2.0020  0.8028 -1.3764
 4556TIP3    H235084   6.596   5.634  15.668  0.0337 -0.9199 -0.4645
 4557TIP3   OH235085   1.119   4.446  10.676  0.3958 -0.0349  0.0325
 4557TIP3    H135086   1.080   4.359  10.674  0.5628 -0.1022 -1.1926
 4557TIP3    H235087   1.046   4.505  10.694  0.2728 -0.4096  0.8169
 4558TIP3   OH235088   0.262   5.800  11.591  0.1395  0.6551  0.3516
 4558TIP3    H135089   0.277   5.847  11.673  0.9789 -0.8074  1.0791
 4558TIP3    H235090   0.169   5.812  11.573  0.3154  2.5906  0.4662
 4559TIP3   OH235091   0.136   1.094  13.376  0.0432  0.3449 -0.2666
 4559TIP3    H135092   0.056   1.108  13.426 -0.3416 -0.3719 -0.6829
 4559TIP3    H235093   0.150   1.000  13.377  1.2118  0.4948  0.3032
 4560TIP3   OH235094   2.031   6.370  11.708 -0.1087 -0.1706  0.4321
 4560TIP3    H135095   1.984   6.453  11.698 -0.1289  0.0459  1.9516
 4560TIP3    H235096   2.121   6.391  11.684  0.2987  0.8351  2.5774
 4561TIP3   OH235097   2.562   0.130  15.289  0.0449 -0.0590 -1.3094
 4561TIP3    H135098   2.621   0.136  15.214 -1.3583 -0.0128 -2.4508
 4561TIP3    H235099   2.492   0.193  15.270 -0.2295  0.1195  0.1550
 4562TIP3   OH235100   3.275   3.870   3.884  0.1598  0.6107  0.4313
 4562TIP3    H135101   3.185   3.873   3.916 -0.1150  0.4383 -0.2941
 4562TIP3    H235102   3.320   3.941   3.929  0.2883 -0.7754  2.6205
 4563TIP3   OH235103   3.209   1.692  15.357  0.3997  0.3493 -0.6729
 4563TIP3    H135104   3.203   1.717  15.449  1.2086  0.1036 -0.5439
 4563TIP3    H235105   3.261   1.761  15.316 -1.4507  1.4119 -1.3411
 4564TIP3   OH235106   6.200   6.786   0.686 -0.3951  1.1702 -0.3189
 4564TIP3    H135107   6.197   6.702   0.731 -0.8013  0.6343 -1.3134
 4564TIP3    H235108   6.200   6.851   0.757  0.9011  0.3352  0.4794
 4565TIP3   OH235109   0.584   2.566   4.336  0.8547  0.2186  0.0289
 4565TIP3    H135110   0.567   2.534   4.424  1.5745 -0.1955  0.0204
 4565TIP3    H235111   0.676   2.545   4.319  0.8433  0.6720 -0.6587
 4566TIP3   OH235112   6.675   6.579   2.448  0.1486  0.1810  0.5839
 4566TIP3    H135113   6.638   6.599   2.362  1.1693 -0.1946  0.0364
 4566TIP3    H235114   6.761   6.621   2.447 -0.1622  0.8902  1.7547
 4567TIP3   OH235115   5.501   4.992   3.490  0.1874 -0.4312  0.2183
 4567TIP3    H135116   5.411   5.023   3.502 -0.2014 -0.6712 -1.7303
 4567TIP3    H235117   5.497   4.899   3.515 -0.7897 -1.1356 -2.1806
 4568TIP3   OH235118   3.707   1.868  15.100 -0.4918  0.4805  0.7550
 4568TIP3    H135119   3.673   1.924  15.170 -0.9309  0.9011  0.2153
 4568TIP3    H235120   3.786   1.913  15.070  0.6370 -0.5418  2.0684
 4569TIP3   OH235121   2.120   4.653   0.008  0.2037  0.4544  0.6679
 4569TIP3    H135122   2.082   4.656   0.095  1.6812  0.5915  1.3494
 4569TIP3    H235123   2.190   4.587   0.015  0.4255  0.5628 -0.3686
 4570TIP3   OH235124   0.865   1.854  11.951  0.5478  0.3065  1.0965
 4570TIP3    H135125   0.799   1.817  12.008 -1.6642  0.6508 -1.0782
 4570TIP3    H235126   0.906   1.779  11.908  0.0919  0.1716  0.9006
 4571TIP3   OH235127   5.539   0.896   5.576  0.0893 -0.6184  0.2559
 4571TIP3    H135128   5.521   0.893   5.482  0.2182  1.9901  0.0647
 4571TIP3    H235129   5.486   0.826   5.613 -0.9948 -0.8530 -1.6132
 4572TIP3   OH235130   6.636   1.688   3.553 -0.9070 -0.3096 -0.2434
 4572TIP3    H135131   6.571   1.684   3.623 -0.1954 -1.5851  0.3730
 4572TIP3    H235132   6.586   1.712   3.475 -2.1370 -1.3999  0.1862
 4573TIP3   OH235133   0.278   1.118  16.106 -0.1812 -0.2126  0.1951
 4573TIP3    H135134   0.280   1.025  16.131  0.2741 -0.3512 -0.3233
 4573TIP3    H235135   0.313   1.164  16.182 -2.4592 -0.2298  1.3443
 4574TIP3   OH235136   4.692   6.658  14.899 -0.3806 -0.1499  1.0726
 4574TIP3    H135137   4.725   6.724  14.959  1.7375 -1.2435  1.2167
 4574TIP3    H235138   4.670   6.705  14.819 -0.3097  0.8931  1.6605
 4575TIP3   OH235139   1.443   5.187  11.625 -0.6025 -0.2680 -0.2786
 4575TIP3    H135140   1.395   5.198  11.543 -2.7124 -2.1681  0.5905
 4575TIP3    H235141   1.533   5.169  11.598 -0.9310  0.5777 -2.0887
 4576TIP3   OH235142   4.047   1.775  12.837  0.1863  0.3946 -0.2469
 4576TIP3    H135143   4.031   1.752  12.929 -0.4736 -0.8519 -0.6470
 4576TIP3    H235144   4.137   1.746  12.821  0.0559 -0.0526 -0.1852
 4577TIP3   OH235145   5.229   1.432   2.894  0.0411  0.1674 -0.5163
 4577TIP3    H135146   5.153   1.385   2.860  0.7620 -0.3126 -1.5334
 4577TIP3    H235147   5.233   1.512   2.842 -0.3617  0.7054  0.2542
 4578TIP3   OH235148   3.145   4.552   4.071  0.1200 -0.1426 -0.2107
 4578TIP3    H135149   3.204   4.596   4.133 -0.3110  1.3400 -0.8180
 4578TIP3    H235150   3.067   4.608   4.069 -1.3516 -2.0562  0.5841
 4579TIP3   OH235151   3.902   0.702   5.318  0.1856 -0.0350  0.0157
 4579TIP3    H135152   3.949   0.619   5.331  0.3271  0.1922  1.0514
 4579TIP3    H235153   3.810   0.677   5.320  0.2404 -0.4266 -1.6113
 4580TIP3   OH235154   6.064   3.502  12.985 -0.3580 -0.3250 -0.2427
 4580TIP3    H135155   6.101   3.542  13.064  0.5090  1.3087 -1.4333
 4580TIP3    H235156   6.132   3.442  12.954 -0.0687  0.1610 -0.5636
 4581TIP3   OH235157   3.635   3.893  14.227  0.2426 -0.1821  0.1690
 4581TIP3    H135158   3.572   3.842  14.177 -0.6966  0.8071  0.2930
 4581TIP3    H235159   3.719   3.850  14.212 -0.4692 -1.5892  0.0795
 4582TIP3   OH235160   3.096   1.576   0.798  0.1132 -0.1289 -0.1878
 4582TIP3    H135161   3.102   1.499   0.743 -1.7541 -0.3847 -0.0754
 4582TIP3    H235162   3.019   1.562   0.853  1.2116  0.6534  1.6800
 4583TIP3   OH235163   1.298   1.193  12.307 -0.1187  0.1826 -0.0805
 4583TIP3    H135164   1.229   1.127  12.306 -0.6108  0.6797 -1.1917
 4583TIP3    H235165   1.376   1.148  12.277 -0.1369 -0.2022  0.4440
 4584TIP3   OH235166   4.763   1.931  15.656  0.0955  0.2531 -0.2496
 4584TIP3    H135167   4.681   1.912  15.610 -0.0790  1.2842 -0.3826
 4584TIP3    H235168   4.795   1.845  15.684 -0.0251 -0.3733 -1.8862
 4585TIP3   OH235169   1.919   1.055   4.208 -0.3243  0.2202  0.0780
 4585TIP3    H135170   1.837   1.063   4.158 -0.4804 -2.2521 -0.2046
 4585TIP3    H235171   1.890   1.053   4.300 -0.2500  2.3632  0.1981
 4586TIP3   OH235172   1.100   1.325   4.073 -0.4024 -0.1311 -0.5200
 4586TIP3    H135173   1.116   1.419   4.061 -0.2457 -0.3115 -1.9234
 4586TIP3    H235174   1.111   1.310   4.167  0.3410  1.1174 -0.3896
 4587TIP3   OH235175   4.821   2.135  14.465 -0.1619 -0.3895  0.3011
 4587TIP3    H135176   4.850   2.223  14.441 -1.2635  0.2692  1.2694
 4587TIP3    H235177   4.901   2.089  14.488  0.3871  0.5483  0.3340
 4588TIP3   OH235178   5.653   1.888   2.554 -0.2840  0.6336  0.4841
 4588TIP3    H135179   5.680   1.799   2.576  1.6524  0.9380 -0.4605
 4588TIP3    H235180   5.727   1.943   2.578 -0.5812  1.7133 -0.8939
 4589TIP3   OH235181   4.569   3.965   0.973 -0.4537 -0.3971  0.1739
 4589TIP3    H135182   4.484   3.922   0.982 -0.2305 -0.5850  1.6226
 4589TIP3    H235183   4.633   3.895   0.988 -0.0003 -0.4217 -1.6488
 4590TIP3   OH235184   4.567   4.865  13.466  0.1798 -0.0508 -0.4090
 4590TIP3    H135185   4.520   4.849  13.548 -2.5630 -0.3306 -1.9049
 4590TIP3    H235186   4.616   4.945  13.483 -1.5429  0.7932  1.0650
 4591TIP3   OH235187   1.209   3.044  12.540 -0.3956  0.7701  0.2793
 4591TIP3    H135188   1.148   2.973  12.558 -0.4344  0.5801 -0.5951
 4591TIP3    H235189   1.286   3.023  12.593 -1.1169  1.0840  1.4929
 4592TIP3   OH235190   0.028   0.960  16.427  0.0526  0.5382  0.0231
 4592TIP3    H135191  -0.027   1.025  16.384 -0.0518  0.0917 -0.5337
 4592TIP3    H235192  -0.014   0.876  16.407 -0.0353  0.3273  1.0593
 4593TIP3   OH235193   0.512   2.135   1.925  0.2177 -0.1770  0.4447
 4593TIP3    H135194   0.471   2.165   2.006  0.1488  2.3462 -0.4261
 4593TIP3    H235195   0.439   2.126   1.863  0.3916 -1.0275  0.3545
 4594TIP3   OH235196   6.453   3.585   1.263 -0.0550  0.3878  0.3483
 4594TIP3    H135197   6.419   3.643   1.195  0.3655  1.3954  0.9836
 4594TIP3    H235198   6.547   3.582   1.248 -0.1176 -0.4516  0.0822
 4595TIP3   OH235199   4.538   3.360  14.360  0.1917  0.2225 -0.3749
 4595TIP3    H135200   4.537   3.323  14.272  1.4087 -1.9526  0.4451
 4595TIP3    H235201   4.595   3.302  14.410  1.3399  2.6579  1.3433
 4596TIP3   OH235202   3.209   5.026  12.378  0.2085 -0.7787 -0.6275
 4596TIP3    H135203   3.206   5.093  12.446  3.2535 -0.0182 -1.1074
 4596TIP3    H235204   3.295   4.986  12.388 -1.0172 -3.8421 -1.1582
 4597TIP3   OH235205   3.002   2.295  14.531 -0.2266 -0.5291  0.2214
 4597TIP3    H135206   3.051   2.214  14.515  0.7590  0.1827 -0.4918
 4597TIP3    H235207   3.029   2.321  14.619  0.0230 -0.5976  0.1677
 4598TIP3   OH235208   6.280   6.329  16.423  0.2038 -0.0211 -0.0421
 4598TIP3    H135209   6.363   6.308  16.382 -0.4606 -0.4434 -1.2189
 4598TIP3    H235210   6.218   6.335  16.351 -1.1407 -1.4339  0.9341
 4599TIP3   OH235211   5.107   2.111  14.199  0.0287  0.2359  0.2720
 4599TIP3    H135212   5.044   2.044  14.226 -0.0635 -0.2809 -1.1403
 4599TIP3    H235213   5.070   2.148  14.119  1.7727 -0.5129 -0.9445
 4600TIP3   OH235214   3.318   4.371   4.780  0.1656  0.1454 -0.6614
 4600TIP3    H135215   3.317   4.290   4.831 -0.5854  0.0890 -0.7531
 4600TIP3    H235216   3.386   4.357   4.714 -0.8629 -0.9620 -1.5323
 4601TIP3   OH235217   4.804   3.191   1.870  0.3399  0.0037 -0.0672
 4601TIP3    H135218   4.875   3.166   1.929 -1.4359  0.0223  2.2350
 4601TIP3    H235219   4.804   3.287   1.871  1.0036  0.0262 -1.0380
 4602TIP3   OH235220   0.883   3.386   2.210  0.7740 -0.2704 -0.1395
 4602TIP3    H135221   0.908   3.478   2.208  0.2425 -0.0691  1.5777
 4602TIP3    H235222   0.820   3.376   2.138  1.6155  0.4428 -0.9991
 4603TIP3   OH235223   6.469   5.470   4.538  0.6227 -0.7378  0.4149
 4603TIP3    H135224   6.470   5.431   4.450  2.6946 -0.4340  0.2589
 4603TIP3    H235225   6.380   5.457   4.569 -0.0143 -1.3222 -1.5303
 4604TIP3   OH235226   6.755   4.831   0.066  0.0556  0.1336 -0.0363
 4604TIP3    H135227   6.741   4.899   0.132 -0.4309 -0.6505  0.6759
 4604TIP3    H235228   6.770   4.751   0.116 -1.1306 -0.6382 -0.8569
 4605TIP3   OH235229   2.363   6.202  13.214 -0.1772  0.7527 -0.3620
 4605TIP3    H135230   2.456   6.219  13.232  0.0201 -0.2712 -0.3665
 4605TIP3    H235231   2.364   6.156  13.130 -0.6739  0.5463 -0.2562
 4606TIP3   OH235232   4.420   3.988  16.643 -0.4720  0.1082  0.4363
 4606TIP3    H135233   4.343   3.945  16.606  0.2676 -1.9365  1.1760
 4606TIP3    H235234   4.401   4.082  16.634 -3.0925 -0.3206  0.7210
 4607TIP3   OH235235   0.023   2.478  14.655 -0.2226  0.5327  0.4839
 4607TIP3    H135236   0.013   2.573  14.657 -0.2013  0.5277  1.9922
 4607TIP3    H235237   0.073   2.460  14.575 -0.1437  1.7957  0.2423
 4608TIP3   OH235238   0.419   6.172   3.199  0.8614  0.0277  0.6275
 4608TIP3    H135239   0.479   6.238   3.163  2.4013 -0.4516  2.1672
 4608TIP3    H235240   0.357   6.155   3.128  0.8327  2.5925 -0.0635
 4609TIP3   OH235241   1.059   3.488  17.026 -0.2727  0.7852 -0.1189
 4609TIP3    H135242   1.021   3.410  17.065  2.1616 -1.6506 -2.1864
 4609TIP3    H235243   0.986   3.531  16.981 -1.4960 -0.8897  0.1887
 4610TIP3   OH235244   3.047   2.780   6.727  0.2991 -0.1161 -0.5992
 4610TIP3    H135245   3.034   2.705   6.669  1.3645 -2.1560  1.5959
 4610TIP3    H235246   2.981   2.769   6.795  1.1137  0.3014  0.2951
 4611TIP3   OH235247   3.948   1.834   6.239 -0.3938 -0.1759 -0.2788
 4611TIP3    H135248   3.952   1.923   6.274  1.4170 -0.7438  1.1578
 4611TIP3    H235249   4.039   1.813   6.216 -0.7544 -1.6748 -0.4824
 4612TIP3   OH235250   6.347   2.895  13.238 -0.7058  0.2806 -0.2506
 4612TIP3    H135251   6.325   2.852  13.156  0.4870 -2.0776  0.5677
 4612TIP3    H235252   6.276   2.958  13.252 -0.9553  0.7137 -3.0112
 4613TIP3   OH235253   0.209   3.578  14.732 -0.4353 -0.1784 -1.0602
 4613TIP3    H135254   0.253   3.498  14.761  0.9861  0.9989  0.2354
 4613TIP3    H235255   0.259   3.605  14.655  0.0187  0.1908 -0.6508
 4614TIP3   OH235256   1.982   4.987   5.141  0.1169 -0.1735  0.5906
 4614TIP3    H135257   1.901   4.947   5.173  0.2316 -0.0824  0.9895
 4614TIP3    H235258   2.051   4.927   5.169  0.2009 -0.1811  0.3682
 4615TIP3   OH235259   4.030   0.575  13.730  0.8611 -0.2229 -0.0755
 4615TIP3    H135260   4.011   0.631  13.805  1.3398 -0.8711  0.5428
 4615TIP3    H235261   4.044   0.636  13.657 -1.8765  0.3783 -0.2162
 4616TIP3   OH235262   4.371   5.724   1.508 -0.1125 -0.3942  0.0787
 4616TIP3    H135263   4.376   5.689   1.597 -0.4659  0.7789  0.5782
 4616TIP3    H235264   4.297   5.677   1.468  0.4399 -1.3709  0.1879
 4617TIP3   OH235265   2.894   2.103  16.028 -0.5328  0.1108  0.0479
 4617TIP3    H135266   2.857   2.039  16.089 -2.0081  2.7171  2.1587
 4617TIP3    H235267   2.966   2.143  16.077 -1.1037  1.5922 -0.2717
 4618TIP3   OH235268   1.023   4.348  13.089  0.0598  0.9797 -0.1974
 4618TIP3    H135269   0.950   4.362  13.150 -0.2088  0.1514 -0.3129
 4618TIP3    H235270   1.078   4.426  13.099 -0.7783  1.5641 -0.0196
 4619TIP3   OH235271   4.443   5.908   1.258 -0.0553  0.2402  0.2987
 4619TIP3    H135272   4.379   5.847   1.222 -0.9482  0.6431  1.1563
 4619TIP3    H235273   4.410   5.929   1.345  1.4132  0.2289  0.8881
 4620TIP3   OH235274   3.405   2.461  16.573  0.0232  0.5673 -0.1936
 4620TIP3    H135275   3.362   2.546  16.586 -1.0533  0.6513 -3.5480
 4620TIP3    H235276   3.334   2.397  16.580  0.3965  0.1503 -0.1548
 4621TIP3   OH235277   3.335   5.119  11.986  0.6116 -0.0532  0.4230
 4621TIP3    H135278   3.388   5.098  12.062  1.6647  1.1790  0.0651
 4621TIP3    H235279   3.317   5.035  11.944 -0.0958 -0.7611  2.0717
 4622TIP3   OH235280   2.715   4.904  14.999  0.0949 -0.1041  0.4941
 4622TIP3    H135281   2.658   4.978  15.018 -0.2525  0.1893 -1.5642
 4622TIP3    H235282   2.801   4.943  14.984 -0.2873  0.0550 -1.5709
 4623TIP3   OH235283   3.748   4.321   3.466 -0.1306  0.5235 -0.3067
 4623TIP3    H135284   3.727   4.234   3.432  0.3953 -0.0763  0.8424
 4623TIP3    H235285   3.736   4.314   3.560 -1.6374  2.1691 -0.3150
 4624TIP3   OH235286   0.926   2.258   0.290  0.1306 -0.4196 -0.2006
 4624TIP3    H135287   0.953   2.272   0.381 -1.5882 -0.6454  0.3827
 4624TIP3    H235288   0.918   2.163   0.282 -2.0374 -0.3118  0.1704
 4625TIP3   OH235289   0.573   3.811  16.056 -0.1547 -0.7600  0.2603
 4625TIP3    H135290   0.496   3.780  16.104 -0.8277  0.1020 -0.2348
 4625TIP3    H235291   0.607   3.883  16.109  0.5867 -1.4187  0.7035
 4626TIP3   OH235292   4.227   2.357   4.835  0.1397 -0.4762  0.5207
 4626TIP3    H135293   4.321   2.356   4.853  0.5068 -0.1426 -1.2006
 4626TIP3    H235294   4.187   2.376   4.920  1.6407 -0.1842  1.2024
 4627TIP3   OH235295   1.556   3.482   5.906  0.1722 -0.9639 -0.1470
 4627TIP3    H135296   1.625   3.534   5.866 -0.0405  0.3265  1.0935
 4627TIP3    H235297   1.594   3.450   5.988 -0.5646 -0.5052  0.3950
 4628TIP3   OH235298   3.929   6.750  11.535  0.3982  0.4400  0.6287
 4628TIP3    H135299   3.978   6.823  11.499 -0.4250  2.0282  2.5143
 4628TIP3    H235300   3.853   6.791  11.578 -1.6413 -1.7621 -0.6401
 4629TIP3   OH235301   2.852   5.977   6.048 -0.7285  0.3050  0.6596
 4629TIP3    H135302   2.819   5.921   6.119  0.4839  0.4765  1.3859
 4629TIP3    H235303   2.817   6.064   6.068 -1.0382  0.2000  0.5903
 4630TIP3   OH235304   5.667   2.766   4.029  0.5884 -0.2061 -0.3920
 4630TIP3    H135305   5.666   2.727   3.942 -0.3679 -1.8535  0.2993
 4630TIP3    H235306   5.673   2.691   4.089 -0.7847  0.7298  0.9967
 4631TIP3   OH235307   2.288   0.642  12.988  0.2879  0.6353  0.2397
 4631TIP3    H135308   2.325   0.614  13.072  0.5432  1.4626  0.4089
 4631TIP3    H235309   2.349   0.709  12.956 -0.6424  1.4403  0.1347
 4632TIP3   OH235310   1.886   5.519   5.554 -0.0496  0.1319 -0.4680
 4632TIP3    H135311   1.970   5.497   5.595 -0.4330  1.4782  1.1949
 4632TIP3    H235312   1.859   5.439   5.509  0.3987 -1.5652  2.0415
 4633TIP3   OH235313   0.155   2.444  11.219  0.0957  0.0232  0.2285
 4633TIP3    H135314   0.235   2.490  11.192  0.1496 -0.3670 -0.2855
 4633TIP3    H235315   0.084   2.505  11.196  0.2331  0.3555  0.6561
 4634TIP3   OH235316   0.158   1.460   4.508  0.3094 -0.0332 -0.0320
 4634TIP3    H135317   0.208   1.531   4.468 -1.5060  0.7431 -1.0730
 4634TIP3    H235318   0.126   1.497   4.591  1.4998 -0.5750  0.6994
 4635TIP3   OH235319   5.790   2.065  15.123  0.2342  0.6785  0.0339
 4635TIP3    H135320   5.806   1.993  15.184 -0.4095 -0.3123 -0.9307
 4635TIP3    H235321   5.760   2.137  15.178  1.5935  0.4694  1.1074
 4636TIP3   OH235322   4.194   2.447  11.257  0.1765  0.3936 -0.8175
 4636TIP3    H135323   4.284   2.473  11.274  0.1904 -0.3782  0.4790
 4636TIP3    H235324   4.145   2.529  11.256  0.7182  0.7319 -0.2638
 4637TIP3   OH235325   6.135   3.888   5.444  0.0421 -0.1609 -0.1407
 4637TIP3    H135326   6.095   3.974   5.441  0.7812  0.1950  0.0042
 4637TIP3    H235327   6.064   3.828   5.421 -0.3072  0.5392 -0.9416
 4638TIP3   OH235328   0.020   1.131   3.795 -0.8686 -0.3053 -0.0983
 4638TIP3    H135329   0.045   1.218   3.764 -0.3660 -0.2483  0.4423
 4638TIP3    H235330  -0.056   1.108   3.742 -0.1369 -0.1495 -1.2535
 4639TIP3   OH235331   1.504   4.665   4.675  0.7420  0.0064 -0.2169
 4639TIP3    H135332   1.494   4.621   4.760  0.9750 -0.8735 -0.6341
 4639TIP3    H235333   1.574   4.616   4.631 -1.7641 -1.9244 -2.3790
 4640TIP3   OH235334   2.715   2.466   4.681 -0.1101  0.4424 -0.8334
 4640TIP3    H135335   2.750   2.381   4.707 -0.3404  0.7518  0.5597
 4640TIP3    H235336   2.658   2.492   4.753 -2.1081  0.6225 -2.4014
 4641TIP3   OH235337   1.448   4.881  16.591  0.1150 -0.3664  0.6455
 4641TIP3    H135338   1.413   4.844  16.510 -0.1644  1.1074  0.0565
 4641TIP3    H235339   1.506   4.951  16.562  1.3943 -0.9496  1.6950
 4642TIP3   OH235340   1.999   1.863   4.552  0.0085  0.5602  0.4106
 4642TIP3    H135341   1.916   1.874   4.506  0.0189 -0.9044 -0.0087
 4642TIP3    H235342   1.977   1.810   4.629  0.6067 -0.2435  0.0470
 4643TIP3   OH235343   3.201   2.636   3.634  0.3782  0.2812  0.3357
 4643TIP3    H135344   3.279   2.580   3.641  0.4851  0.3846  0.0021
 4643TIP3    H235345   3.213   2.683   3.552 -0.2777 -0.0701  0.0293
 4644TIP3   OH235346   6.613   6.457   3.968  0.6806  0.1959  0.4825
 4644TIP3    H135347   6.658   6.454   4.052 -0.0197  1.4191  0.9233
 4644TIP3    H235348   6.683   6.476   3.904  1.1323 -0.2290  0.8441
 4645TIP3   OH235349   0.866   3.860   0.716  0.0566 -0.0722 -1.3270
 4645TIP3    H135350   0.959   3.841   0.726  0.0707  0.5790 -0.0325
 4645TIP3    H235351   0.857   3.953   0.741 -1.1756 -0.5801  0.3357
 4646TIP3   OH235352   6.599   3.300  14.295 -0.0698 -0.2226 -0.0190
 4646TIP3    H135353   6.662   3.339  14.235  0.7750 -1.2121  0.1875
 4646TIP3    H235354   6.645   3.301  14.380  0.5987 -2.9347 -0.2716
 4647TIP3   OH235355   2.907   4.366  14.181 -0.0804  0.3244  0.3226
 4647TIP3    H135356   2.997   4.332  14.173 -0.5929 -0.7791 -1.4631
 4647TIP3    H235357   2.870   4.319  14.256 -0.0308 -1.4243 -0.6849
 4648TIP3   OH235358   3.386   1.335   1.732  0.3223 -0.4180 -0.2623
 4648TIP3    H135359   3.470   1.377   1.713 -0.3886  0.8581 -0.7203
 4648TIP3    H235360   3.351   1.383   1.807  0.5037 -1.6966  0.6717
 4649TIP3   OH235361   2.647   6.203  12.506 -0.0053  0.4513 -0.2963
 4649TIP3    H135362   2.573   6.174  12.559  0.8091 -2.9741 -0.8470
 4649TIP3    H235363   2.724   6.186  12.560  0.5724  1.3190 -0.8170
 4650TIP3   OH235364   2.255   4.744  16.117  0.3257 -0.4389  0.0308
 4650TIP3    H135365   2.270   4.821  16.172  0.3636 -1.4497  1.4751
 4650TIP3    H235366   2.322   4.681  16.143 -1.0663 -1.7969  0.4936
 4651TIP3   OH235367   0.154   1.817  10.335 -0.7644  0.0895  0.0799
 4651TIP3    H135368   0.107   1.897  10.357 -0.9120  0.3166 -1.0170
 4651TIP3    H235369   0.246   1.842  10.338 -0.8417  0.8580 -2.1568
 4652TIP3   OH235370   5.031   3.815   3.714 -0.0688 -0.0384 -0.2683
 4652TIP3    H135371   5.025   3.853   3.802 -2.3246  1.3824 -0.9380
 4652TIP3    H235372   5.065   3.727   3.728 -0.4020  0.1318  2.0510
 4653TIP3   OH235373   0.887   1.508   3.516  0.1789 -0.3368  0.4098
 4653TIP3    H135374   0.825   1.575   3.547 -1.1214 -1.0132 -0.6159
 4653TIP3    H235375   0.959   1.511   3.578 -1.0829  0.2000  1.9004
 4654TIP3   OH235376   1.030   1.483  16.976  0.3627  0.3420 -0.0318
 4654TIP3    H135377   1.086   1.516  17.046 -0.5477  3.5887 -0.6576
 4654TIP3    H235378   1.038   1.548  16.906 -0.4501 -1.6497 -2.0979
 4655TIP3   OH235379   6.179   6.243   1.804 -0.0046 -0.1047  1.0681
 4655TIP3    H135380   6.132   6.197   1.735 -0.1533 -1.2727  1.9150
 4655TIP3    H235381   6.121   6.315   1.829  0.1065  0.4076 -0.0857
 4656TIP3   OH235382   4.847   4.526  12.583 -0.0141 -0.0851  0.2483
 4656TIP3    H135383   4.808   4.563  12.503 -1.5832  2.7216  2.1043
 4656TIP3    H235384   4.842   4.432  12.571 -2.9591  0.1829 -1.7632
 4657TIP3   OH235385   1.508   5.578  14.814  0.5174 -0.2545  0.5468
 4657TIP3    H135386   1.436   5.641  14.821  1.3292  0.6908  0.6160
 4657TIP3    H235387   1.569   5.604  14.883  2.0831  0.5180 -1.0637
 4658TIP3   OH235388   4.958   3.952  15.790 -0.1117  0.1516  0.5218
 4658TIP3    H135389   4.975   4.005  15.867 -3.9822  0.0997  1.5981
 4658TIP3    H235390   4.990   3.865  15.814 -0.8366  0.2451  1.9176
 4659TIP3   OH235391   4.461   5.092   4.303  0.0192 -0.0385 -0.4962
 4659TIP3    H135392   4.374   5.116   4.270 -1.0263 -2.9679 -0.1852
 4659TIP3    H235393   4.493   5.028   4.241  1.1835 -0.3005  0.3463
 4660TIP3   OH235394   0.016   1.815   4.531 -0.6785 -0.4056 -0.1730
 4660TIP3    H135395   0.062   1.778   4.606 -0.5398 -1.3086 -0.7014
 4660TIP3    H235396  -0.064   1.763   4.523 -0.3615 -0.7792 -1.0716
 4661TIP3   OH235397   0.599   2.413  15.932 -0.2355  0.0955  0.0354
 4661TIP3    H135398   0.652   2.482  15.891 -0.8389 -0.1719 -1.2502
 4661TIP3    H235399   0.653   2.335  15.927 -0.4717 -0.0297 -0.6617
 4662TIP3   OH235400   4.069   4.892  14.782 -0.8075 -0.3625  0.5522
 4662TIP3    H135401   4.025   4.928  14.705 -0.1388 -0.2361  0.2245
 4662TIP3    H235402   4.161   4.914  14.769 -0.5220 -1.3767  0.8159
 4663TIP3   OH235403   6.629   0.737  12.266  0.0757 -0.2773 -0.1169
 4663TIP3    H135404   6.621   0.731  12.171 -1.3458 -0.0697 -0.0163
 4663TIP3    H235405   6.556   0.791  12.294  0.8478  0.2085  1.0515
 4664TIP3   OH235406   2.862   0.401  15.348  0.3460  0.6542  0.1336
 4664TIP3    H135407   2.854   0.314  15.310  0.3594  0.4501  0.5976
 4664TIP3    H235408   2.891   0.456  15.275  1.3724  0.0686  0.0802
 4665TIP3   OH235409   1.664   1.171  16.993  0.5520  0.1030  0.2839
 4665TIP3    H135410   1.671   1.083  16.956  1.3152  0.2975 -0.0457
 4665TIP3    H235411   1.617   1.221  16.926  2.3788  0.5852 -0.7037
 4666TIP3   OH235412   2.087   5.914  13.317 -0.4374  0.3612  0.3570
 4666TIP3    H135413   2.027   5.854  13.360 -1.5783  1.4719  0.3494
 4666TIP3    H235414   2.103   5.874  13.231 -2.1417  0.6542 -0.1223
 4667TIP3   OH235415   6.165   5.835   2.431 -0.1426 -0.0111 -0.5187
 4667TIP3    H135416   6.211   5.916   2.452 -0.7275  0.4875 -1.0926
 4667TIP3    H235417   6.225   5.765   2.457  0.7953  0.6107 -0.9609
 4668TIP3   OH235418   1.757   5.714   4.816 -0.2406  0.3731  0.2466
 4668TIP3    H135419   1.780   5.621   4.813 -0.1328  0.4259 -1.2255
 4668TIP3    H235420   1.668   5.716   4.852 -0.3421 -0.3239  0.0445
 4669TIP3   OH235421   5.474   0.135  11.209  0.0041  0.2501 -0.3391
 4669TIP3    H135422   5.417   0.090  11.272  1.0388  0.1193  0.5365
 4669TIP3    H235423   5.468   0.082  11.130 -0.5642 -0.1400 -0.0440
 4670TIP3   OH235424   6.465   2.583   1.404  0.3690 -0.5246 -0.2513
 4670TIP3    H135425   6.492   2.509   1.349  1.3736  0.5631 -1.2838
 4670TIP3    H235426   6.541   2.601   1.459 -0.1223 -0.6893  0.4937
 4671TIP3   OH235427   0.244   2.222  13.382  0.2750 -0.6730 -0.3272
 4671TIP3    H135428   0.213   2.172  13.458  0.6145 -0.3503  0.0277
 4671TIP3    H235429   0.224   2.313  13.404 -3.2841 -0.7918 -2.3056
 4672TIP3   OH235430   1.789   1.898   3.640  0.1477 -0.6062 -0.2301
 4672TIP3    H135431   1.813   1.989   3.621  0.5126 -0.7450 -0.4342
 4672TIP3    H235432   1.866   1.847   3.616  0.2072 -0.8976  0.5517
 4673TIP3   OH235433   0.103   6.482  13.082 -0.3046 -0.1926 -0.1275
 4673TIP3    H135434   0.081   6.396  13.044  1.6350 -0.1493 -1.4598
 4673TIP3    H235435   0.023   6.508  13.128 -1.5093 -1.9473 -1.0936
 4674TIP3   OH235436   3.015   4.563   3.323  0.0633  0.4198  0.5820
 4674TIP3    H135437   3.054   4.650   3.310  1.0638  0.1025  1.2940
 4674TIP3    H235438   3.068   4.524   3.392  1.0554 -1.6478 -1.2520
 4675TIP3   OH235439   4.263   3.547  12.423  0.0571  0.0358 -0.3609
 4675TIP3    H135440   4.207   3.494  12.480 -0.3191  2.1134  1.3481
 4675TIP3    H235441   4.349   3.546  12.466 -0.5258  2.6067  1.0599
 4676TIP3   OH235442   4.391   5.716  15.826 -0.1326 -0.2434  0.5907
 4676TIP3    H135443   4.469   5.761  15.794 -0.8697 -0.6238 -1.9647
 4676TIP3    H235444   4.395   5.630  15.784 -1.1214 -0.8435  1.6916
 4677TIP3   OH235445   0.432   5.926   0.060 -0.2896 -0.2662 -0.1746
 4677TIP3    H135446   0.357   5.923   0.120 -0.4817  0.9906 -0.3208
 4677TIP3    H235447   0.427   5.845   0.011 -1.3167 -0.3885  0.1164
 4678TIP3   OH235448   0.452   3.689   4.245 -0.3542 -0.2779 -0.3932
 4678TIP3    H135449   0.392   3.764   4.238 -1.3378 -1.0403 -0.4004
 4678TIP3    H235450   0.420   3.640   4.320 -0.3652 -1.2370 -1.0103
 4679TIP3   OH235451   5.082   3.364   4.416 -0.5711 -0.2963 -0.3477
 4679TIP3    H135452   5.074   3.283   4.367 -1.5595 -0.4883  0.1026
 4679TIP3    H235453   5.038   3.430   4.362 -1.8780 -0.5575  0.3564
 4680TIP3   OH235454   0.037   2.537   1.455  0.1005  0.2291 -0.5214
 4680TIP3    H135455  -0.013   2.612   1.487  1.0078  1.0449 -0.9647
 4680TIP3    H235456   0.012   2.465   1.514 -2.0445  0.4280 -1.1041
 4681TIP3   OH235457   2.623   0.077  14.405  0.5925 -0.3637  0.2428
 4681TIP3    H135458   2.687   0.118  14.346  0.5015 -0.5091  0.0390
 4681TIP3    H235459   2.550   0.053  14.347 -0.1216  0.7617  0.6298
 4682TIP3   OH235460   3.323   2.482  11.213 -0.1277 -0.6414 -0.2098
 4682TIP3    H135461   3.328   2.429  11.133  3.9910 -0.3130 -0.3731
 4682TIP3    H235462   3.354   2.423  11.282  1.3766  0.5434  0.1695
 4683TIP3   OH235463   3.052   0.239   2.337  0.4586 -0.0801 -0.4733
 4683TIP3    H135464   2.994   0.283   2.399  0.0003 -0.9824 -0.2441
 4683TIP3    H235465   3.046   0.291   2.256  0.6203  0.7723  0.0545
 4684TIP3   OH235466   4.995   4.746  15.819  0.1389 -0.4516 -0.0638
 4684TIP3    H135467   4.911   4.785  15.796  0.9545  1.3309 -0.1414
 4684TIP3    H235468   4.981   4.707  15.905 -0.7818 -0.2068 -0.0991
 4685TIP3   OH235469   4.110   2.227   3.832  0.2297  0.3049  0.0767
 4685TIP3    H135470   4.057   2.282   3.890  0.8756  0.6957  0.3072
 4685TIP3    H235471   4.081   2.138   3.851 -0.2392  0.5010  0.3050
 4686TIP3   OH235472   5.354   3.506  14.426 -0.4936  0.5105 -0.6088
 4686TIP3    H135473   5.275   3.460  14.455  1.2893 -2.5987 -0.1791
 4686TIP3    H235474   5.341   3.518  14.332 -2.1343  1.5390 -0.2733
 4687TIP3   OH235475   3.792   5.813  13.274 -0.0363  0.0914  0.1269
 4687TIP3    H135476   3.800   5.905  13.299  1.6912  0.0147 -0.0306
 4687TIP3    H235477   3.792   5.813  13.179  0.1846 -0.0784  0.1249
 4688TIP3   OH235478   5.975   3.052  16.407 -0.2680 -0.3112  0.3888
 4688TIP3    H135479   6.013   3.089  16.487 -1.3815 -0.7262  1.1437
 4688TIP3    H235480   5.911   3.118  16.378 -0.4483 -0.5172  0.3102
 4689TIP3   OH235481   5.734   2.276  13.489 -0.1650  0.2655 -0.4367
 4689TIP3    H135482   5.701   2.255  13.402  0.8393 -0.0463 -0.7600
 4689TIP3    H235483   5.676   2.345  13.521  0.5587  1.7273 -2.1257
 4690TIP3   OH235484   6.179   3.978   2.966 -0.6277 -0.1274  0.0441
 4690TIP3    H135485   6.167   3.915   3.036 -2.3440  1.5296  1.3435
 4690TIP3    H235486   6.246   4.039   2.999 -2.5584  1.5745  1.0370
 4691TIP3   OH235487   4.359   5.115  13.699 -0.9851 -0.2435 -0.8567
 4691TIP3    H135488   4.361   5.186  13.636  0.5626 -1.1781 -1.9179
 4691TIP3    H235489   4.450   5.089  13.710 -0.6401  1.9425  4.2547
 4692TIP3   OH235490   6.593   0.901  12.786  0.2053  0.1221  0.2060
 4692TIP3    H135491   6.553   0.860  12.709 -1.3780 -0.7615  1.4278
 4692TIP3    H235492   6.622   0.987  12.755  1.5133 -0.9730 -1.8584
 4693TIP3   OH235493   3.174   0.763  16.008 -0.0317  0.8023 -0.6668
 4693TIP3    H135494   3.173   0.669  16.023 -0.8540  0.7915 -0.7558
 4693TIP3    H235495   3.087   0.783  15.973 -1.1446  2.0935  2.4988
 4694TIP3   OH235496   2.853   3.796   2.273  0.3820 -0.0437  0.3994
 4694TIP3    H135497   2.912   3.735   2.229  0.0667 -0.0311 -0.0489
 4694TIP3    H235498   2.903   3.877   2.282  0.9778 -0.5006  1.4338
 4695TIP3   OH235499   2.456   5.248  16.253 -0.0312  0.4062  0.2227
 4695TIP3    H135500   2.365   5.258  16.223 -0.3010 -0.5410  0.6741
 4695TIP3    H235501   2.474   5.329  16.301 -0.5504  0.7129 -0.0892
 4696TIP3   OH235502   6.340   4.849   0.697 -0.1942  0.6374  0.5198
 4696TIP3    H135503   6.386   4.765   0.704  1.7754  1.7134  1.0718
 4696TIP3    H235504   6.331   4.879   0.787  0.5638  1.7499  0.2459
 4697TIP3   OH235505   2.813   1.332   5.010 -0.2113 -0.1156  0.1297
 4697TIP3    H135506   2.732   1.373   5.040 -0.0589  1.5405 -1.5691
 4697TIP3    H235507   2.802   1.323   4.916  1.4120 -0.2731 -0.0681
 4698TIP3   OH235508   5.451   5.039   1.214  0.1519 -0.1695  0.4793
 4698TIP3    H135509   5.534   5.077   1.244  0.0740  0.1291  0.3208
 4698TIP3    H235510   5.444   4.956   1.261  1.6893 -1.3316 -1.2205
 4699TIP3   OH235511   4.670   3.053   4.308  1.4530 -0.6359 -0.8310
 4699TIP3    H135512   4.625   3.088   4.231  2.5963  0.3453 -1.0912
 4699TIP3    H235513   4.644   2.961   4.311 -0.0755 -0.2482 -1.2896
 4700TIP3   OH235514   1.612   0.240   1.337  0.0740 -0.0706  0.0044
 4700TIP3    H135515   1.696   0.249   1.380 -0.4404  1.0200  0.8310
 4700TIP3    H235516   1.633   0.234   1.244  1.0571  0.2170  0.2034
 4701TIP3   OH235517   1.387   1.572   3.961  0.4354  0.0950  0.3388
 4701TIP3    H135518   1.415   1.637   3.896  1.2832 -0.2616  0.3216
 4701TIP3    H235519   1.304   1.605   3.994  1.6882  2.1785  1.6722
 4702TIP3   OH235520   5.777   5.550  16.179  0.6824 -0.2175  0.1964
 4702TIP3    H135521   5.683   5.563  16.187  0.8381  0.9580  0.4325
 4702TIP3    H235522   5.799   5.486  16.247  0.1796  0.1731  0.7370
 4703TIP3   OH235523   3.404   3.880   1.630  0.3250 -0.0994  0.0258
 4703TIP3    H135524   3.316   3.918   1.626  0.1459 -0.3005  1.3312
 4703TIP3    H235525   3.425   3.857   1.540 -0.9635 -0.0354 -0.3144
 4704TIP3   OH235526   2.417   3.459   3.894  0.0518 -0.1139  0.3314
 4704TIP3    H135527   2.437   3.386   3.835  2.7891 -0.0575  1.0459
 4704TIP3    H235528   2.335   3.496   3.861 -0.4861 -2.4164 -1.0928
 4705TIP3   OH235529   1.804   1.827   5.814  0.8699  0.3749 -0.0250
 4705TIP3    H135530   1.798   1.842   5.908  0.8621  0.2411 -0.0045
 4705TIP3    H235531   1.742   1.757   5.797  2.1425 -0.8441  0.1469
 4706TIP3   OH235532   2.456   3.025   3.093 -0.2661  0.0570 -0.1403
 4706TIP3    H135533   2.522   2.961   3.065 -0.6922 -0.4287 -0.0408
 4706TIP3    H235534   2.494   3.067   3.170 -0.1209 -0.2919 -0.0222
 4707TIP3   OH235535   3.587   2.553   6.752 -0.1055  0.2861 -0.2864
 4707TIP3    H135536   3.665   2.604   6.773  0.8041 -0.1012 -2.4709
 4707TIP3    H235537   3.515   2.604   6.788  1.0610  1.1500  0.9371
 4708TIP3   OH235538   1.102   0.076  14.573 -0.0608 -0.5013 -0.3165
 4708TIP3    H135539   1.028   0.038  14.526  0.6398 -3.6827  0.8959
 4708TIP3    H235540   1.100   0.034  14.659  2.5609  0.0355  0.0950
 4709TIP3   OH235541   2.836   6.665  11.817 -0.3762  0.1671 -0.2086
 4709TIP3    H135542   2.879   6.584  11.789 -0.2998 -0.2627  1.0598
 4709TIP3    H235543   2.845   6.664  11.913 -3.2918 -0.0141  0.1518
 4710TIP3   OH235544   5.629   0.845  11.610 -1.1237  0.1033  0.0965
 4710TIP3    H135545   5.670   0.905  11.671 -1.0283 -0.2163  0.3495
 4710TIP3    H235546   5.586   0.901  11.545 -0.7978  0.4370  0.1727
 4711TIP3   OH235547   4.196   4.670   1.317  0.2457  0.0753 -0.3479
 4711TIP3    H135548   4.281   4.659   1.275  2.1254  3.5537  1.9989
 4711TIP3    H235549   4.149   4.732   1.262 -0.2963 -0.8831 -0.9860
 4712TIP3   OH235550   1.742   0.428   1.679 -0.0909  0.1262 -0.4372
 4712TIP3    H135551   1.764   0.399   1.591 -2.5858 -2.4855 -0.3237
 4712TIP3    H235552   1.647   0.440   1.678  0.2037  4.8442  0.7060
 4713TIP3   OH235553   5.395   4.433   5.402 -0.4323  0.3032  0.5699
 4713TIP3    H135554   5.470   4.476   5.361  0.0887  1.6291  2.7395
 4713TIP3    H235555   5.360   4.498   5.463 -1.2292 -1.4422  2.0899
 4714TIP3   OH235556   2.753   3.440  14.997 -0.4110  0.2033 -0.0138
 4714TIP3    H135557   2.741   3.346  14.986 -1.5085  0.5029 -1.6579
 4714TIP3    H235558   2.679   3.479  14.952 -0.2708  1.8653  1.1039
 4715TIP3   OH235559   6.578   4.201  17.098  0.4035 -0.3295  0.4082
 4715TIP3    H135560   6.515   4.175  17.165 -1.4475  1.8644 -0.3200
 4715TIP3    H235561   6.591   4.295  17.114  0.5654  0.0621 -1.7354
 4716TIP3   OH235562   2.104   0.345   1.005 -0.8272 -0.5408 -0.1194
 4716TIP3    H135563   2.160   0.272   0.979 -1.6483 -0.9567 -0.7416
 4716TIP3    H235564   2.018   0.325   0.969 -0.9576  0.9847 -0.7449
 4717TIP3   OH235565   0.526   0.962  14.233 -0.2036 -0.3199  0.1549
 4717TIP3    H135566   0.463   0.890  14.239  0.3378 -1.0832 -2.1546
 4717TIP3    H235567   0.473   1.040  14.223 -0.7939 -0.6057  1.0216
 4718TIP3   OH235568   3.956   3.298   4.704  0.4934 -0.0621 -0.4219
 4718TIP3    H135569   3.925   3.217   4.745  1.0401 -0.3027 -0.4749
 4718TIP3    H235570   3.940   3.365   4.771 -0.5330 -0.0978 -0.6118
 4719TIP3   OH235571   6.342   4.371   4.224 -0.7779  0.1204 -0.0672
 4719TIP3    H135572   6.332   4.286   4.267 -1.1072 -0.5627 -1.4338
 4719TIP3    H235573   6.253   4.407   4.220 -0.9812 -0.4584 -1.3771
 4720TIP3   OH235574   2.286   2.722  13.290  0.4794 -0.0226 -0.0752
 4720TIP3    H135575   2.214   2.704  13.351  0.2471 -1.6205 -0.7580
 4720TIP3    H235576   2.321   2.635  13.269  0.6638  0.4921 -2.0722
 4721TIP3   OH235577   0.348   5.942   2.099  0.2275 -0.1501  0.5662
 4721TIP3    H135578   0.405   5.991   2.039 -0.2412 -0.3214 -0.0291
 4721TIP3    H235579   0.394   5.860   2.115 -0.4954 -0.9296 -1.0936
 4722TIP3   OH235580   2.311   1.680   3.370 -0.2612 -0.0907 -0.4118
 4722TIP3    H135581   2.379   1.712   3.311  0.1648  1.1521  0.6958
 4722TIP3    H235582   2.356   1.666   3.453 -1.2632  0.3100  0.2189
 4723TIP3   OH235583   2.290   6.003   5.766  0.3409 -0.2991  0.0397
 4723TIP3    H135584   2.262   6.076   5.821 -0.5548 -1.0312  0.5887
 4723TIP3    H235585   2.257   6.025   5.679 -2.2937 -1.2530  0.7155
 4724TIP3   OH235586   1.560   5.583  15.672  0.0233 -0.0115 -0.3728
 4724TIP3    H135587   1.532   5.634  15.748 -1.5937  0.2792 -1.1235
 4724TIP3    H235588   1.483   5.532  15.647 -0.0916  1.2151 -2.8686
 4725TIP3   OH235589   3.300   1.396  12.424 -0.0737 -0.3029 -0.4101
 4725TIP3    H135590   3.218   1.420  12.466  0.5282  1.6992 -0.2651
 4725TIP3    H235591   3.359   1.376  12.496  0.0925  0.1493 -0.4147
 4726TIP3   OH235592   2.838   0.779  16.976  0.3868  0.2610  0.1381
 4726TIP3    H135593   2.887   0.698  16.964  0.4755 -0.2318  3.0857
 4726TIP3    H235594   2.751   0.760  16.940  0.2975 -1.3018  1.0853
 4727TIP3   OH235595   2.113   0.761  10.589  0.3664  0.5521 -0.2384
 4727TIP3    H135596   2.070   0.676  10.581 -0.6324  0.9049  0.9097
 4727TIP3    H235597   2.206   0.743  10.581  0.0660 -0.2682 -2.6987
 4728TIP3   OH235598   3.228   0.963  17.143 -0.4975  0.2852 -0.0728
 4728TIP3    H135599   3.255   0.892  17.086 -0.1054  0.9003 -0.6735
 4728TIP3    H235600   3.173   1.018  17.087 -0.2725  0.7881  0.1941
 4729TIP3   OH235601   3.128   3.624  14.815  0.4492  0.2818  0.5869
 4729TIP3    H135602   3.203   3.566  14.805 -0.5546 -0.7542 -1.5305
 4729TIP3    H235603   3.055   3.566  14.836 -0.0630  1.1189  1.2309
 4730TIP3   OH235604   0.555   0.627   2.423 -0.5774 -0.0703 -0.2120
 4730TIP3    H135605   0.510   0.564   2.480 -1.9752 -1.0925 -2.2891
 4730TIP3    H235606   0.625   0.577   2.382  0.2096  0.5588  0.3518
 4731TIP3   OH235607   4.987   4.356  10.337  0.0785 -0.9791 -0.0261
 4731TIP3    H135608   5.075   4.388  10.358 -0.4539  0.2837  0.3673
 4731TIP3    H235609   4.973   4.386  10.247 -0.3575 -0.1976  0.2882
 4732TIP3   OH235610   3.176   4.892  16.494  0.1371  0.2204 -0.3460
 4732TIP3    H135611   3.136   4.975  16.469  0.0780  0.2720 -0.0860
 4732TIP3    H235612   3.125   4.826  16.446 -0.0255  0.3119 -0.3019
 4733TIP3   OH235613   5.440   5.831  13.405  0.6890  0.2793  0.1171
 4733TIP3    H135614   5.396   5.878  13.334  1.5179 -0.1512 -0.7091
 4733TIP3    H235615   5.525   5.874  13.413  1.6834 -1.3747 -1.0263
 4734TIP3   OH235616   4.566   2.974   0.323  0.3104  0.2891  0.0051
 4734TIP3    H135617   4.503   2.929   0.267  2.0416 -0.2103 -1.6590
 4734TIP3    H235618   4.513   3.018   0.390 -1.6040 -1.9878  0.0777
 4735TIP3   OH235619   2.584   0.016   3.183 -0.0561 -0.5216  0.0309
 4735TIP3    H135620   2.529   0.054   3.251 -1.3566  0.2236 -1.3896
 4735TIP3    H235621   2.645   0.086   3.159 -0.1222 -0.5244 -0.1403
 4736TIP3   OH235622   5.834   3.794   0.618 -0.7027  0.4885  0.0462
 4736TIP3    H135623   5.930   3.790   0.618 -0.6942  0.6926  0.3438
 4736TIP3    H235624   5.808   3.734   0.548 -0.4546 -1.6542  1.6980
 4737TIP3   OH235625   2.920   4.356   4.256  0.4948  0.0098 -0.1095
 4737TIP3    H135626   2.974   4.352   4.177  0.8671  0.8366  0.0935
 4737TIP3    H235627   2.980   4.384   4.325  0.3778 -1.5726  0.6741
 4738TIP3   OH235628   4.717   4.808  12.673 -0.5172 -0.0015  0.1764
 4738TIP3    H135629   4.745   4.757  12.749 -0.1172  0.7875  0.5737
 4738TIP3    H235630   4.798   4.823  12.623 -0.3614  1.4910  0.8388
 4739TIP3   OH235631   0.296   2.186  11.324  0.3597  0.2774 -0.8703
 4739TIP3    H135632   0.342   2.182  11.408  1.4938  0.1639 -1.4807
 4739TIP3    H235633   0.276   2.094  11.304  2.8391 -0.0745 -2.1637
 4740TIP3   OH235634   4.753   4.500   2.665 -0.0719  0.1581  0.2410
 4740TIP3    H135635   4.732   4.449   2.744 -0.9783  1.8112  1.1395
 4740TIP3    H235636   4.683   4.479   2.603 -0.2273  0.0095  0.4662
 4741TIP3   OH235637   5.945   6.424  11.654 -0.6783  0.3049 -0.0403
 4741TIP3    H135638   6.018   6.445  11.595 -1.4202  2.8215 -0.1946
 4741TIP3    H235639   5.967   6.469  11.736 -1.7843  0.6610  0.0741
 4742TIP3   OH235640   4.446   6.175   0.946  0.1613 -0.2059 -0.2296
 4742TIP3    H135641   4.433   6.080   0.946  0.5817 -0.2797 -1.4787
 4742TIP3    H235642   4.510   6.190   0.877 -1.9825  1.2513 -2.0094
 4743TIP3   OH235643   5.520   2.493   5.271 -0.1146 -0.3187 -0.5054
 4743TIP3    H135644   5.538   2.454   5.357 -0.8999  0.3437 -0.0273
 4743TIP3    H235645   5.546   2.425   5.208  0.0095 -0.9996  0.2669
 4744TIP3   OH235646   3.310   0.377   0.340  0.5856  0.4385 -0.2010
 4744TIP3    H135647   3.385   0.423   0.377 -0.5338  0.3638  2.3355
 4744TIP3    H235648   3.329   0.284   0.354  0.8441  0.3144 -1.2860
 4745TIP3   OH235649   0.800   3.758   6.399  0.4652  0.6661  0.2986
 4745TIP3    H135650   0.805   3.764   6.304 -1.5348  2.2787  0.2296
 4745TIP3    H235651   0.834   3.671   6.419  2.2869  0.8332 -1.7301
 4746TIP3   OH235652   2.628   5.477   3.774  0.2228 -0.1555 -0.3924
 4746TIP3    H135653   2.697   5.456   3.711 -0.4968  0.0093 -1.2569
 4746TIP3    H235654   2.562   5.408   3.761  0.5213 -0.7359  0.9275
 4747TIP3   OH235655   5.599   0.585   2.673 -0.4907  0.2913 -0.4505
 4747TIP3    H135656   5.642   0.648   2.731  1.1948 -1.1085 -0.0755
 4747TIP3    H235657   5.646   0.594   2.589  1.4678 -2.0333  0.2785
 4748TIP3   OH235658   2.652   5.790  16.370 -0.3237  0.1919 -0.1712
 4748TIP3    H135659   2.708   5.715  16.392  0.5978  0.4928 -1.3231
 4748TIP3    H235660   2.688   5.821  16.286 -0.9306  1.6826  0.1048
 4749TIP3   OH235661   6.065   0.968  15.586  0.1720 -0.1049  0.5497
 4749TIP3    H135662   6.081   0.873  15.588  0.1059 -0.1641 -0.6894
 4749TIP3    H235663   6.144   1.006  15.623  1.5752 -0.5582 -1.7470
 4750TIP3   OH235664   4.894   0.266  12.047 -0.3181  0.1365  0.0180
 4750TIP3    H135665   4.969   0.311  12.009 -1.1673  0.5074 -1.3053
 4750TIP3    H235666   4.835   0.337  12.075 -0.6477 -0.1509  0.0666
 4751TIP3   OH235667   0.974   4.112   1.150 -0.0661 -0.7274 -0.1384
 4751TIP3    H135668   1.067   4.131   1.138 -0.6244  0.9858 -2.3916
 4751TIP3    H235669   0.949   4.164   1.226  0.5966 -0.3480 -0.1731
 4752TIP3   OH235670   1.361   2.683   4.596  0.3371 -0.9792 -0.3680
 4752TIP3    H135671   1.455   2.698   4.609  0.1259 -0.0379  0.0928
 4752TIP3    H235672   1.320   2.714   4.677 -0.7374  2.3276 -2.0017
 4753TIP3   OH235673   4.722   4.245  16.538  0.0674  0.0832 -0.0782
 4753TIP3    H135674   4.669   4.325  16.549 -0.1008 -0.1324  0.7922
 4753TIP3    H235675   4.784   4.267  16.469 -0.0701  0.9247  0.0481
 4754TIP3   OH235676   0.470   3.370  10.986 -0.5872  0.4103  0.2729
 4754TIP3    H135677   0.397   3.335  10.936  0.5494 -1.2839 -0.2965
 4754TIP3    H235678   0.547   3.328  10.948  0.5066  0.6504  2.0997
 4755TIP3   OH235679   6.296   2.949  16.523 -0.0567 -0.2524  0.3629
 4755TIP3    H135680   6.249   3.031  16.537 -1.2652 -0.8977  0.1850
 4755TIP3    H235681   6.228   2.885  16.506  0.9376 -1.0660 -0.6994
 4756TIP3   OH235682   5.625   6.793  14.418 -0.1674  0.5701 -0.0135
 4756TIP3    H135683   5.657   6.712  14.456 -1.8826 -0.0811  0.1119
 4756TIP3    H235684   5.532   6.778  14.402 -0.0524  1.6965 -2.1561
 4757TIP3   OH235685   5.811   4.334   2.731 -0.3074 -0.5665 -0.3214
 4757TIP3    H135686   5.751   4.364   2.799 -0.4995 -0.9706 -0.3088
 4757TIP3    H235687   5.872   4.275   2.775  0.8152  0.7045 -0.1087
 4758TIP3   OH235688   1.256   4.405  16.274  0.1021 -0.2499 -0.3544
 4758TIP3    H135689   1.290   4.434  16.190  2.4562 -0.2702  0.5004
 4758TIP3    H235690   1.163   4.391  16.260  0.7698 -2.5094 -3.5969
 4759TIP3   OH235691   5.440   4.480   4.058  0.0628 -1.2303 -0.2146
 4759TIP3    H135692   5.381   4.415   4.096 -2.7928  1.9851  1.4912
 4759TIP3    H235693   5.502   4.500   4.128 -1.3881  0.3425  0.7154
 4760TIP3   OH235694   4.328   1.492  15.538 -0.0223  0.1024 -0.4586
 4760TIP3    H135695   4.374   1.431  15.595  2.3213  0.8245 -1.4389
 4760TIP3    H235696   4.398   1.545  15.499 -1.7780  1.7581 -1.5228
 4761TIP3   OH235697   5.890   4.461  15.844 -0.2671 -0.1919 -0.1423
 4761TIP3    H135698   5.938   4.438  15.764  1.5525  0.1692  0.7963
 4761TIP3    H235699   5.833   4.386  15.860 -1.0389 -0.0656 -2.0329
 4762TIP3   OH235700   0.211   5.246  12.824 -0.1237  0.3805 -0.7143
 4762TIP3    H135701   0.206   5.284  12.912 -0.4508 -0.7927 -0.2070
 4762TIP3    H235702   0.272   5.173  12.834 -1.6934 -1.0168 -0.9761
 4763TIP3   OH235703   3.940   2.817  13.906 -0.1132 -0.4895  0.5252
 4763TIP3    H135704   4.009   2.767  13.950  0.7188 -1.1166 -1.4053
 4763TIP3    H235705   3.863   2.803  13.961  0.9866 -0.7895  2.0618
 4764TIP3   OH235706   1.737   0.417   6.044  0.6960 -0.9041  0.1651
 4764TIP3    H135707   1.708   0.346   6.101 -0.3391  1.7644  3.2848
 4764TIP3    H235708   1.819   0.447   6.085  0.5480  0.3457 -0.4269
 4765TIP3   OH235709   1.428   5.144  14.303  0.2493  0.2869  0.5239
 4765TIP3    H135710   1.388   5.193  14.231 -0.0111 -0.0083  0.4662
 4765TIP3    H235711   1.452   5.060  14.264  3.7874  1.5066 -0.3036
 4766TIP3   OH235712   0.071   4.349   2.975 -0.1685 -0.4203 -0.0674
 4766TIP3    H135713   0.058   4.348   3.070  0.6794 -0.9752  0.0576
 4766TIP3    H235714   0.152   4.400   2.963  1.2280 -2.5814 -0.2590
 4767TIP3   OH235715   5.539   5.273   0.203 -0.3749  0.0174  0.0308
 4767TIP3    H135716   5.532   5.265   0.298  0.3801  1.1892  0.2073
 4767TIP3    H235717   5.449   5.261   0.171 -0.5134 -1.1669  0.8050
 4768TIP3   OH235718   2.834   1.040  16.304 -0.4453  0.1700  0.0577
 4768TIP3    H135719   2.823   1.081  16.389  1.5467 -0.8032  0.8497
 4768TIP3    H235720   2.771   1.084  16.247  0.3550  3.0527  1.2550
 4769TIP3   OH235721   6.479   0.721   4.490  0.0787 -0.7467 -0.1936
 4769TIP3    H135722   6.563   0.690   4.523 -1.2569 -1.0658  3.3696
 4769TIP3    H235723   6.448   0.651   4.432  0.3908 -2.7643  1.9311
 4770TIP3   OH235724   6.395   6.604  15.496  0.0136 -0.2565 -0.1038
 4770TIP3    H135725   6.343   6.526  15.481 -0.0550 -1.2410  4.0913
 4770TIP3    H235726   6.485   6.572  15.501 -0.1313 -0.4431  2.9032
 4771TIP3   OH235727   3.772   0.849  14.801 -0.3907 -0.0300 -0.6770
 4771TIP3    H135728   3.824   0.824  14.877  0.0131  0.8932 -0.6374
 4771TIP3    H235729   3.775   0.945  14.800 -0.9886 -0.0106 -1.4384
 4772TIP3   OH235730   5.535   5.668   4.528 -0.1624 -0.1191  0.2389
 4772TIP3    H135731   5.512   5.630   4.612  0.1270  0.5583  0.6275
 4772TIP3    H235732   5.475   5.627   4.466 -0.0444 -0.9939  0.6895
 4773TIP3   OH235733   2.994   0.135  13.485  0.0103 -0.1817  0.2940
 4773TIP3    H135734   2.909   0.110  13.520  0.3287 -0.0117  1.2057
 4773TIP3    H235735   3.051   0.142  13.561  0.5760  0.7569 -0.1874
 4774TIP3   OH235736   1.505   5.109   3.900 -0.0444  0.7705 -0.5901
 4774TIP3    H135737   1.475   5.150   3.981  0.6148  0.5093 -0.2053
 4774TIP3    H235738   1.457   5.154   3.831 -0.1527  1.4274 -0.0958
 4775TIP3   OH235739   4.814   5.894   1.475  0.1833 -0.2940 -0.5934
 4775TIP3    H135740   4.819   5.965   1.410 -1.2094 -0.5922 -1.0618
 4775TIP3    H235741   4.777   5.820   1.426  0.1407 -0.8594  0.2825
 4776TIP3   OH235742   1.604   0.537  16.675 -0.4420  0.6134 -0.8342
 4776TIP3    H135743   1.603   0.442  16.690 -0.2645  0.7977  0.5455
 4776TIP3    H235744   1.513   0.564  16.688 -0.6337  0.5368 -1.9834
 4777TIP3   OH235745   4.019   5.902   3.863  0.3048  0.0436  0.2823
 4777TIP3    H135746   4.037   5.938   3.776  0.6271 -0.2058  0.2428
 4777TIP3    H235747   4.015   5.808   3.850  1.8497 -0.1276  0.7697
 4778TIP3   OH235748   0.184   5.342   5.284 -0.5883 -0.1702 -0.1388
 4778TIP3    H135749   0.109   5.401   5.298 -0.1703  0.2828  0.2333
 4778TIP3    H235750   0.237   5.386   5.218 -0.8607 -0.6974 -0.7148
 4779TIP3   OH235751   0.597   3.222   0.478 -0.5358 -0.0520 -0.0640
 4779TIP3    H135752   0.625   3.160   0.411 -0.0534  2.9405 -2.8997
 4779TIP3    H235753   0.503   3.233   0.465 -0.3197  1.0724 -0.8070
 4780TIP3   OH235754   2.206   4.732  14.551  0.1117 -0.1341 -0.1721
 4780TIP3    H135755   2.300   4.746  14.536 -0.4666  0.8636 -3.8121
 4780TIP3    H235756   2.173   4.818  14.574 -0.0016 -0.4211  0.7760
 4781TIP3   OH235757   3.198   1.629   1.677 -0.0337 -0.0490 -0.0305
 4781TIP3    H135758   3.120   1.582   1.707 -1.2876  1.0250 -1.4017
 4781TIP3    H235759   3.199   1.616   1.582 -0.0973  2.1025 -0.3790
 4782TIP3   OH235760   3.591   3.047   1.211 -0.1439 -0.5022 -0.8554
 4782TIP3    H135761   3.521   3.094   1.167 -2.5448 -1.3079  1.8302
 4782TIP3    H235762   3.589   2.959   1.174  0.1056 -0.2686 -1.4348
 4783TIP3   OH235763   1.100   1.181  12.755  0.1228 -0.9410  0.4832
 4783TIP3    H135764   1.032   1.249  12.751  0.8660 -0.1378  0.9604
 4783TIP3    H235765   1.165   1.209  12.691 -0.2268 -1.9895 -0.3565
 4784TIP3   OH235766   6.606   2.185   4.410  0.4064  0.2133 -0.1499
 4784TIP3    H135767   6.549   2.220   4.342  1.2769  1.8118 -0.1198
 4784TIP3    H235768   6.587   2.239   4.487 -0.2250 -1.2590  0.7648
 4785TIP3   OH235769   0.128   3.156   2.184 -0.0825  0.0517 -0.7831
 4785TIP3    H135770   0.073   3.172   2.261 -0.2207  0.7022 -1.0099
 4785TIP3    H235771   0.184   3.234   2.178  0.5513 -0.3982 -0.8200
 4786TIP3   OH235772   0.530   6.717  11.540 -0.7008 -0.4281 -0.1841
 4786TIP3    H135773   0.612   6.727  11.494 -1.4814 -0.5135 -1.6382
 4786TIP3    H235774   0.554   6.682  11.626  0.8566  0.6568 -0.1401
 4787TIP3   OH235775   2.268   0.169   6.037  0.0219 -0.4233  0.1261
 4787TIP3    H135776   2.361   0.184   6.052 -0.1346 -0.5758  1.4237
 4787TIP3    H235777   2.260   0.153   5.943  1.2838 -0.3190 -0.0096
 4788TIP3   OH235778   6.210   1.988  13.120 -0.2131  0.4620  0.1765
 4788TIP3    H135779   6.248   1.939  13.047 -1.6751 -1.3519  0.5658
 4788TIP3    H235780   6.118   1.962  13.122  0.0887 -0.8653  3.6222
 4789TIP3   OH235781   0.705   3.930  12.458 -0.4091 -0.2779  0.2193
 4789TIP3    H135782   0.668   3.975  12.382  0.6173  2.5186  1.2520
 4789TIP3    H235783   0.629   3.909  12.513 -1.0511 -1.3652 -1.0148
 4790TIP3   OH235784   2.394   4.977  14.296 -0.1321 -0.0132 -0.6258
 4790TIP3    H135785   2.430   4.893  14.325  0.4685  0.1607 -0.8711
 4790TIP3    H235786   2.393   5.030  14.376 -1.2035 -0.4823 -0.3044
 4791TIP3   OH235787   6.123   5.240  12.928  0.7009  0.2254  0.1164
 4791TIP3    H135788   6.178   5.178  12.976  0.3631 -1.8378 -1.9899
 4791TIP3    H235789   6.057   5.268  12.992  2.3145  0.4024  1.8106
 4792TIP3   OH235790   3.064   2.490   1.384  0.0366 -0.3887  0.0594
 4792TIP3    H135791   3.143   2.440   1.404 -1.0512 -2.6256 -0.8453
 4792TIP3    H235792   3.090   2.549   1.314  1.0913 -0.4838  0.3525
 4793TIP3   OH235793   1.018   1.148   2.739  0.6849  0.4308 -0.1054
 4793TIP3    H135794   1.108   1.132   2.713  1.1899 -0.8426  2.1320
 4793TIP3    H235795   1.006   1.095   2.818 -1.4574  1.9665  0.7073
 4794TIP3   OH235796   4.508   0.592   2.848  0.0236 -0.2635 -0.1451
 4794TIP3    H135797   4.514   0.501   2.817  1.9170 -0.2424  0.0909
 4794TIP3    H235798   4.529   0.587   2.941  2.2807  0.6425 -0.5516
 4795TIP3   OH235799   1.497   0.930  15.319 -0.3123  0.0859  0.0576
 4795TIP3    H135800   1.565   0.901  15.257 -1.1527 -2.7495  0.3155
 4795TIP3    H235801   1.415   0.919  15.272 -0.7338  2.1816  0.2189
 4796TIP3   OH235802   0.379   1.003   2.981 -0.2315 -0.7839  0.3154
 4796TIP3    H135803   0.436   0.978   2.908 -2.2985 -2.1471 -0.9282
 4796TIP3    H235804   0.343   1.088   2.954  1.2885  0.1800  1.1980
 4797TIP3   OH235805   2.041   3.733   5.537  0.3266  0.4622 -0.0322
 4797TIP3    H135806   2.067   3.766   5.451 -0.3547 -0.9508 -0.8243
 4797TIP3    H235807   1.978   3.663   5.517  0.1336  0.1298  1.6245
 4798TIP3   OH235808   5.701   0.769  15.839  0.2516 -0.2022 -0.0998
 4798TIP3    H135809   5.627   0.788  15.896  0.2580  0.4899 -0.3131
 4798TIP3    H235810   5.777   0.767  15.898  0.3972  1.4651 -0.1884
 4799TIP3   OH235811   4.584   5.343   0.329  0.5288 -0.3437  0.2007
 4799TIP3    H135812   4.548   5.426   0.360  0.2579  0.1193 -1.3034
 4799TIP3    H235813   4.507   5.288   0.315  0.6627 -0.6032  0.4703
 4800TIP3   OH235814   0.545   3.909  13.130 -0.6360  0.0664 -0.1586
 4800TIP3    H135815   0.508   3.882  13.214  0.2367  2.2080  1.0043
 4800TIP3    H235816   0.633   3.940  13.151  0.0935 -0.5414 -2.0991
 4801TIP3   OH235817   2.002   4.783   4.076  0.5244  0.1565  0.2024
 4801TIP3    H135818   2.048   4.787   3.993  3.4378 -0.6879  1.6471
 4801TIP3    H235819   1.946   4.706   4.069  1.7650 -0.7014 -0.5074
 4802TIP3   OH235820   4.640   5.324   1.582  0.4745  0.0093  0.2953
 4802TIP3    H135821   4.595   5.353   1.662  1.8878  1.6335  0.5636
 4802TIP3    H235822   4.670   5.236   1.601  1.0872  0.5018  1.7094
 4803TIP3   OH235823   3.460   4.939  14.439  0.2646  0.0959 -0.2792
 4803TIP3    H135824   3.394   4.958  14.372 -0.2501  0.1907  0.2452
 4803TIP3    H235825   3.415   4.881  14.501  0.9446 -0.5314 -0.3704
 4804TIP3   OH235826   6.082   6.149  14.270  0.1883  0.1547 -0.0017
 4804TIP3    H135827   6.149   6.155  14.339 -0.0951 -1.5182  0.4702
 4804TIP3    H235828   6.010   6.202  14.303  1.2369  1.9709 -0.5091
 4805TIP3   OH235829   5.213   5.160  13.401  0.5802  0.1623 -0.0169
 4805TIP3    H135830   5.194   5.151  13.494  1.6055  0.2675  0.2197
 4805TIP3    H235831   5.280   5.094  13.384 -0.1616 -0.3843 -0.8619
 4806TIP3   OH235832   3.805   4.858  13.841 -0.6121  0.1051  0.2124
 4806TIP3    H135833   3.805   4.855  13.937  3.1244  1.3761  0.4207
 4806TIP3    H235834   3.740   4.925  13.819 -0.7257  0.6119  1.9414
 4807TIP3   OH235835   1.553   1.939  16.577  0.3099  0.5363 -0.3784
 4807TIP3    H135836   1.525   2.002  16.643  0.4907  0.9993 -0.7323
 4807TIP3    H235837   1.634   1.976  16.542  0.1283  0.3823 -0.9731
 4808TIP3   OH235838   4.825   2.709  14.085  0.4552 -0.9000 -0.3916
 4808TIP3    H135839   4.898   2.723  14.025  2.4007 -2.0109  1.5925
 4808TIP3    H235840   4.820   2.790  14.136  1.7516 -1.5607  0.8670
 4809TIP3   OH235841   4.411   0.044  13.992  0.4746  0.3720  0.1392
 4809TIP3    H135842   4.500   0.009  13.991  0.1567 -0.5464  1.2304
 4809TIP3    H235843   4.420   0.132  14.030  0.9513  0.3962 -0.0283
 4810TIP3   OH235844   0.402   5.256   2.434 -0.4711 -0.2003  0.0773
 4810TIP3    H135845   0.307   5.264   2.439 -0.3209  1.6262  0.4295
 4810TIP3    H235846   0.435   5.311   2.506  0.8381 -1.7989  0.7873
 4811TIP3   OH235847   0.604   3.177   6.202 -0.2060  0.2101 -0.4173
 4811TIP3    H135848   0.688   3.140   6.231  0.9081  0.9410 -2.4870
 4811TIP3    H235849   0.622   3.270   6.191 -1.5245  0.5045 -0.1433
 4812TIP3   OH235850   3.538   2.752   0.360 -0.1821 -0.0180 -0.1279
 4812TIP3    H135851   3.585   2.800   0.428 -0.5190 -0.3171  0.3301
 4812TIP3    H235852   3.519   2.667   0.401 -1.2181  0.1374 -0.2499
 4813TIP3   OH235853   4.266   4.588  14.049  0.3433  0.2253  0.1293
 4813TIP3    H135854   4.340   4.634  14.009  0.4240  0.0846  0.1152
 4813TIP3    H235855   4.202   4.657  14.069  0.6008  0.3869  0.4147
 4814TIP3   OH235856   2.325   1.350  16.368 -0.2453 -0.5154  0.1141
 4814TIP3    H135857   2.412   1.372  16.336  0.2395 -1.3786  0.7592
 4814TIP3    H235858   2.342   1.290  16.442 -1.2963  1.1385  1.7768
 4815TIP3   OH235859   0.700   0.057   5.037  0.3617  0.0791  0.1149
 4815TIP3    H135860   0.636   0.127   5.051 -0.3874 -0.9959  2.3440
 4815TIP3    H235861   0.655  -0.005   4.980  0.8104  1.0608 -1.3707
 4816TIP3   OH235862   5.332   2.798  15.309 -0.2423 -0.3452 -0.2495
 4816TIP3    H135863   5.312   2.889  15.327  2.1582  0.2805 -0.3279
 4816TIP3    H235864   5.341   2.758  15.395  1.5934  0.2737 -0.0962
 4817TIP3   OH235865   5.079   6.389  11.219  0.2695 -0.4123 -0.1667
 4817TIP3    H135866   5.074   6.338  11.138 -0.1247 -0.6233 -0.0169
 4817TIP3    H235867   5.110   6.326  11.285 -1.5723 -0.8560  0.3254
 4818TIP3   OH235868   6.405   6.437   1.878  0.4336  0.1609  0.5023
 4818TIP3    H135869   6.398   6.446   1.973 -1.2170  0.3721  0.3974
 4818TIP3    H235870   6.317   6.410   1.851  0.9792 -0.2351 -0.9286
 4819TIP3   OH235871   1.395   6.747   3.557  0.1092 -0.0080 -0.1478
 4819TIP3    H135872   1.354   6.779   3.637 -3.2661 -0.2703 -1.6390
 4819TIP3    H235873   1.451   6.675   3.586 -0.8665  0.0217  1.9729
 4820TIP3   OH235874   1.986   5.077   2.974 -0.1857  0.0861  0.3622
 4820TIP3    H135875   1.946   5.164   2.980 -2.0674 -0.8064  1.6785
 4820TIP3    H235876   1.964   5.046   2.887  0.3485  0.8407 -0.0517
 4821TIP3   OH235877   5.727   6.348   4.934  0.0362 -0.1107  0.0272
 4821TIP3    H135878   5.799   6.328   4.994  0.0857  1.8957  0.7089
 4821TIP3    H235879   5.722   6.443   4.933 -2.3213 -0.1750 -0.3802
 4822TIP3   OH235880   5.358   3.863  15.346 -0.0220  0.3785  0.1888
 4822TIP3    H135881   5.352   3.793  15.412  1.4019  1.1116  1.1540
 4822TIP3    H235882   5.268   3.873  15.314 -0.8106  0.0703  2.1273
 4823TIP3   OH235883   4.142   2.057   5.458 -0.5801 -0.6113 -0.1377
 4823TIP3    H135884   4.097   2.126   5.505  0.2378  0.4428 -0.8357
 4823TIP3    H235885   4.182   2.102   5.383 -0.1069 -1.8593 -0.6572
 4824TIP3   OH235886   2.983   2.345  13.329 -0.7898 -0.0585 -0.1841
 4824TIP3    H135887   2.977   2.341  13.425 -0.4646 -0.2155 -0.1684
 4824TIP3    H235888   2.989   2.254  13.302  1.0295  0.0419 -0.2161
 4825TIP3   OH235889   4.377   4.543   2.115  0.2071 -0.7497 -0.2099
 4825TIP3    H135890   4.318   4.554   2.040 -0.0267  0.1264  0.0829
 4825TIP3    H235891   4.329   4.581   2.189  1.0015 -0.3261  0.0995
 4826TIP3   OH235892   3.514   5.114  12.217  0.5018 -0.4961 -0.0901
 4826TIP3    H135893   3.477   5.106  12.305  1.2297  3.3145  0.7299
 4826TIP3    H235894   3.601   5.073  12.224  0.6972  0.0899  1.0939
 4827TIP3   OH235895   2.341   4.970   5.730 -0.2308  0.4536  0.6625
 4827TIP3    H135896   2.405   4.929   5.788  0.3460 -1.3378 -1.1075
 4827TIP3    H235897   2.294   5.032   5.785  2.1723  0.9227  2.3415
 4828TIP3   OH235898   4.669   5.988  13.318  0.7121  0.0195  0.7233
 4828TIP3    H135899   4.753   5.946  13.335  0.1257 -1.1933  0.7865
 4828TIP3    H235900   4.625   5.989  13.404 -0.6960 -2.5519  0.1448
 4829TIP3   OH235901   4.822   3.602  14.909 -0.6713  0.0433 -0.0187
 4829TIP3    H135902   4.807   3.681  14.961 -0.1248 -0.8274  1.5518
 4829TIP3    H235903   4.755   3.541  14.939 -0.7976 -0.2405 -0.8703
 4830TIP3   OH235904   0.201   6.370  16.563  0.0142  0.2700  0.3003
 4830TIP3    H135905   0.195   6.276  16.543  0.1324  0.3996 -0.3942
 4830TIP3    H235906   0.165   6.379  16.651  2.2805 -0.8026  1.4428
 4831TIP3   OH235907   6.439   4.617   0.779 -1.1895  0.7453  0.0185
 4831TIP3    H135908   6.361   4.563   0.792 -0.5754 -0.2381 -0.2763
 4831TIP3    H235909   6.512   4.564   0.813 -0.5473  1.3274 -0.4089
 4832TIP3   OH235910   0.909   3.572  12.963  0.0344 -0.0096 -0.4935
 4832TIP3    H135911   0.900   3.583  12.868  2.4130  0.2550 -0.7709
 4832TIP3    H235912   0.906   3.661  12.997  0.4820  0.0068 -0.4899
 4833TIP3   OH235913   1.779   3.509   1.619 -0.0659  0.0052 -0.3338
 4833TIP3    H135914   1.784   3.449   1.694 -2.0849 -1.1844 -1.0713
 4833TIP3    H235915   1.865   3.550   1.616  0.9208 -1.7806  1.0966
 4834TIP3   OH235916   1.143   2.288  14.247  0.4284 -0.0623 -0.0171
 4834TIP3    H135917   1.201   2.226  14.291 -0.1678 -0.4605  0.2066
 4834TIP3    H235918   1.195   2.368  14.241  1.0693 -0.4662  0.0251
 4835TIP3   OH235919   0.904   4.761  13.718 -0.1399  0.0147  0.2712
 4835TIP3    H135920   0.817   4.768  13.679 -0.4951  0.1884  1.0598
 4835TIP3    H235921   0.888   4.763  13.812  0.6794 -0.5071  0.4347
 4836TIP3   OH235922   3.119   5.451  14.596 -0.5740  0.1413  0.5266
 4836TIP3    H135923   3.171   5.524  14.563 -1.0644 -0.0211 -0.6841
 4836TIP3    H235924   3.184   5.390  14.633 -0.0888  0.7939  0.7705
 4837TIP3   OH235925   5.389   2.365  16.421  0.0418  0.8695  0.3905
 4837TIP3    H135926   5.449   2.431  16.386  0.5684  0.1182 -0.1614
 4837TIP3    H235927   5.332   2.414  16.481  1.5800  1.5193  1.4092
 4838TIP3   OH235928   1.187   2.235   1.148 -0.3831 -0.2045  0.2986
 4838TIP3    H135929   1.274   2.211   1.115 -1.0258 -0.3771 -1.3396
 4838TIP3    H235930   1.168   2.168   1.214  0.7945 -0.0331  0.8583
 4839TIP3   OH235931   3.446   3.842   5.377  0.2017  0.3098  0.1135
 4839TIP3    H135932   3.435   3.843   5.282  0.6721 -0.2706  0.0437
 4839TIP3    H235933   3.446   3.749   5.399  0.2397  0.4411  0.6667
 4840TIP3   OH235934   3.821   5.274  12.124  0.0297  0.1488  0.2423
 4840TIP3    H135935   3.833   5.194  12.072  1.4065  1.1033 -0.9972
 4840TIP3    H235936   3.726   5.280  12.137 -0.0805 -1.7897  0.5623
 4841TIP3   OH235937   0.229   4.611   2.360  0.5335  0.3570  0.0167
 4841TIP3    H135938   0.254   4.533   2.409  2.2762  1.5847  1.2056
 4841TIP3    H235939   0.200   4.672   2.428 -0.8806  0.7468 -0.8974
 4842TIP3   OH235940   2.139   1.682  16.530  0.3013 -0.1416 -0.5392
 4842TIP3    H135941   2.117   1.648  16.443 -1.9223  0.4630 -0.2757
 4842TIP3    H235942   2.235   1.675  16.535  0.4038 -1.0482 -2.6573
 4843TIP3   OH235943   5.551   3.115  15.811  0.8250 -0.1534  0.4019
 4843TIP3    H135944   5.605   3.155  15.743  1.1723  2.6164  2.1754
 4843TIP3    H235945   5.475   3.081  15.764  0.9610  1.8310 -1.3764
 4844TIP3   OH235946   6.340   5.262  15.561 -0.3757  0.6098  0.3445
 4844TIP3    H135947   6.334   5.326  15.490 -1.9665  0.7011  0.5233
 4844TIP3    H235948   6.419   5.211  15.541 -1.1310  0.1864 -1.8812
 4845TIP3   OH235949   0.177   3.346  16.246 -0.0087 -0.1412 -0.3008
 4845TIP3    H135950   0.230   3.399  16.186 -2.4968  0.3597 -2.2270
 4845TIP3    H235951   0.094   3.334  16.200 -1.4097 -1.2981  2.3300
 4846TIP3   OH235952   1.352   5.462  16.291 -0.2849  0.1094 -0.3412
 4846TIP3    H135953   1.360   5.473  16.196  2.4606 -0.5833 -0.2876
 4846TIP3    H235954   1.292   5.388  16.301  0.4550 -0.7124 -1.6243
 4847TIP3   OH235955   5.297   6.255   3.299  0.7437  0.1537 -0.5830
 4847TIP3    H135956   5.239   6.200   3.352 -0.7318  0.6098 -1.6529
 4847TIP3    H235957   5.268   6.240   3.209  2.5934  0.0896 -1.2069
 4848TIP3   OH235958   3.782   3.829  10.829 -0.1783 -0.3218 -0.2954
 4848TIP3    H135959   3.809   3.916  10.858  3.0625 -1.6144  1.0652
 4848TIP3    H235960   3.720   3.799  10.895 -1.9067  1.1296 -1.1677
 4849TIP3   OH235961   3.717   4.399   2.972 -0.8606 -0.0640  0.0749
 4849TIP3    H135962   3.786   4.448   2.928  0.9073 -1.3865  1.2224
 4849TIP3    H235963   3.668   4.357   2.901  1.3082 -1.3807 -0.7422
 4850TIP3   OH235964   3.356   6.461   4.512 -0.5251 -0.1506 -0.0653
 4850TIP3    H135965   3.371   6.407   4.589 -0.8458 -0.2799 -0.0929
 4850TIP3    H235966   3.287   6.522   4.538 -0.4865 -0.0549 -0.1815
 4851TIP3   OH235967   1.199   0.864   0.586 -0.0034 -0.0650 -0.0014
 4851TIP3    H135968   1.205   0.921   0.663  0.2119  0.6071 -0.5007
 4851TIP3    H235969   1.110   0.829   0.588 -0.1119  0.2365  0.3585
 4852TIP3   OH235970   4.911   1.762  11.207  0.1120  0.0487  0.1416
 4852TIP3    H135971   4.980   1.793  11.265 -0.3977  0.7236  0.4114
 4852TIP3    H235972   4.895   1.672  11.234 -1.6634  0.9981  2.6313
 4853TIP3   OH235973   3.151   3.679  15.893  0.1244 -0.2937 -0.3857
 4853TIP3    H135974   3.223   3.739  15.913  1.0635 -1.0870 -1.2963
 4853TIP3    H235975   3.101   3.724  15.824  0.0617  0.0190 -0.1367
 4854TIP3   OH235976   0.806   5.626  15.466 -0.7761 -0.0209 -0.2911
 4854TIP3    H135977   0.890   5.627  15.511 -1.1933  0.0126  0.5101
 4854TIP3    H235978   0.781   5.533  15.465 -2.0137  0.2122  1.9892
 4855TIP3   OH235979   3.833   1.501  15.847  0.6128  0.5306  0.8291
 4855TIP3    H135980   3.913   1.537  15.884  1.3984 -2.5919  2.5153
 4855TIP3    H235981   3.768   1.569  15.860  2.4383  2.2097  1.6613
 4856TIP3   OH235982   2.425   6.312   1.458 -0.0072  0.8264 -0.1178
 4856TIP3    H135983   2.344   6.358   1.435 -1.2483 -1.0791  0.1325
 4856TIP3    H235984   2.395   6.239   1.512  1.7242 -0.7130 -1.1189
 4857TIP3   OH235985   1.873   0.821  15.042 -0.7710  0.2990  0.2820
 4857TIP3    H135986   1.870   0.727  15.025 -3.1105  0.6419 -1.7584
 4857TIP3    H235987   1.941   0.854  14.983  0.9339 -0.1917  1.8893
 4858TIP3   OH235988   6.666   6.225   0.342 -0.0263  0.8941 -0.7665
 4858TIP3    H135989   6.622   6.288   0.285 -0.6944  0.2566 -0.9682
 4858TIP3    H235990   6.745   6.270   0.372  0.1925  1.3337 -1.9714
 4859TIP3   OH235991   2.946   6.655  14.314  0.1114 -0.5582  0.0127
 4859TIP3    H135992   2.895   6.609  14.380 -0.2643 -1.7552 -1.0728
 4859TIP3    H235993   2.881   6.699  14.260  0.2414 -1.3999 -0.8688
 4860TIP3   OH235994   3.685   5.950  15.577  0.1454 -1.0039 -0.3944
 4860TIP3    H135995   3.753   6.003  15.535 -0.7346  1.0258  0.5861
 4860TIP3    H235996   3.729   5.910  15.652  0.2965  0.3525  0.2749
 4861TIP3   OH235997   1.114   3.542   3.098 -0.0287  0.1611 -0.2659
 4861TIP3    H135998   1.198   3.500   3.119 -0.6862 -0.7989  0.5666
 4861TIP3    H235999   1.134   3.635   3.097  1.2014 -0.0784 -0.8089
 4862TIP3   OH236000   3.452   3.110   1.924  0.3474  0.2909 -0.0932
 4862TIP3    H136001   3.445   3.068   1.838  0.9694  0.4585 -0.2304
 4862TIP3    H236002   3.491   3.044   1.980 -1.0330 -0.1889  0.3416
 4863TIP3   OH236003   3.911   0.413   0.731 -0.2168  0.3443 -0.0882
 4863TIP3    H136004   3.916   0.330   0.684 -2.9864  1.6361 -3.0660
 4863TIP3    H236005   3.998   0.425   0.768  0.0588 -4.3177  1.5032
 4864TIP3   OH236006   4.725   2.924  12.637  0.1972 -0.4826  0.2381
 4864TIP3    H136007   4.743   3.011  12.674 -1.4333  0.5500 -1.2045
 4864TIP3    H236008   4.692   2.873  12.710  0.1872  0.4457  0.9062
 4865TIP3   OH236009   5.017   0.496  13.064 -0.2556 -0.0772 -0.0256
 4865TIP3    H136010   4.925   0.470  13.062  0.3776 -2.5147 -0.7721
 4865TIP3    H236011   5.022   0.570  13.003 -1.6858  0.0336 -0.0474
 4866TIP3   OH236012   5.908   1.690   2.000 -0.0797  0.4529  0.9617
 4866TIP3    H136013   5.988   1.641   2.020  0.7548  1.8859  1.3145
 4866TIP3    H236014   5.930   1.740   1.921 -0.5762  0.9460  1.1272
 4867TIP3   OH236015   5.425   3.988  14.068  0.2448  0.2342  0.5125
 4867TIP3    H136016   5.510   4.024  14.093 -0.1196  2.1418 -0.7680
 4867TIP3    H236017   5.364   4.061  14.077 -0.5462  0.0388 -2.1829
 4868TIP3   OH236018   0.550   6.589  15.056 -0.0477  0.6921 -0.5704
 4868TIP3    H136019   0.569   6.679  15.084  1.7492  0.1937 -0.0347
 4868TIP3    H236020   0.457   6.578  15.073 -0.2740  2.3918 -0.4707
 4869TIP3   OH236021   0.120   4.780   2.580  0.3569 -0.0439  0.4565
 4869TIP3    H136022   0.049   4.808   2.638  0.3053 -0.2768  0.5053
 4869TIP3    H236023   0.187   4.848   2.591 -0.6990  1.3348 -1.1808
 4870TIP3   OH236024   5.539   0.518   3.954 -0.0603  0.7242  0.7999
 4870TIP3    H136025   5.519   0.534   4.047 -0.8965  0.4422  0.6843
 4870TIP3    H236026   5.466   0.558   3.907 -0.2947 -0.2170  0.3336
 4871TIP3   OH236027   6.620   5.233  13.087  0.0884 -0.2092  0.4998
 4871TIP3    H136028   6.533   5.203  13.113 -0.2107 -0.9966 -1.2777
 4871TIP3    H236029   6.604   5.296  13.017  0.8871  1.5516  1.8069
 4872TIP3   OH236030   4.179   5.090  13.412 -0.4648 -0.0891  0.1924
 4872TIP3    H136031   4.239   5.025  13.375  1.0511  0.8533  0.8514
 4872TIP3    H236032   4.095   5.071  13.372  0.2250 -1.6111 -0.6338
 4873TIP3   OH236033   1.155   0.137  16.018 -0.1618 -0.0984 -0.4591
 4873TIP3    H136034   1.210   0.101  16.086 -0.7421  0.2032  0.1865
 4873TIP3    H236035   1.071   0.092  16.027 -0.2323 -0.0938 -1.0065
 4874TIP3   OH236036   4.047   5.326   3.933 -0.3358 -0.6237  0.4864
 4874TIP3    H136037   4.041   5.400   3.993 -0.9080 -0.3143  0.0532
 4874TIP3    H236038   4.023   5.250   3.986 -1.3178 -0.2895  0.5280
 4875TIP3   OH236039   4.595   3.868  13.039  0.3932  0.6208  0.2545
 4875TIP3    H136040   4.502   3.850  13.026  0.5549 -1.0253  1.2296
 4875TIP3    H236041   4.613   3.843  13.129  1.9326  0.2574 -0.1159
 4876TIP3   OH236042   2.816   3.974  16.588  0.2635  0.7134  0.4500
 4876TIP3    H136043   2.886   3.909  16.599  1.9451  2.3500 -0.1610
 4876TIP3    H236044   2.811   3.987  16.494 -0.4537  1.0803  0.5378
 4877TIP3   OH236045   1.405   3.094  14.474  0.1371 -0.4524  0.2838
 4877TIP3    H136046   1.465   3.058  14.538  0.8527 -0.7685 -0.5438
 4877TIP3    H236047   1.372   3.175  14.514  2.3076  0.5731  0.1433
 4878TIP3   OH236048   0.878   5.823  12.477 -0.2950 -0.7415 -0.2622
 4878TIP3    H136049   0.947   5.820  12.544 -0.5543 -1.3862 -0.0144
 4878TIP3    H236050   0.848   5.914  12.479  1.0902 -0.2359 -0.9488
 4879TIP3   OH236051   1.567   6.587  12.529 -0.7933  0.0338 -0.5534
 4879TIP3    H136052   1.604   6.650  12.591  0.5887  0.2216 -1.5288
 4879TIP3    H236053   1.482   6.624  12.505 -0.5721  0.8417 -0.1229
 4880TIP3   OH236054   0.801   4.828  11.032 -0.7227  0.7423 -0.2088
 4880TIP3    H136055   0.726   4.885  11.011 -0.8537  0.4170 -0.6364
 4880TIP3    H236056   0.770   4.740  11.013 -0.1196  0.6311 -0.7051
 4881TIP3   OH236057   1.374   0.793   4.522  0.1536 -0.0512  0.0628
 4881TIP3    H136058   1.353   0.710   4.562 -0.4887 -0.0894 -0.3435
 4881TIP3    H236059   1.339   0.859   4.582 -0.0109 -0.0911  0.0113
 4882TIP3   OH236060   6.036   6.568  13.559 -0.2863  0.5687  0.1018
 4882TIP3    H136061   6.120   6.593  13.522 -0.4367 -0.1927 -0.7851
 4882TIP3    H236062   5.995   6.651  13.584  1.0934  0.8885  1.4153
 4883TIP3   OH236063   3.749   2.512  12.046 -0.4282 -0.0938  0.1176
 4883TIP3    H136064   3.735   2.489  12.138 -0.5165  1.2316  0.4492
 4883TIP3    H236065   3.844   2.520  12.038 -0.4049 -0.4247  0.0278
 4884TIP3   OH236066   4.488   3.680   6.203  0.2812  0.4653 -0.3806
 4884TIP3    H136067   4.422   3.615   6.228  0.1019  0.6864 -0.2801
 4884TIP3    H236068   4.479   3.750   6.267  1.2324  0.0887  0.1967
 4885TIP3   OH236069   1.454   1.829   5.728  0.6197  0.4001 -0.0571
 4885TIP3    H136070   1.517   1.898   5.704  0.1889  0.0255 -2.4324
 4885TIP3    H236071   1.496   1.748   5.700  0.7012 -0.2893  1.8721
 4886TIP3   OH236072   1.686   3.503   3.510  0.4107  0.4376  0.1102
 4886TIP3    H136073   1.613   3.504   3.571  0.3717 -0.5966  0.0994
 4886TIP3    H236074   1.761   3.532   3.561  0.9569 -2.9128  1.4627
 4887TIP3   OH236075   4.492   5.317   3.662 -0.3490 -0.1207 -0.1693
 4887TIP3    H136076   4.402   5.350   3.663 -0.2839  0.1203 -0.9564
 4887TIP3    H236077   4.487   5.232   3.707 -0.9765 -0.1262 -0.2351
 4888TIP3   OH236078   6.555   2.201   1.226 -0.2820 -0.0041  0.4895
 4888TIP3    H136079   6.505   2.121   1.242 -1.1298  0.5660  0.7686
 4888TIP3    H236080   6.637   2.188   1.274 -0.8772 -0.2442  1.4723
 4889TIP3   OH236081   5.439   5.539  14.820  0.2026  0.0177  0.7042
 4889TIP3    H136082   5.363   5.571  14.772  0.1712 -0.1383  0.6505
 4889TIP3    H236083   5.486   5.483  14.758  0.6251  0.5002  0.5808
 4890TIP3   OH236084   1.233   6.275   0.004 -0.3279 -0.2336  0.1147
 4890TIP3    H136085   1.230   6.240  -0.085 -0.1148  0.6492 -0.2543
 4890TIP3    H236086   1.143   6.269   0.036 -0.6010  0.3245 -0.5198
 4891TIP3   OH236087   6.379   4.123  16.397  0.1590  0.2243 -0.2315
 4891TIP3    H136088   6.431   4.125  16.477  1.4337  0.2628 -1.0311
 4891TIP3    H236089   6.289   4.133  16.427  0.2609 -2.7241  1.4973
 4892TIP3   OH236090   5.154   2.202  14.650 -0.1997 -0.1271  0.4584
 4892TIP3    H136091   5.238   2.194  14.695  0.5959  2.5712 -0.3210
 4892TIP3    H236092   5.108   2.271  14.698 -1.2640 -0.4023 -0.1326
 4893TIP3   OH236093   5.130   2.107   4.544 -0.0529 -0.1209  0.7293
 4893TIP3    H136094   5.105   2.125   4.454  1.3121  0.1091  0.3759
 4893TIP3    H236095   5.121   2.191   4.589  2.8087  0.7436 -0.0872
 4894TIP3   OH236096   4.080   3.200   4.320  0.2797  0.4254 -0.1206
 4894TIP3    H136097   4.067   3.122   4.375 -0.5879 -0.3461 -1.3638
 4894TIP3    H236098   4.159   3.241   4.355  1.1090 -1.3495  0.2193
 4895TIP3   OH236099   3.788   5.590   5.025 -0.5355  0.1637 -0.3131
 4895TIP3    H136100   3.735   5.519   4.988 -1.5009  0.4675  0.4559
 4895TIP3    H236101   3.725   5.647   5.070  0.3809  0.8045  0.1968
 4896TIP3   OH236102   3.924   6.226  12.356 -0.3941 -0.0498 -0.0593
 4896TIP3    H136103   3.876   6.258  12.279  0.7947 -0.4488 -0.9907
 4896TIP3    H236104   4.012   6.206  12.323 -0.0662 -0.8943  1.2588
 4897TIP3   OH236105   4.619   6.698  11.656 -0.3823  0.4554  0.0390
 4897TIP3    H136106   4.613   6.774  11.714 -1.1660  0.1344  0.4002
 4897TIP3    H236107   4.538   6.701  11.604 -1.0175 -0.7896  0.9067
 4898TIP3   OH236108   2.177   2.319  13.706  0.3565 -0.7182 -0.2470
 4898TIP3    H136109   2.103   2.273  13.746 -0.9667  1.1282 -0.4168
 4898TIP3    H236110   2.251   2.303  13.765 -0.4056 -1.8131  0.4478
 4899TIP3   OH236111   0.383   5.540  11.631  0.5396  0.3888 -0.0632
 4899TIP3    H136112   0.352   5.510  11.716  1.0036  2.1126  0.7759
 4899TIP3    H236113   0.335   5.622  11.615  0.0865 -0.1439 -1.7280
 4900TIP3   OH236114   4.966   0.546   2.813  0.1518 -0.0250 -0.0249
 4900TIP3    H136115   5.007   0.461   2.827 -0.1330 -0.2864 -0.7476
 4900TIP3    H236116   5.021   0.589   2.748 -1.2390 -0.7752 -1.7613
 4901TIP3   OH236117   4.824   1.798  11.722  0.2144  0.4779  0.5356
 4901TIP3    H136118   4.908   1.842  11.731  1.2999 -0.7108 -2.4722
 4901TIP3    H236119   4.778   1.847  11.655 -1.2246  0.6487  1.5975
 4902TIP3   OH236120   6.468   1.926  10.973  0.3610 -0.3636  0.0236
 4902TIP3    H136121   6.563   1.939  10.970  0.4662 -0.8599  0.8956
 4902TIP3    H236122   6.433   1.996  10.919  1.0765  1.3901  1.7340
 4903TIP3   OH236123   6.023   1.536   0.291 -1.1331 -0.1830 -0.3143
 4903TIP3    H136124   6.089   1.560   0.356 -2.1477  0.9687  0.3212
 4903TIP3    H236125   6.074   1.510   0.214  0.0742  0.7363  0.1396
 4904TIP3   OH236126   2.965   1.295   3.903 -0.2967  0.3684 -0.1619
 4904TIP3    H136127   2.973   1.312   3.809  0.2538 -0.2437 -0.2348
 4904TIP3    H236128   3.050   1.259   3.927 -0.3248  0.8207  0.6427
 4905TIP3   OH236129   6.634   3.216  13.515  0.2333  0.2454  0.4589
 4905TIP3    H136130   6.715   3.228  13.564 -1.1182  1.8678  2.4948
 4905TIP3    H236131   6.605   3.127  13.537  2.1338 -0.9329 -1.5025
 4906TIP3   OH236132   3.623   5.400  16.753 -0.2296 -0.4195  0.0885
 4906TIP3    H136133   3.631   5.350  16.671 -0.7660 -0.3492 -0.0144
 4906TIP3    H236134   3.680   5.354  16.814 -0.7626 -1.2183  0.0163
 4907TIP3   OH236135   1.654   0.442   5.117 -0.2090  0.1629 -0.6316
 4907TIP3    H136136   1.725   0.422   5.055 -0.0280  0.1689 -0.4276
 4907TIP3    H236137   1.689   0.418   5.203 -0.6547 -0.3424 -0.5891
 4908TIP3   OH236138   5.694   6.380  15.655 -0.0171 -0.3563 -0.3360
 4908TIP3    H136139   5.660   6.457  15.701 -0.8500 -0.3567 -0.9246
 4908TIP3    H236140   5.708   6.409  15.565  2.6668 -0.0460  0.1071
 4909TIP3   OH236141   1.306   2.825   4.837 -0.1453 -0.2298  0.7979
 4909TIP3    H136142   1.234   2.787   4.887 -0.0006  0.3565  1.4658
 4909TIP3    H236143   1.380   2.825   4.898 -0.0676  0.8344  0.7284
 4910TIP3   OH236144   0.912   6.405   1.675  0.6438 -0.0742  0.2357
 4910TIP3    H136145   0.990   6.455   1.652  0.4089  0.0287 -0.3512
 4910TIP3    H236146   0.858   6.467   1.725  0.1070  0.4540 -0.9568
 4911TIP3   OH236147   5.873   5.014   1.387  0.4593 -0.2977  0.1975
 4911TIP3    H136148   5.934   5.069   1.436 -0.2030  0.0689  0.6224
 4911TIP3    H236149   5.892   4.924   1.415  1.2832 -0.2563 -0.2123
 4912TIP3   OH236150   1.707   3.431  10.745  0.1910 -0.0444  0.3709
 4912TIP3    H136151   1.770   3.498  10.773  0.4289  0.2560 -0.8350
 4912TIP3    H236152   1.761   3.365  10.702 -0.1850 -0.3939  0.4397
 4913TIP3   OH236153   6.493   2.393   4.623 -0.1284  0.5109  0.0728
 4913TIP3    H136154   6.427   2.438   4.570  1.1819 -2.1201 -4.3086
 4913TIP3    H236155   6.574   2.442   4.608  0.0292  0.4755  0.7695
 4914TIP3   OH236156   6.403   5.286   0.283  0.2785  0.0050  0.0459
 4914TIP3    H136157   6.389   5.199   0.245  1.4799 -0.2631  0.1519
 4914TIP3    H236158   6.323   5.304   0.333  0.1539 -1.2159  0.3243
 4915TIP3   OH236159   0.709   1.639  17.003 -0.4355 -0.8199 -0.2439
 4915TIP3    H136160   0.623   1.677  16.989 -0.6019 -1.0705  0.0901
 4915TIP3    H236161   0.768   1.714  17.010 -0.9311 -0.5682  1.5955
 4916TIP3   OH236162   5.130   1.784  16.893 -0.1787 -0.3917  0.5940
 4916TIP3    H136163   5.139   1.689  16.891 -0.6131 -0.4962  2.1205
 4916TIP3    H236164   5.157   1.809  16.982  0.1946  0.9413  0.1293
 4917TIP3   OH236165   3.087   5.624  17.031  0.3136 -0.3915 -0.3736
 4917TIP3    H136166   2.993   5.622  17.012 -0.1544  2.0188  1.2329
 4917TIP3    H236167   3.093   5.657  17.121  2.7087 -0.3202 -0.4956
 4918TIP3   OH236168   5.691   0.796   3.886  0.0786 -1.0077  0.4976
 4918TIP3    H136169   5.681   0.759   3.798  0.7513  1.8617 -0.9296
 4918TIP3    H236170   5.774   0.843   3.883 -0.9584  1.0927  1.8549
 4919TIP3   OH236171   4.664   5.525   4.076 -0.6345  0.9308  0.4090
 4919TIP3    H136172   4.693   5.588   4.142 -0.6877  0.1245  1.2042
 4919TIP3    H236173   4.586   5.485   4.113 -0.2661 -0.0296  0.1589
 4920TIP3   OH236174   3.736   0.097  11.138 -0.0646  0.1621  0.4525
 4920TIP3    H136175   3.641   0.100  11.128  0.0488  0.8038 -0.6236
 4920TIP3    H236176   3.756   0.005  11.157 -1.0256  0.2967  2.3670
 4921TIP3   OH236177   1.335   1.736   4.412  0.3065 -0.2069 -0.2175
 4921TIP3    H136178   1.370   1.809   4.462  0.2707 -0.2149 -0.1802
 4921TIP3    H236179   1.311   1.671   4.478 -0.9248  0.2927 -0.1539
 4922TIP3   OH236180   1.932   0.144  11.436  0.1422 -0.0258 -0.0535
 4922TIP3    H136181   1.923   0.208  11.507  0.7070  0.2931 -0.2579
 4922TIP3    H236182   1.977   0.192  11.366 -1.0062 -0.1339 -0.8980
 4923TIP3   OH236183   5.951   4.695  12.872  0.3187 -0.4399  0.0750
 4923TIP3    H136184   6.017   4.692  12.942 -0.1517 -1.4917  0.4921
 4923TIP3    H236185   5.874   4.734  12.913  0.9161  1.6578 -0.6566
 4924TIP3   OH236186   5.988   3.765  14.838  0.3862  0.3134  0.1643
 4924TIP3    H136187   6.033   3.696  14.887 -0.0161 -0.2175 -0.2014
 4924TIP3    H236188   6.013   3.750  14.747 -0.8933 -0.2841 -0.1040
 4925TIP3   OH236189   4.198   4.994   2.995  0.2535  0.7962 -0.1228
 4925TIP3    H136190   4.198   5.055   2.922  2.4577  0.4761 -0.4699
 4925TIP3    H236191   4.242   4.915   2.961  0.5770  0.3318  1.2889
 4926TIP3   OH236192   2.937   2.848   2.536  0.4537 -0.0361  0.1280
 4926TIP3    H136193   2.945   2.760   2.498  1.8019 -0.3726  1.0816
 4926TIP3    H236194   2.843   2.863   2.544  0.1955 -1.7366  0.6752
 4927TIP3   OH236195   0.675   4.711  13.991 -0.1978  0.5229 -0.5290
 4927TIP3    H136196   0.643   4.733  14.078 -0.2781 -0.0056 -0.4199
 4927TIP3    H236197   0.746   4.649  14.008 -0.2982  0.3225 -0.8453
 4928TIP3   OH236198   4.168   2.977  16.735 -0.3495  0.2104  0.1220
 4928TIP3    H136199   4.096   2.958  16.795 -2.0487  0.9728 -1.5752
 4928TIP3    H236200   4.237   2.915  16.759 -1.1497  0.1393  2.4674
 4929TIP3   OH236201   3.705   1.462  16.706  0.0687 -0.2784 -0.6046
 4929TIP3    H136202   3.617   1.426  16.711  0.2736 -0.5810  2.0056
 4929TIP3    H236203   3.763   1.386  16.715  0.5735  0.0736 -0.8175
 4930TIP3   OH236204   3.694   3.166   3.599  0.3853  0.0705  0.9099
 4930TIP3    H136205   3.630   3.222   3.642 -1.6487 -1.9780  0.7194
 4930TIP3    H236206   3.672   3.171   3.506 -1.2394 -2.4988  1.0351
 4931TIP3   OH236207   1.848   3.224   0.556  0.1327 -0.0685 -0.0991
 4931TIP3    H136208   1.782   3.159   0.534  0.3784 -0.3500 -0.0105
 4931TIP3    H236209   1.890   3.190   0.635  0.1729  0.2649  0.0275
 4932TIP3   OH236210   4.533   4.013  17.018  0.3733  0.4733  0.1698
 4932TIP3    H136211   4.516   4.105  17.039 -0.9844 -0.3398  3.2717
 4932TIP3    H236212   4.446   3.973  17.014  0.8210 -0.4054 -3.0884
 4933TIP3   OH236213   2.393   2.767  15.179 -0.3318 -0.3206  1.0247
 4933TIP3    H136214   2.376   2.782  15.272 -0.3423 -0.0192  0.9755
 4933TIP3    H236215   2.308   2.778  15.137 -0.4343 -1.0187  1.0484
 4934TIP3   OH236216   2.436   4.930  16.617 -0.4145  0.1742 -0.0034
 4934TIP3    H136217   2.372   4.969  16.677 -0.0701 -3.4854  3.1060
 4934TIP3    H236218   2.392   4.853  16.582  1.0830 -0.3888 -0.6979
 4935TIP3   OH236219   2.035   5.308  12.963 -0.3742 -0.2698  0.0315
 4935TIP3    H136220   1.989   5.323  13.046 -1.4412 -3.5544  0.1865
 4935TIP3    H236221   1.977   5.345  12.896 -1.0239 -0.2993  0.5678
 4936TIP3   OH236222   4.046   4.758   0.358  0.1318 -0.4325 -0.8584
 4936TIP3    H136223   3.963   4.783   0.319 -1.6618 -0.6756  2.4858
 4936TIP3    H236224   4.023   4.696   0.427  2.9561  0.3405  0.9497
 4937TIP3   OH236225   2.591   1.416   1.920  0.5151 -1.2238  0.5617
 4937TIP3    H136226   2.620   1.441   1.832  1.4114  1.9851  1.6246
 4937TIP3    H236227   2.663   1.442   1.978 -0.1749 -2.9534  2.3421
 4938TIP3   OH236228   6.625   2.795  13.212  0.0797 -0.1319  0.1784
 4938TIP3    H136229   6.648   2.850  13.137 -0.5748 -1.1651 -0.8047
 4938TIP3    H236230   6.541   2.830  13.243  0.1288  0.0128  0.1477
 4939TIP3   OH236231   4.376   1.445  16.497 -0.7299 -0.4374  0.1024
 4939TIP3    H136232   4.390   1.433  16.403 -0.9153 -1.5679  0.2086
 4939TIP3    H236233   4.369   1.356  16.532 -0.9529 -0.0233  1.1453
 4940TIP3   OH236234   3.462   6.526   2.046  0.0225  0.9660 -0.0367
 4940TIP3    H136235   3.535   6.473   2.080  1.2897  1.3555 -1.9648
 4940TIP3    H236236   3.384   6.489   2.088  0.6931 -3.0470 -1.7704
 4941TIP3   OH236237   3.646   5.771  13.547  0.7817 -0.1068  0.6381
 4941TIP3    H136238   3.595   5.778  13.467  1.6626 -2.3324 -0.1889
 4941TIP3    H236239   3.732   5.740  13.518  0.8845 -1.7313  2.4964
 4942TIP3   OH236240   0.083   0.995   1.210  0.1708 -0.0298 -0.2048
 4942TIP3    H136241   0.163   1.001   1.157  0.7983 -2.0530  0.4173
 4942TIP3    H236242   0.109   1.029   1.296 -0.2578  1.2517 -0.5536
 4943TIP3   OH236243   0.682   2.963  15.137  0.4750 -0.5544 -0.4489
 4943TIP3    H136244   0.764   2.916  15.155  0.7980 -0.7088 -2.1512
 4943TIP3    H236245   0.630   2.951  15.216  1.9460 -0.7739  0.5313
 4944TIP3   OH236246   3.457   1.694  15.793 -0.0233 -0.0966 -0.3118
 4944TIP3    H136247   3.491   1.676  15.880  0.8443  0.6799 -0.4734
 4944TIP3    H236248   3.415   1.780  15.800  0.9980  0.4679 -0.8960
 4945TIP3   OH236249   4.227   6.228   1.136 -0.0425 -0.5197  0.2781
 4945TIP3    H136250   4.165   6.301   1.146  0.7754  0.2488 -0.1700
 4945TIP3    H236251   4.244   6.225   1.042 -1.6393 -2.6322 -0.0188
 4946TIP3   OH236252   5.777   5.047   5.241  0.1589 -0.5567 -0.2373
 4946TIP3    H136253   5.738   5.134   5.249  0.0786 -0.4372 -1.6919
 4946TIP3    H236254   5.741   4.998   5.315  0.9499  0.8854  1.2012
 4947TIP3   OH236255   2.956   6.045   2.491 -0.0313  0.7324  0.0083
 4947TIP3    H136256   2.873   6.034   2.445 -1.0105  1.5882  1.4607
 4947TIP3    H236257   2.946   6.128   2.538  1.7962  1.0296 -0.0460
 4948TIP3   OH236258   2.252   5.220  12.200 -0.6903  0.3263  0.3850
 4948TIP3    H136259   2.315   5.285  12.231  0.0619  0.0319 -0.4603
 4948TIP3    H236260   2.303   5.139  12.194 -0.2793  0.6846 -3.0569
 4949TIP3   OH236261   0.060   4.843  11.595 -0.4034 -1.1027  0.2191
 4949TIP3    H136262   0.087   4.926  11.556 -0.1275 -1.7570 -1.0380
 4949TIP3    H236263   0.088   4.850  11.686 -2.7017  1.2096  0.8746
 4950TIP3   OH236264   4.973   3.596   2.933 -0.1454  0.2532 -0.4775
 4950TIP3    H136265   4.890   3.573   2.892 -0.2389  1.1006 -0.7879
 4950TIP3    H236266   5.040   3.564   2.873 -0.2720  0.9010 -0.9696
 4951TIP3   OH236267   6.633   3.696   6.174 -0.1919  0.3722  0.1407
 4951TIP3    H136268   6.663   3.629   6.112  2.4374  2.2979 -0.8404
 4951TIP3    H236269   6.691   3.686   6.250 -0.0525  1.2232  0.1583
 4952TIP3   OH236270   5.556   5.376   2.684 -0.5987  0.1463 -0.6672
 4952TIP3    H136271   5.574   5.326   2.763  2.2557  0.9251 -0.7052
 4952TIP3    H236272   5.535   5.464   2.715  0.2834  0.3898 -0.7224
 4953TIP3   OH236273   5.234   5.701   2.690 -1.3556  0.5989 -0.0023
 4953TIP3    H136274   5.288   5.672   2.616  0.8349 -0.4958  1.8661
 4953TIP3    H236275   5.186   5.623   2.716 -1.6792  0.8263  0.0814
 4954TIP3   OH236276   6.725   1.659   2.512  0.0369  0.3590 -0.0651
 4954TIP3    H136277   6.738   1.689   2.422  1.5070 -1.5407 -0.5563
 4954TIP3    H236278   6.658   1.591   2.504 -0.7000  1.0034  0.4866
 4955TIP3   OH236279   1.638   1.089   1.227  0.1299  0.5780 -0.2526
 4955TIP3    H136280   1.721   1.044   1.243 -0.4540 -0.3310  0.3287
 4955TIP3    H236281   1.579   1.053   1.293 -0.4875  1.8890 -0.0515
 4956TIP3   OH236282   2.771   6.121  13.716 -0.4390 -0.0477  0.0019
 4956TIP3    H136283   2.724   6.185  13.663  0.7460  0.0992 -0.9136
 4956TIP3    H236284   2.845   6.169  13.752  0.0010 -0.6908 -0.0210
 4957TIP3   OH236285   5.805   6.182   2.160 -0.5459  0.0194 -0.5643
 4957TIP3    H136286   5.753   6.192   2.081 -1.1406  0.7407 -0.0943
 4957TIP3    H236287   5.892   6.159   2.129 -1.3065 -2.0860 -1.3472
 4958TIP3   OH236288   1.742   2.405  16.717 -0.2277 -0.4253  0.3268
 4958TIP3    H136289   1.657   2.448  16.716  0.2340  0.5442 -1.1842
 4958TIP3    H236290   1.722   2.311  16.714 -1.2394 -0.3820  2.9828
 4959TIP3   OH236291   1.254   2.426  11.765  0.1357  0.5268  0.4576
 4959TIP3    H136292   1.252   2.394  11.855 -0.1370 -0.4399  0.1175
 4959TIP3    H236293   1.321   2.373  11.722 -1.0297 -0.3087 -0.3772
 4960TIP3   OH236294   4.776   5.229  13.427 -0.3907 -0.3994  0.2428
 4960TIP3    H136295   4.865   5.221  13.463 -0.5626  0.1759  0.8239
 4960TIP3    H236296   4.789   5.251  13.335  0.0696 -0.5490  0.2706
 4961TIP3   OH236297   2.999   3.412   0.713 -0.7328  0.0819  0.2480
 4961TIP3    H136298   2.984   3.327   0.671 -0.5766 -0.2675  0.8909
 4961TIP3    H236299   2.912   3.449   0.725 -0.8751 -0.4354  0.8768
 4962TIP3   OH236300   3.526   4.258   5.905 -0.1048 -0.4547 -0.3764
 4962TIP3    H136301   3.573   4.290   5.982 -0.3262  0.0954 -0.4695
 4962TIP3    H236302   3.579   4.184   5.875 -0.5785 -1.3686  0.9329
 4963TIP3   OH236303   4.425   3.761   1.885  0.3179 -0.2158 -0.3269
 4963TIP3    H136304   4.391   3.811   1.811 -1.0426 -0.7809 -0.1034
 4963TIP3    H236305   4.450   3.677   1.847  0.7363 -0.0857 -0.3461
 4964TIP3   OH236306   5.623   1.130  16.392 -0.0683  0.5620  0.1332
 4964TIP3    H136307   5.528   1.132  16.401 -0.5197 -0.9395 -3.0306
 4964TIP3    H236308   5.650   1.055  16.446 -1.2619 -1.4590 -1.8625
 4965TIP3   OH236309   3.371   5.420   2.739  0.3097  0.0469 -0.4929
 4965TIP3    H136310   3.438   5.352   2.726 -1.0881 -1.4010 -0.3989
 4965TIP3    H236311   3.378   5.474   2.660  2.3700  0.6758  0.0508
 4966TIP3   OH236312   1.733   4.150   0.376 -0.6251  0.1246 -0.0646
 4966TIP3    H136313   1.699   4.061   0.379 -1.8070  0.4282 -2.3491
 4966TIP3    H236314   1.763   4.167   0.465 -2.0540 -1.8953  0.8759
 4967TIP3   OH236315   0.836   6.427  11.998 -0.1653  0.0569 -0.3677
 4967TIP3    H136316   0.900   6.440  12.069  0.1207  0.4594 -0.6946
 4967TIP3    H236317   0.751   6.432  12.042  0.0134 -1.7535  0.2932
 4968TIP3   OH236318   6.101   6.354   4.824 -0.1679 -0.1187 -0.1264
 4968TIP3    H136319   6.122   6.408   4.900  1.0018 -1.4646  0.5540
 4968TIP3    H236320   6.060   6.275   4.861 -0.7141 -0.2659 -1.0008
 4969TIP3   OH236321   0.927   3.608  13.593  0.7778  0.4830 -0.0318
 4969TIP3    H136322   0.941   3.631  13.685 -0.2893 -1.3659  0.6459
 4969TIP3    H236323   0.978   3.673  13.544  2.8179  0.4592  1.8975
 4970TIP3   OH236324   1.228   5.061  15.852  0.1693  0.5322  0.5175
 4970TIP3    H136325   1.275   5.090  15.774 -1.7131 -0.8309 -1.2330
 4970TIP3    H236326   1.215   4.967  15.839 -1.7722  0.5923  1.5800
 4971TIP3   OH236327   5.624   1.666  15.324 -0.5615  0.1201 -0.3513
 4971TIP3    H136328   5.589   1.751  15.298 -2.1464  0.3433  2.1426
 4971TIP3    H236329   5.561   1.603  15.289 -0.8365  0.1854  0.0129
 4972TIP3   OH236330   3.679   1.769   2.980  0.2484  0.3043  0.6289
 4972TIP3    H136331   3.764   1.770   3.025  0.5145  0.4699  0.1245
 4972TIP3    H236332   3.698   1.734   2.893 -0.1377  0.6626  0.3970
 4973TIP3   OH236333   0.021   6.617  14.197  0.5679 -0.0899 -0.2836
 4973TIP3    H136334   0.100   6.631  14.248  0.8113 -0.6059 -0.5088
 4973TIP3    H236335  -0.050   6.651  14.252  1.0214  1.1246 -0.4340
 4974TIP3   OH236336   3.853   4.702   6.574 -0.0449  0.1590 -0.1605
 4974TIP3    H136337   3.769   4.712   6.619 -0.2677 -0.6747 -0.3818
 4974TIP3    H236338   3.852   4.613   6.541  0.5396  0.4490 -0.9790
 4975TIP3   OH236339   3.873   1.648  12.617  0.2256 -0.0425  0.2475
 4975TIP3    H136340   3.952   1.674  12.664  0.3472  1.8045 -0.8802
 4975TIP3    H236341   3.897   1.567  12.571  1.3239  0.2778  0.2461
 4976TIP3   OH236342   6.512   3.325   3.295  0.2392  0.1742  0.7612
 4976TIP3    H136343   6.530   3.243   3.249 -0.7747 -0.0011  0.6350
 4976TIP3    H236344   6.596   3.370   3.300  0.6750 -0.5675  0.2196
 4977TIP3   OH236345   0.314   2.684   4.570 -0.1298  0.2761 -0.1378
 4977TIP3    H136346   0.254   2.744   4.615 -1.7518 -0.5188 -1.1384
 4977TIP3    H236347   0.341   2.623   4.638 -0.7952  0.4126  0.2637
 4978TIP3   OH236348   3.606   1.458   3.699  0.2680  0.3306 -0.1891
 4978TIP3    H136349   3.656   1.504   3.632 -2.4150  1.1560 -1.7978
 4978TIP3    H236350   3.554   1.526   3.741 -1.5959 -0.7529 -0.5980
 4979TIP3   OH236351   1.725   6.044  12.644  0.1089 -0.0583  0.0136
 4979TIP3    H136352   1.751   6.081  12.728 -1.6231  0.3233  0.4071
 4979TIP3    H236353   1.688   6.117  12.595 -1.6775 -0.8424  0.1099
 4980TIP3   OH236354   3.507   0.013  12.764 -0.4181  0.2036 -0.9005
 4980TIP3    H136355   3.581   0.073  12.760  1.3511 -1.8002 -0.0245
 4980TIP3    H236356   3.449   0.052  12.830  1.6896 -0.0324  1.2239
 4981TIP3   OH236357   6.501   0.501  13.697 -0.0597 -0.2589  0.6819
 4981TIP3    H136358   6.476   0.582  13.742  1.8760  1.7578 -1.5760
 4981TIP3    H236359   6.564   0.459  13.756  1.9231  1.9810  0.3242
 4982TIP3   OH236360   0.559   5.946   1.931 -0.1861  0.0659 -0.6725
 4982TIP3    H136361   0.589   6.022   1.882  0.3667 -0.1922 -0.7362
 4982TIP3    H236362   0.629   5.881   1.921 -0.9125 -0.6725 -1.1283
 4983TIP3   OH236363   5.443   0.631  14.934  0.7214 -0.9127  0.4383
 4983TIP3    H136364   5.432   0.541  14.904 -0.4389 -0.4147 -0.7585
 4983TIP3    H236365   5.517   0.664  14.884  1.1274 -1.1844  0.8537
 4984TIP3   OH236366   6.689   1.737  13.149  0.0728  0.1406 -0.1430
 4984TIP3    H136367   6.639   1.812  13.117  0.8602  1.0113  0.6061
 4984TIP3    H236368   6.737   1.770  13.225  0.8496 -0.9839 -0.1073
 4985TIP3   OH236369   4.739   2.071   3.261 -0.5625  0.3452 -0.1403
 4985TIP3    H136370   4.727   2.166   3.260 -0.1239  0.5261  2.9138
 4985TIP3    H236371   4.650   2.036   3.272 -0.4605  0.6583  2.2335
 4986TIP3   OH236372   4.577   2.770  13.459 -0.6096  0.2483 -0.2668
 4986TIP3    H136373   4.664   2.758  13.496 -0.5552 -0.6815 -0.6591
 4986TIP3    H236374   4.517   2.756  13.532 -0.4822 -0.9712 -0.3788
 4987TIP3   OH236375   4.630   1.552  16.573  0.1196  0.1915 -0.2560
 4987TIP3    H136376   4.619   1.613  16.646  0.0083 -0.2270  0.0791
 4987TIP3    H236377   4.547   1.504  16.569 -0.4124  1.1660 -1.5457
 4988TIP3   OH236378   0.103   5.975  10.472 -0.3818 -0.0153  0.1697
 4988TIP3    H136379   0.029   6.002  10.526  1.2731 -1.1194  3.2650
 4988TIP3    H236380   0.124   6.052  10.419 -2.5713  0.9011  0.5391
 4989TIP3   OH236381   3.420   1.336   1.307  0.4302  0.2292  0.5650
 4989TIP3    H136382   3.335   1.312   1.345  0.1699 -0.1672 -0.2298
 4989TIP3    H236383   3.408   1.323   1.212  0.8005  1.9477  0.2625
 4990TIP3   OH236384   2.848   1.377  12.961  0.2213 -0.0399  0.1942
 4990TIP3    H136385   2.790   1.328  12.903  1.2553 -0.4501 -0.5470
 4990TIP3    H236386   2.839   1.468  12.934 -0.2166 -0.0786  0.2140
 4991TIP3   OH236387   4.305   5.551   2.290  0.0335  0.4663 -0.1862
 4991TIP3    H136388   4.331   5.582   2.204  0.6159  0.2289 -0.1085
 4991TIP3    H236389   4.356   5.605   2.351 -0.6022  0.8402  0.0226
 4992TIP3   OH236390   4.087   4.116  15.247  0.1439 -0.4988 -0.9283
 4992TIP3    H136391   4.063   4.034  15.203  1.4276 -1.1247 -0.5151
 4992TIP3    H236392   4.037   4.183  15.201  1.3295 -1.1224 -3.2742
 4993TIP3   OH236393   0.340   5.379  13.432  0.3902 -0.1893 -0.7228
 4993TIP3    H136394   0.411   5.320  13.406  0.6400 -0.1575 -0.1300
 4993TIP3    H236395   0.341   5.448  13.367  0.6133 -0.4252 -0.9728
 4994TIP3   OH236396   5.060   0.864  15.851  0.0899 -0.4161 -0.0045
 4994TIP3    H136397   5.016   0.918  15.917 -1.5941 -1.4141 -0.2531
 4994TIP3    H236398   5.061   0.776  15.888 -1.5207 -1.1422 -1.5249
 4995TIP3   OH236399   1.775   2.029   6.711 -0.2483  0.1957  0.0947
 4995TIP3    H136400   1.706   1.971   6.743 -0.0143  0.3029  0.8018
 4995TIP3    H236401   1.855   1.999   6.755  0.7809 -1.7836 -2.8382
 4996TIP3   OH236402   0.314   0.233  17.072 -0.3010 -0.2120 -0.0975
 4996TIP3    H136403   0.372   0.161  17.099 -0.3728 -0.8824 -1.6132
 4996TIP3    H236404   0.233   0.190  17.046 -0.7269  0.5286 -0.0095
 4997TIP3   OH236405   2.392   4.701   2.352  0.0962  0.0597 -0.3651
 4997TIP3    H136406   2.328   4.696   2.281  0.2821  2.9165 -0.8271
 4997TIP3    H236407   2.477   4.699   2.308  0.2674 -0.5491 -0.0130
 4998TIP3   OH236408   2.881   5.995  11.770 -0.2437 -0.5113  0.5087
 4998TIP3    H136409   2.818   5.924  11.779 -0.3404 -0.8028 -2.0029
 4998TIP3    H236410   2.866   6.030  11.682  2.0655  0.4151  0.4246
 4999TIP3   OH236411   5.062   6.564   5.872 -0.2206  0.3899  0.2166
 4999TIP3    H136412   5.054   6.587   5.965  3.3739  0.1328  0.7604
 4999TIP3    H236413   5.073   6.649   5.828 -0.4671  0.4310  0.2317
 5000TIP3   OH236414   0.274   0.531   2.416  0.1016  0.1619  0.0398
 5000TIP3    H136415   0.291   0.596   2.348 -0.3742 -0.5992 -0.8287
 5000TIP3    H236416   0.324   0.454   2.388 -2.9036 -1.4134 -1.4518
 5001TIP3   OH236417   4.496   2.978  14.135 -0.0170  0.0809  0.1943
 5001TIP3    H136418   4.431   3.046  14.154  1.6025  1.7178  0.1243
 5001TIP3    H236419   4.500   2.925  14.214 -1.6997 -0.3098  0.0521
 5002TIP3   OH236420   3.994   1.419  15.483 -0.2684  0.2024  0.4044
 5002TIP3    H136421   4.013   1.510  15.463 -1.4849  0.2240 -0.7031
 5002TIP3    H236422   3.905   1.419  15.516 -1.0564 -0.8152 -1.5824
 5003TIP3   OH236423   4.843   6.060  14.466 -0.1221 -0.3534  0.1003
 5003TIP3    H136424   4.757   6.058  14.423  0.0033 -2.2677 -0.1711
 5003TIP3    H236425   4.900   6.012  14.406  0.7693 -0.4787  1.0312
 5004TIP3   OH236426   6.470   6.665   0.005 -0.4383  0.0294  0.3878
 5004TIP3    H136427   6.418   6.616  -0.059 -0.4167  2.5814 -1.7934
 5004TIP3    H236428   6.407   6.690   0.072 -1.4774  0.6639 -0.7645
 5005TIP3   OH236429   0.721   2.664   1.567  0.0330  0.4518  0.5374
 5005TIP3    H136430   0.634   2.623   1.561  0.6449 -1.1283  1.8684
 5005TIP3    H236431   0.754   2.663   1.477  0.1205 -2.2968  0.5265
 5006TIP3   OH236432   1.749   0.356   5.370 -0.0027  0.2043 -0.1848
 5006TIP3    H136433   1.782   0.439   5.404  0.4201  0.3512 -0.9357
 5006TIP3    H236434   1.773   0.291   5.436  3.2029  0.0280 -1.3268
 5007TIP3   OH236435   3.198   4.314  11.303  0.8143 -0.2301  0.3881
 5007TIP3    H136436   3.285   4.275  11.313  0.6251 -0.1246  3.5491
 5007TIP3    H236437   3.148   4.278  11.377 -1.5860  0.3952 -0.8444
 5008TIP3   OH236438   5.580   1.578  12.585 -0.0261  0.4003  0.8714
 5008TIP3    H136439   5.612   1.527  12.510  0.4596 -0.1183  1.4173
 5008TIP3    H236440   5.486   1.563  12.586 -0.4871  2.5223 -1.2062
 5009TIP3   OH236441   5.775   2.304  11.984  0.3804  0.3230  0.3632
 5009TIP3    H136442   5.865   2.326  11.958  0.8433 -0.5088  1.1924
 5009TIP3    H236443   5.786   2.249  12.062 -0.9377  2.4278  2.1497
 5010TIP3   OH236444   2.592   3.775  10.833  0.6359 -0.1222  0.6403
 5010TIP3    H136445   2.598   3.680  10.820  0.7910 -0.0854  0.4301
 5010TIP3    H236446   2.586   3.810  10.744  2.2901  0.1711  0.6070
 5011TIP3   OH236447   4.760   3.909  14.937  0.0651 -0.5837  0.3604
 5011TIP3    H136448   4.690   3.908  15.002 -0.7997  0.1510 -0.5250
 5011TIP3    H236449   4.719   3.877  14.857  0.1280  1.7616 -0.7142
 5012TIP3   OH236450   4.269   6.328  13.857  1.0440 -0.2958 -0.1371
 5012TIP3    H136451   4.228   6.410  13.886  1.4324 -0.1838  0.1130
 5012TIP3    H236452   4.235   6.262  13.918 -0.8734 -0.7280 -1.5761
 5013TIP3   OH236453   2.447   3.219  14.795 -0.8799 -0.3089 -0.3515
 5013TIP3    H136454   2.435   3.260  14.881 -1.2518 -0.1173 -0.4950
 5013TIP3    H236455   2.511   3.149  14.811 -1.0014 -0.3232  0.0982
 5014TIP3   OH236456   6.749   6.679   1.222  0.0568  0.3204 -0.7692
 5014TIP3    H136457   6.754   6.740   1.148  0.3481 -0.7894 -1.6860
 5014TIP3    H236458   6.705   6.729   1.291  0.3244  1.5782 -1.4774
 5015TIP3   OH236459   4.429   0.295  12.726  0.0471 -0.0408  0.5815
 5015TIP3    H136460   4.430   0.345  12.644 -0.7692 -1.2353 -0.1939
 5015TIP3    H236461   4.353   0.237  12.718  1.1252 -1.6379  1.2907
 5016TIP3   OH236462   1.564   3.263  14.911 -0.6525 -0.2434 -0.6009
 5016TIP3    H136463   1.642   3.212  14.892  1.0855  1.8923  0.3146
 5016TIP3    H236464   1.556   3.323  14.837 -0.5364  0.5103 -0.0183
 5017TIP3   OH236465   4.698   5.177   5.231  0.2278 -0.0779 -0.1995
 5017TIP3    H136466   4.667   5.138   5.313 -1.3778  1.1508 -0.1838
 5017TIP3    H236467   4.624   5.227   5.198  1.5847  1.3549 -1.2312
 5018TIP3   OH236468   2.371   3.875  16.768 -0.7069 -0.1513 -0.4901
 5018TIP3    H136469   2.382   3.854  16.675 -0.7989  3.0937 -1.3486
 5018TIP3    H236470   2.429   3.949  16.783 -3.1841  1.6176  1.1237
 5019TIP3   OH236471   6.260   4.511   5.154  0.3406 -0.1561 -0.3857
 5019TIP3    H136472   6.311   4.452   5.099  1.1722 -0.9102  1.1360
 5019TIP3    H236473   6.203   4.453   5.205 -0.8212  0.5638 -0.8159
 5020TIP3   OH236474   1.911   5.049   2.704  0.0272  0.2698  0.5671
 5020TIP3    H136475   1.841   5.112   2.720 -0.9050 -1.0009  1.7128
 5020TIP3    H236476   1.872   4.983   2.647  0.0669 -0.7378  1.6568
 5021TIP3   OH236477   6.667   4.466  17.069 -0.5679 -0.0573  0.0038
 5021TIP3    H136478   6.608   4.522  17.121 -1.5796 -0.8080 -0.3125
 5021TIP3    H236479   6.752   4.475  17.113 -0.9125  1.0147  0.4985
 5022TIP3   OH236480   1.971   1.487   3.865  0.0703  0.4734 -0.0671
 5022TIP3    H136481   1.991   1.402   3.905 -0.5373  0.7386  0.8239
 5022TIP3    H236482   2.037   1.547   3.901  0.5892  0.3664 -0.8066
 5023TIP3   OH236483   5.580   1.978   1.276 -0.4970  1.0318 -0.1958
 5023TIP3    H136484   5.563   1.988   1.182  0.8325 -0.2857 -0.6103
 5023TIP3    H236485   5.670   2.008   1.287  1.6138 -4.2234 -0.5054
 5024TIP3   OH236486   1.533   3.385  16.713 -0.7964  0.1562  0.1381
 5024TIP3    H136487   1.444   3.402  16.746 -0.9474 -1.0875  0.4118
 5024TIP3    H236488   1.520   3.366  16.620 -0.6316  1.4318 -0.1603
 5025TIP3   OH236489   5.202   6.491  12.262  0.8489  0.2970 -0.2824
 5025TIP3    H136490   5.283   6.466  12.307  0.0196 -2.3369 -0.0879
 5025TIP3    H236491   5.132   6.451  12.313 -0.4622  1.0552 -1.4083
 5026TIP3   OH236492   0.776   5.959  16.725 -0.1791 -0.6994 -0.0103
 5026TIP3    H136493   0.859   5.913  16.739 -0.6966 -1.0061  2.4709
 5026TIP3    H236494   0.710   5.889  16.725 -0.7584 -0.1997  1.7284
 5027TIP3   OH236495   5.268   5.622  14.286 -0.0846 -0.2347  0.2161
 5027TIP3    H136496   5.215   5.647  14.362 -0.2418 -1.2561  0.4523
 5027TIP3    H236497   5.352   5.594  14.323 -0.4043 -1.4042  0.0812
 5028TIP3   OH236498   3.929   5.219   2.378  0.3010 -0.9079 -0.2533
 5028TIP3    H136499   4.004   5.279   2.382 -1.0457  1.0745 -2.4702
 5028TIP3    H236500   3.969   5.133   2.362  2.1414 -0.1869  0.1216
 5029TIP3   OH236501   5.987   1.298  13.806  0.5956 -0.7310 -0.0141
 5029TIP3    H136502   6.077   1.327  13.792  0.3588 -0.7483 -1.8175
 5029TIP3    H236503   5.934   1.377  13.794  0.4279 -0.3904  2.5364
 5030TIP3   OH236504   6.004   4.094  11.094  0.2363  0.2501 -0.0154
 5030TIP3    H136505   5.920   4.136  11.112  0.1661 -0.0147  0.2768
 5030TIP3    H236506   5.995   4.006  11.131  1.1544  0.6818  1.3005
 5031TIP3   OH236507   2.745   3.606   1.950 -0.8137  0.1749  0.2602
 5031TIP3    H136508   2.715   3.581   1.863 -0.5001  2.6362 -0.6528
 5031TIP3    H236509   2.804   3.536   1.977 -1.9800 -1.3043 -0.8918
 5032TIP3   OH236510   0.074   4.184  11.225  0.1844  0.0042  0.0797
 5032TIP3    H136511   0.027   4.138  11.156 -0.1777  1.5784 -0.7737
 5032TIP3    H236512   0.161   4.144  11.225  0.3969  0.3792 -1.7542
 5033TIP3   OH236513   4.975   0.864  15.598 -0.0145  0.7223 -0.0839
 5033TIP3    H136514   4.927   0.946  15.596  1.8973  1.8997  0.3426
 5033TIP3    H236515   5.004   0.855  15.689 -1.5482 -1.3015  0.2954
 5034TIP3   OH236516   5.704   3.338  12.684 -0.0970 -0.2461  0.3629
 5034TIP3    H136517   5.654   3.314  12.762 -1.6205  1.6722  0.0499
 5034TIP3    H236518   5.790   3.362  12.717 -0.6901  0.4328  1.4865
 5035TIP3   OH236519   1.963   3.836  13.527 -0.2815  0.4089  0.5766
 5035TIP3    H136520   2.033   3.899  13.509  1.0101 -0.7035  1.4361
 5035TIP3    H236521   1.884   3.878  13.494  0.4319  2.6742  1.5055
 5036TIP3   OH236522   1.754   6.325   3.385  0.0948  0.3232  0.0262
 5036TIP3    H136523   1.769   6.240   3.426  1.1151  0.5046  0.0623
 5036TIP3    H236524   1.837   6.372   3.397 -0.4603  1.3287  0.0222
 5037TIP3   OH236525   2.643   6.491  13.376  0.3271  0.4127 -0.6373
 5037TIP3    H136526   2.595   6.570  13.400 -0.3473  0.2612 -1.4399
 5037TIP3    H236527   2.728   6.500  13.419 -0.7083  0.2766  1.5789
 5038TIP3   OH236528   6.128   6.575   2.958 -0.2054 -0.5133  0.0972
 5038TIP3    H136529   6.145   6.481   2.965  1.3670 -0.3535 -1.0435
 5038TIP3    H236530   6.208   6.616   2.988 -1.4681  0.5542  2.2065
 5039TIP3   OH236531   5.261   1.233   6.211  0.4192  0.5582  0.4500
 5039TIP3    H136532   5.310   1.172   6.267  0.0878  0.4797  0.6590
 5039TIP3    H236533   5.172   1.230   6.246 -0.0295 -0.2620 -0.7205
 5040TIP3   OH236534   2.118   3.691   0.750  0.0648  0.2873  0.3371
 5040TIP3    H136535   2.040   3.666   0.799 -0.0174  0.2586  0.1947
 5040TIP3    H236536   2.125   3.623   0.682  0.7811 -0.2690  0.9573
 5041TIP3   OH236537   2.812   0.220  12.256 -0.3686  0.6819  0.4896
 5041TIP3    H136538   2.785   0.186  12.342 -1.8189 -1.3743 -0.6840
 5041TIP3    H236539   2.903   0.190  12.246 -0.9641 -1.2008  0.3571
 5042TIP3   OH236540   4.717   3.491  12.974 -0.0715 -0.3858 -0.0967
 5042TIP3    H136541   4.655   3.426  13.004  0.9135 -0.8476  1.0307
 5042TIP3    H236542   4.797   3.442  12.956  0.1807  0.2828 -0.9128
 5043TIP3   OH236543   1.860   0.143   6.002  0.1166  0.1028  0.2240
 5043TIP3    H136544   1.765   0.150   5.989  0.2947  0.1493 -1.2486
 5043TIP3    H236545   1.885   0.065   5.952  1.4799  2.6140 -3.4474
 5044TIP3   OH236546   1.623   0.811   5.530 -0.2571 -0.1761 -0.4079
 5044TIP3    H136547   1.538   0.846   5.502 -1.1183  0.2318  2.4363
 5044TIP3    H236548   1.620   0.719   5.504 -2.1412 -0.4889  0.7158
 5045TIP3   OH236549   4.558   3.019  11.695  0.3830  0.1625 -0.5877
 5045TIP3    H136550   4.649   3.032  11.665  0.5099  0.5309 -0.0498
 5045TIP3    H236551   4.535   2.932  11.663  0.4511  0.6000 -1.9200
 5046TIP3   OH236552   6.109   6.536   5.031  0.1720  0.0017  0.4698
 5046TIP3    H136553   6.034   6.592   5.046 -1.4347 -1.9213  0.0259
 5046TIP3    H236554   6.174   6.593   4.991 -1.4278  1.4979 -0.1049
 5047TIP3   OH236555   0.570   6.499  16.274  0.3479 -0.1798  0.2789
 5047TIP3    H136556   0.590   6.479  16.182 -0.0527  1.3159 -0.1661
 5047TIP3    H236557   0.497   6.441  16.295  0.3388 -0.4301 -0.4067
 5048TIP3   OH236558   0.319   0.551  11.223 -0.2715 -0.4305  0.4967
 5048TIP3    H136559   0.414   0.541  11.230 -0.3768 -1.2787  0.8847
 5048TIP3    H236560   0.284   0.500  11.296 -1.0925 -1.6885 -0.7270
 5049TIP3   OH236561   6.271   2.602  13.289 -0.4831 -0.1888  0.3694
 5049TIP3    H136562   6.193   2.651  13.317 -0.0067  0.9397 -0.2153
 5049TIP3    H236563   6.280   2.624  13.196  0.7465 -0.0181  0.5211
 5050TIP3   OH236564   2.173   6.629   3.460 -0.2053  0.3000 -0.3646
 5050TIP3    H136565   2.221   6.649   3.540 -1.0684 -0.1258  0.2802
 5050TIP3    H236566   2.128   6.710   3.438  0.4227  0.5645 -0.7145
 5051TIP3   OH236567   3.703   2.047   2.381  0.2552 -0.0471 -0.1089
 5051TIP3    H136568   3.659   1.965   2.403 -1.1460  0.6724 -0.1125
 5051TIP3    H236569   3.749   2.028   2.299 -2.4369 -0.0819 -1.7333
 5052TIP3   OH236570   3.087   6.270  12.356  0.0526 -0.2719  0.5688
 5052TIP3    H136571   3.077   6.182  12.391  1.0246 -0.0269  1.4969
 5052TIP3    H236572   3.022   6.323  12.404 -0.2140 -0.3789  0.3333
 5053TIP3   OH236573   4.534   0.822  13.856 -0.3504 -0.4963  0.1055
 5053TIP3    H136574   4.594   0.839  13.783  1.3943  1.4925  1.8625
 5053TIP3    H236575   4.486   0.743  13.830  0.9967 -0.5273 -2.6515
 5054TIP3   OH236576   1.884   4.865   2.481 -0.1987  0.3225 -0.1433
 5054TIP3    H136577   1.944   4.792   2.495 -2.2536 -0.9861  3.0958
 5054TIP3    H236578   1.814   4.828   2.427 -0.8425  0.0694  0.8331
 5055TIP3   OH236579   4.491   2.696  11.960 -0.0943  0.3331  0.0212
 5055TIP3    H136580   4.506   2.700  11.866  1.9644 -4.2646 -0.1371
 5055TIP3    H236581   4.579   2.695  11.998 -0.8617  0.9530  1.9001
 5056TIP3   OH236582   2.447   6.371   4.827 -0.2345  0.0501 -0.1008
 5056TIP3    H136583   2.385   6.306   4.862  0.1529 -0.4977 -0.4182
 5056TIP3    H236584   2.396   6.452   4.823 -0.4275  0.0234  1.2881
 5057TIP3   OH236585   1.249   1.059  13.264  0.1953  0.0145 -0.4409
 5057TIP3    H136586   1.294   1.114  13.200 -0.2569  0.3672 -0.4641
 5057TIP3    H236587   1.175   1.021  13.215 -0.3801  0.5948 -0.0309
 5058TIP3   OH236588   1.758   4.854   4.390 -0.4624 -0.0547 -0.5090
 5058TIP3    H136589   1.763   4.852   4.294  2.0082 -1.8800 -0.4644
 5058TIP3    H236590   1.739   4.945   4.412 -1.2377  0.3702 -2.7161
 5059TIP3   OH236591   4.415   3.619   0.031 -0.6283 -0.1164  0.4334
 5059TIP3    H136592   4.498   3.612   0.079  0.8178 -0.3112 -1.9237
 5059TIP3    H236593   4.434   3.581  -0.055 -3.2053 -0.2055 -0.1778
 5060TIP3   OH236594   5.216   6.218  16.006 -0.5336  0.0767 -0.4349
 5060TIP3    H136595   5.190   6.172  15.926  0.7426  1.0738 -1.4607
 5060TIP3    H236596   5.312   6.216  16.005 -0.4915  0.8754  0.6192
 5061TIP3   OH236597   0.424   1.272  16.299  0.8360 -0.0632 -0.4017
 5061TIP3    H136598   0.518   1.281  16.314  0.5780 -0.5934  1.7608
 5061TIP3    H236599   0.394   1.361  16.281  1.3880  0.5118  1.3609
 5062TIP3   OH236600   3.740   6.051   0.201 -0.5800  0.2107 -0.0049
 5062TIP3    H136601   3.736   6.076   0.108 -0.3380  0.5976  0.0846
 5062TIP3    H236602   3.812   6.104   0.236 -0.3415 -0.3030  0.2936
 5063TIP3   OH236603   4.910   5.986  16.743  0.2054  0.4827 -0.7860
 5063TIP3    H136604   4.933   5.939  16.663  0.7811 -0.8827  0.1366
 5063TIP3    H236605   4.994   6.013  16.780 -0.0070  0.4786 -0.2905
 5064TIP3   OH236606   5.020   2.425   4.277 -0.4848 -1.1808  0.0730
 5064TIP3    H136607   4.943   2.401   4.224 -0.7118 -1.2795  0.4426
 5064TIP3    H236608   5.053   2.505   4.237  0.3978 -2.1925 -1.3156
 5065TIP3   OH236609   0.746   0.473   2.274  0.3376 -0.2667 -0.1529
 5065TIP3    H136610   0.760   0.390   2.320  0.0763 -1.6046 -2.3799
 5065TIP3    H236611   0.680   0.454   2.208  0.1098  1.7864 -0.5876
 5066TIP3   OH236612   0.383   3.866  16.871  0.6054 -0.0989 -0.1423
 5066TIP3    H136613   0.415   3.786  16.830 -1.6859 -2.6318  2.5330
 5066TIP3    H236614   0.382   3.846  16.965 -4.5691  1.1564  0.3622
 5067TIP3   OH236615   0.746   1.438   0.721 -0.7922 -0.3146  0.6785
 5067TIP3    H136616   0.816   1.420   0.783 -0.2956 -0.7052  0.0256
 5067TIP3    H236617   0.677   1.376   0.744 -0.8158 -0.1086  1.1587
 5068TIP3   OH236618   0.391   6.148   1.131 -0.1727 -0.1979 -0.1411
 5068TIP3    H136619   0.335   6.118   1.203 -1.1361 -0.0999 -0.8347
 5068TIP3    H236620   0.361   6.098   1.055 -0.6230  1.2321 -0.9329
 5069TIP3   OH236621   3.654   1.931  13.795  0.0163 -0.1082 -0.0168
 5069TIP3    H136622   3.607   2.012  13.816  1.0448  0.9917 -1.7452
 5069TIP3    H236623   3.670   1.937  13.701  1.3235 -1.6817  0.0766
 5070TIP3   OH236624   5.667   0.280   2.273 -0.5410  0.4030 -0.3974
 5070TIP3    H136625   5.749   0.231   2.283 -1.5539 -1.6619 -1.4183
 5070TIP3    H236626   5.694   0.370   2.258  1.4798  0.0147  0.5626
 5071TIP3   OH236627   5.460   3.653  12.189  0.2907 -0.0003  0.4151
 5071TIP3    H136628   5.501   3.732  12.155  0.5893 -0.2300  0.2397
 5071TIP3    H236629   5.445   3.672  12.282 -0.1323  0.4617  0.2570
 5072TIP3   OH236630   0.464   4.382   5.673 -0.2099  0.5894 -0.1190
 5072TIP3    H136631   0.430   4.309   5.723 -0.9918  1.6399  0.9301
 5072TIP3    H236632   0.534   4.344   5.619 -1.8120 -1.2849 -1.0166
 5073TIP3   OH236633   6.628   5.653   4.014  0.1050  0.3959  0.2273
 5073TIP3    H136634   6.580   5.730   4.045  0.7608  0.2982  1.5234
 5073TIP3    H236635   6.659   5.678   3.927 -1.9475  0.5958 -0.4995
 5074TIP3   OH236636   6.615   6.426   5.243 -0.9056 -0.5706  0.3321
 5074TIP3    H136637   6.677   6.475   5.189 -0.5611 -1.2664  0.0823
 5074TIP3    H236638   6.529   6.446   5.206 -0.7698 -0.1715  0.2283
 5075TIP3   OH236639   2.238   6.699  15.269  0.5793 -0.2568  0.0696
 5075TIP3    H136640   2.148   6.670  15.252  0.8096 -2.3472  1.8728
 5075TIP3    H236641   2.292   6.647  15.210  0.7769 -1.3462  1.1637
 5076TIP3   OH236642   0.910   0.951  12.743  0.1766 -0.8649  0.0108
 5076TIP3    H136643   0.982   1.012  12.752 -0.5234  0.3740 -2.0508
 5076TIP3    H236644   0.858   0.962  12.823  0.5767  0.5494  0.1000
 5077TIP3   OH236645   1.966   2.168   6.288 -0.0373 -0.2409 -0.0833
 5077TIP3    H136646   2.035   2.122   6.336  0.0320  0.6471  0.6821
 5077TIP3    H236647   1.898   2.102   6.273  0.3844 -0.7740  0.3418
 5078TIP3   OH236648   3.482   2.100  15.558 -0.1744 -0.2032 -0.1683
 5078TIP3    H136649   3.514   2.051  15.482 -0.9046 -2.2618  0.7699
 5078TIP3    H236650   3.441   2.033  15.613 -2.3242  1.6787  0.6411
 5079TIP3   OH236651   4.599   2.063   4.159 -0.2073 -0.3008 -0.8287
 5079TIP3    H136652   4.677   2.016   4.129  0.9390  1.6428 -1.0251
 5079TIP3    H236653   4.609   2.068   4.254 -1.0129 -1.5743 -0.6560
 5080TIP3   OH236654   6.465   0.158   3.303  0.4029  0.6087  0.6287
 5080TIP3    H136655   6.387   0.139   3.355 -0.1914  1.3282  0.0236
 5080TIP3    H236656   6.443   0.127   3.215  1.4743 -0.7802  0.8086
 5081TIP3   OH236657   2.318   5.019   1.157 -0.1517 -0.4360  0.0021
 5081TIP3    H136658   2.233   4.981   1.132  0.8335 -2.0635 -1.1099
 5081TIP3    H236659   2.355   5.050   1.075  1.0506 -1.3507  0.1670
 5082TIP3   OH236660   6.356   4.235  12.277  0.1270  0.0548  0.1399
 5082TIP3    H136661   6.287   4.268  12.219 -0.3813  0.4935  0.9662
 5082TIP3    H236662   6.335   4.142  12.289 -0.5311  0.2534  0.6368
 5083TIP3   OH236663   4.096   3.434   0.532  0.0864 -0.2626 -0.1069
 5083TIP3    H136664   4.031   3.488   0.577 -1.3752 -1.5909 -0.5115
 5083TIP3    H236665   4.123   3.485   0.456 -0.1511  0.4983  0.3118
 5084TIP3   OH236666   0.568   0.175   1.836  0.0449  0.9224 -0.2020
 5084TIP3    H136667   0.582   0.138   1.748  1.1836  0.2908  0.2332
 5084TIP3    H236668   0.599   0.108   1.896  2.3971  2.6310  0.6248
 5085TIP3   OH236669   0.221   5.261   3.298  0.0399  0.6248 -0.1724
 5085TIP3    H136670   0.253   5.200   3.364  0.6323 -0.0235 -1.0311
 5085TIP3    H236671   0.168   5.324   3.346  0.4900  0.1857  0.9153
 5086TIP3   OH236672   2.458   3.724  11.081 -0.8619 -0.2639  0.1715
 5086TIP3    H136673   2.516   3.763  11.015 -1.6323  0.9472  0.1766
 5086TIP3    H236674   2.414   3.653  11.035  1.4956 -2.0654  0.4980
 5087TIP3   OH236675   5.187   0.747   0.635  0.3563  0.1658 -0.2184
 5087TIP3    H136676   5.230   0.666   0.663  0.6937 -0.1678 -1.6286
 5087TIP3    H236677   5.256   0.812   0.634  0.3221  0.2027 -0.1658
 5088TIP3   OH236678   4.034   6.115  12.084 -0.4998 -0.3418 -0.0200
 5088TIP3    H136679   4.108   6.106  12.144 -0.3376 -0.5501 -0.2470
 5088TIP3    H236680   4.073   6.106  11.997 -0.5698  1.0122 -0.2171
 5089TIP3   OH236681   6.677   3.901  13.376 -0.3739 -0.0034 -0.4574
 5089TIP3    H136682   6.595   3.877  13.334  0.0836 -0.2022 -1.2677
 5089TIP3    H236683   6.689   3.993  13.352  0.8148 -0.5974 -2.4202
 5090TIP3   OH236684   2.160   5.250  12.663 -0.2428  0.0424  0.1188
 5090TIP3    H136685   2.072   5.259  12.700 -0.4829  0.6425 -0.5761
 5090TIP3    H236686   2.193   5.168  12.700 -1.8588 -1.2439 -1.1377
 5091TIP3   OH236687   5.624   2.177  15.359  0.3184  0.0222 -0.6115
 5091TIP3    H136688   5.589   2.124  15.431 -2.4962  2.8005  0.2931
 5091TIP3    H236689   5.546   2.213  15.316  1.8954  4.2291 -0.4269
 5092TIP3   OH236690   5.913   6.036  13.820 -0.3625  0.2413  0.0179
 5092TIP3    H136691   5.934   6.084  13.740 -0.0636 -0.4460 -0.3233
 5092TIP3    H236692   5.960   5.953  13.811 -4.0631 -1.9535 -1.3761
 5093TIP3   OH236693   0.574   5.568  16.000  0.1630 -0.4816 -0.5292
 5093TIP3    H136694   0.552   5.542  15.911 -0.1061 -1.1474 -0.2744
 5093TIP3    H236695   0.667   5.588  15.998 -0.3692  2.4879 -1.6628
 5094TIP3   OH236696   1.027   3.056  12.108 -0.4511 -0.0027  0.0652
 5094TIP3    H136697   1.106   3.023  12.151 -0.0998 -2.5396 -2.2331
 5094TIP3    H236698   1.046   3.148  12.091  1.5344 -0.2572  0.6136
 5095TIP3   OH236699   5.408   5.929   1.509 -0.3288  0.3791  0.1397
 5095TIP3    H136700   5.334   5.930   1.448  1.0386 -0.6666 -1.6206
 5095TIP3    H236701   5.442   5.840   1.505  1.1307  0.8704  0.7893
 5096TIP3   OH236702   2.233   1.110   2.511 -0.2901 -0.6156  0.4685
 5096TIP3    H136703   2.159   1.170   2.504  0.4930  0.4475  0.9627
 5096TIP3    H236704   2.265   1.100   2.422 -0.6540 -0.6117  0.3344
 5097TIP3   OH236705   4.107   5.767   5.452 -0.4098  0.0013 -0.2199
 5097TIP3    H136706   4.082   5.740   5.364 -0.2534 -0.6898 -0.0639
 5097TIP3    H236707   4.185   5.715   5.472  1.1686  2.0690 -0.6726
 5098TIP3   OH236708   2.376   3.533   6.039  0.1289  0.6603 -0.1589
 5098TIP3    H136709   2.376   3.493   6.126 -0.6568  0.3760 -0.2829
 5098TIP3    H236710   2.444   3.600   6.044  0.0040  0.7433  0.7220
 5099TIP3   OH236711   5.026   0.306  13.351 -0.0204  0.3102 -0.3128
 5099TIP3    H136712   4.943   0.334  13.388 -0.1977  0.0130 -0.4863
 5099TIP3    H236713   5.003   0.242  13.284  0.2513  1.2114 -1.2997
 5100TIP3   OH236714   5.715   2.125   1.897 -0.0519 -0.2047  0.0444
 5100TIP3    H136715   5.804   2.146   1.869 -0.4189 -1.0753 -1.9764
 5100TIP3    H236716   5.682   2.207   1.933  1.9821 -0.2122  2.1915
 5101TIP3   OH236717   1.308   5.907  10.163 -0.0914 -0.2858  0.1640
 5101TIP3    H136718   1.327   5.833  10.220  1.1429  0.4957  0.8208
 5101TIP3    H236719   1.245   5.960  10.211  2.0044  1.1165  1.5514
 5102TIP3   OH236720   5.079   1.557  15.739  0.0858 -0.6950 -0.0116
 5102TIP3    H136721   5.062   1.563  15.833 -1.1290  0.1110 -0.2618
 5102TIP3    H236722   5.056   1.467  15.716  1.3496 -1.2117  0.6101
 5103TIP3   OH236723   3.093   1.309   1.312 -0.3153 -0.1859 -0.2372
 5103TIP3    H136724   3.109   1.291   1.405 -0.4890  1.3029  0.1087
 5103TIP3    H236725   3.120   1.229   1.267  1.7770 -0.1832  0.8908
 5104TIP3   OH236726   4.758   0.440  13.035  0.2646 -0.2275  0.1100
 5104TIP3    H136727   4.767   0.472  12.945  2.5252  0.2443  0.4283
 5104TIP3    H236728   4.720   0.353  13.026  0.6519 -0.2782 -1.3243
 5105TIP3   OH236729   3.263   5.746  11.894 -0.1019 -0.3047  0.1107
 5105TIP3    H136730   3.344   5.715  11.935 -0.6256  0.0498  1.4727
 5105TIP3    H236731   3.257   5.838  11.918 -0.4033 -0.0700 -0.8366
 5106TIP3   OH236732   4.181   1.658  16.509  0.1506 -0.0339 -0.0693
 5106TIP3    H136733   4.227   1.579  16.483 -0.6001 -1.1939  1.8440
 5106TIP3    H236734   4.247   1.727  16.508  1.3411 -1.1389  0.2666
 5107TIP3   OH236735   4.318   6.001   3.150  0.2808 -0.3403 -0.3677
 5107TIP3    H136736   4.351   6.091   3.142  1.2125 -0.4555  1.5421
 5107TIP3    H236737   4.342   5.959   3.067 -0.0696  1.1218 -1.2437
 5108TIP3   OH236738   2.376   5.839  12.951  0.1513  0.5261  0.1276
 5108TIP3    H136739   2.436   5.767  12.969 -2.0100 -1.2423  0.6739
 5108TIP3    H236740   2.412   5.913  13.000  1.7655 -0.5153  0.5852
 5109TIP3   OH236741   5.732   3.920  14.734 -0.0667 -0.5161 -0.6162
 5109TIP3    H136742   5.719   3.848  14.797  2.2439 -0.6342 -0.1780
 5109TIP3    H236743   5.707   3.999  14.782 -2.1237 -0.9054 -0.9284
 5110TIP3   OH236744   5.470   3.903   5.867 -0.5388  0.6763  0.8811
 5110TIP3    H136745   5.484   3.810   5.885  1.2601  0.7344  0.0050
 5110TIP3    H236746   5.503   3.948   5.945  1.3432  0.6589  0.1521
 5111TIP3   OH236747   1.129   4.949   2.296  0.5795  0.1021 -0.1531
 5111TIP3    H136748   1.186   4.983   2.227  0.9025  0.1110  0.1168
 5111TIP3    H236749   1.062   4.899   2.249  1.0503 -0.2595 -0.4502
 5112TIP3   OH236750   5.717   3.305  10.674  0.2486  0.1195 -0.4107
 5112TIP3    H136751   5.672   3.221  10.686 -0.2927  0.3643 -0.6958
 5112TIP3    H236752   5.692   3.357  10.750 -0.1167  0.3269 -0.6710
 5113TIP3   OH236753   1.911   2.644  11.866 -0.6453 -0.8147  0.5610
 5113TIP3    H136754   1.865   2.697  11.801  0.7354 -1.1762 -0.7658
 5113TIP3    H236755   1.966   2.585  11.814  1.0023 -0.6666  2.0517
 5114TIP3   OH236756   2.399   2.189  12.006 -0.5400 -0.0111  0.0408
 5114TIP3    H136757   2.425   2.281  12.010 -1.5564  0.2970 -0.0463
 5114TIP3    H236758   2.423   2.161  11.917 -1.2263  0.4963 -0.3127
 5115TIP3   OH236759   2.772   0.798   3.404  0.1375  0.3707  1.0658
 5115TIP3    H136760   2.752   0.860   3.473 -1.3248  2.6850 -1.2620
 5115TIP3    H236761   2.697   0.803   3.344  1.3014 -1.5248 -0.7032
 5116TIP3   OH236762   4.227   0.508  11.433  0.0109  0.0020 -0.3484
 5116TIP3    H136763   4.322   0.498  11.425  0.0890  0.5031 -0.1133
 5116TIP3    H236764   4.200   0.546  11.349 -0.0001 -0.2742 -0.4696
 5117TIP3   OH236765   1.384   5.667  15.269  0.5061 -0.5048 -0.0967
 5117TIP3    H136766   1.443   5.656  15.343 -1.4900  0.7597  1.8345
 5117TIP3    H236767   1.331   5.587  15.269 -0.2956  0.0111  0.6590
 5118TIP3   OH236768   2.640   4.554  15.957  0.3760  0.5545  0.0933
 5118TIP3    H136769   2.604   4.543  15.869 -0.0645 -1.4895  0.4854
 5118TIP3    H236770   2.583   4.620  15.997 -1.4470 -0.7952 -0.1410
 5119TIP3   OH236771   6.631   4.832  13.505  0.2901  0.0321  0.5742
 5119TIP3    H136772   6.592   4.891  13.570  0.2001  1.1499 -0.4424
 5119TIP3    H236773   6.716   4.807  13.542 -0.2276 -0.2292  1.5958
 5120TIP3   OH236774   5.960   5.512  15.033  0.0943 -0.1973  0.4391
 5120TIP3    H136775   5.916   5.428  15.045  0.2411 -0.2669  0.4872
 5120TIP3    H236776   5.947   5.558  15.116  1.5787 -0.8956  1.0902
 5121TIP3   OH236777   0.699   3.919  11.033 -0.5386  0.0430 -0.1618
 5121TIP3    H136778   0.709   3.865  10.954  0.0903 -1.4069  0.8503
 5121TIP3    H236779   0.665   4.002  11.002  0.2639 -0.2820 -2.0388
 5122TIP3   OH236780   4.030   5.573   4.099  0.0764 -1.0969  0.3185
 5122TIP3    H136781   4.012   5.520   4.176  0.0195 -1.2601  0.1957
 5122TIP3    H236782   4.032   5.663   4.131 -0.5538 -1.1094  0.4075
 5123TIP3   OH236783   4.850   2.268   5.440 -0.0008 -0.1407 -0.0765
 5123TIP3    H136784   4.832   2.190   5.493  0.9604 -0.6264 -0.4475
 5123TIP3    H236785   4.927   2.308   5.481 -1.0839  1.2169  0.7391
 5124TIP3   OH236786   6.674   4.467   5.118 -0.5185  0.0929  0.6221
 5124TIP3    H136787   6.733   4.542   5.106  0.8531 -0.6504  2.3038
 5124TIP3    H236788   6.702   4.428   5.201  0.4826 -3.7142 -1.3033
 5125TIP3   OH236789   4.276   5.173  16.834 -0.0561  0.4026 -1.1511
 5125TIP3    H136790   4.333   5.215  16.899  0.4024  0.1704 -1.3976
 5125TIP3    H236791   4.191   5.216  16.845 -0.1738 -0.1045  0.0637
 5126TIP3   OH236792   6.344   2.462  11.608 -0.6567  0.0236 -0.0646
 5126TIP3    H136793   6.353   2.555  11.585  0.5147  0.3433  1.5473
 5126TIP3    H236794   6.412   2.418  11.558 -0.7413  0.1372 -0.2802
 5127TIP3   OH236795   2.173   4.432   0.649  0.4198  0.0845  0.1460
 5127TIP3    H136796   2.089   4.467   0.680  0.9896  2.2717 -0.5873
 5127TIP3    H236797   2.149   4.360   0.590 -1.0051  1.1629 -0.6455
 5128TIP3   OH236798   1.603   4.057   3.013  0.3888  0.1561  0.1734
 5128TIP3    H136799   1.625   4.085   3.102  0.8030  0.4203 -0.0110
 5128TIP3    H236800   1.509   4.036   3.017  0.3913  0.2262  0.6543
 5129TIP3   OH236801   5.143   0.071   0.893 -0.1747  0.0690  0.0152
 5129TIP3    H136802   5.099  -0.003   0.934 -1.1097  0.9047  0.5604
 5129TIP3    H236803   5.209   0.099   0.957 -0.9930  0.7741  0.5783
 5130TIP3   OH236804   0.171   3.205  16.686 -0.0498 -0.4513 -0.3144
 5130TIP3    H136805   0.171   3.120  16.730 -3.2870  0.1803  1.2400
 5130TIP3    H236806   0.116   3.193  16.609  2.2122 -0.4940 -2.0260
 5131TIP3   OH236807   3.293   1.802   3.030  0.1826 -1.0755  0.6425
 5131TIP3    H136808   3.325   1.717   3.059 -0.1165 -0.8831  1.5709
 5131TIP3    H236809   3.243   1.783   2.951 -2.3286 -2.2186  2.3678
 5132TIP3   OH236810   5.540   6.161  13.162  0.2629  0.4512 -0.5587
 5132TIP3    H136811   5.498   6.223  13.221  0.2763 -0.5249  0.5122
 5132TIP3    H236812   5.624   6.140  13.204  0.0291 -0.6782 -0.6108
 5133TIP3   OH236813   2.313   4.336   2.191 -0.5027  0.0069  0.1406
 5133TIP3    H136814   2.384   4.348   2.255 -0.2227  3.3229 -0.5990
 5133TIP3    H236815   2.340   4.262   2.138  0.0069 -1.8827  2.8354
 5134TIP3   OH236816   5.780   4.112  13.467 -0.0726  0.2106 -0.0914
 5134TIP3    H136817   5.796   4.052  13.540  0.8490  0.1498 -0.3226
 5134TIP3    H236818   5.723   4.064  13.408 -0.0168 -0.1244  0.1241
 5135TIP3   OH236819   6.413   2.550   2.373 -0.4517  0.7345  0.3702
 5135TIP3    H136820   6.381   2.588   2.292  0.0993  0.8547  0.2059
 5135TIP3    H236821   6.342   2.493   2.403 -0.2088 -0.2242 -0.7986
 5136TIP3   OH236822   2.170   3.716   3.047 -0.6873 -0.0475 -0.1105
 5136TIP3    H136823   2.184   3.621   3.049  1.8311  0.2371  2.8416
 5136TIP3    H236824   2.083   3.729   3.085 -0.5227 -1.1514  0.6876
 5137TIP3   OH236825   4.017   5.680   5.208 -0.1532 -0.2745 -0.5916
 5137TIP3    H136826   4.026   5.636   5.123  1.3625  0.4834 -0.8680
 5137TIP3    H236827   4.028   5.773   5.188  2.2258 -0.2139  0.6321
 5138TIP3   OH236828   6.458   0.071   4.391  0.2113 -0.3676  0.0790
 5138TIP3    H136829   6.388   0.121   4.433 -0.4373 -0.9415 -0.2909
 5138TIP3    H236830   6.459   0.102   4.300  1.3557  0.6025  0.4012
 5139TIP3   OH236831   6.129   0.604  13.202  0.3234  0.1893  0.3494
 5139TIP3    H136832   6.090   0.684  13.235  1.7828  1.0750  0.0431
 5139TIP3    H236833   6.222   0.625  13.194  0.2658 -0.2839 -3.2427
 5140TIP3   OH236834   0.800   1.436  11.360  0.1096  1.2796  0.1980
 5140TIP3    H136835   0.895   1.441  11.372  0.0693  1.7456  0.3188
 5140TIP3    H236836   0.789   1.429  11.265  0.2450  1.7509  0.1434
 5141TIP3   OH236837   4.902   0.719  12.455  0.2538 -0.0214  0.7396
 5141TIP3    H136838   4.858   0.635  12.472  0.4747  0.2420  2.8740
 5141TIP3    H236839   4.832   0.777  12.425  0.0665 -0.8812 -0.6103
 5142TIP3   OH236840   0.926   1.133  13.573  0.0114 -0.2018 -0.4535
 5142TIP3    H136841   0.885   1.050  13.597 -0.2112 -0.1027 -0.4915
 5142TIP3    H236842   1.019   1.120  13.592  0.0803 -0.6918 -1.0951
 5143TIP3   OH236843   0.477   5.410  15.236 -0.0728  0.2867  0.3519
 5143TIP3    H136844   0.426   5.371  15.307  1.1792  0.4414  1.3653
 5143TIP3    H236845   0.411   5.448  15.177 -1.2321 -1.7246  0.2781
 5144TIP3   OH236846   2.211   1.002  15.464  0.2324  0.4119  0.7124
 5144TIP3    H136847   2.148   1.072  15.445  0.8187  0.7782  0.0643
 5144TIP3    H236848   2.191   0.976  15.554 -1.3639 -0.0344  0.2640
 5145TIP3   OH236849   0.679   5.730  13.326  0.0232 -0.0007 -0.2010
 5145TIP3    H136850   0.757   5.685  13.293  1.1398  1.0547  0.8768
 5145TIP3    H236851   0.702   5.823  13.320 -1.5498  0.3830 -0.7593
 5146TIP3   OH236852   4.269   0.670  10.352  0.1798 -0.0566 -0.3625
 5146TIP3    H136853   4.198   0.706  10.298  0.2276  0.6327  0.0348
 5146TIP3    H236854   4.228   0.597  10.399  0.4376 -1.4973 -2.2493
 5147TIP3   OH236855   0.022   5.271  13.278  0.1135 -0.2770  0.3109
 5147TIP3    H136856   0.043   5.364  13.268 -0.2439 -0.3773 -1.9173
 5147TIP3    H236857  -0.054   5.258  13.222 -0.5087 -1.7159  1.4418
 5148TIP3   OH236858   4.523   5.496   3.093 -0.1826  0.2675  0.0470
 5148TIP3    H136859   4.595   5.502   3.030  0.2032  0.8858  0.5415
 5148TIP3    H236860   4.509   5.401   3.104  0.1185  0.1514 -0.5368
 5149TIP3   OH236861   2.412   5.265   0.635 -0.2573  0.3661 -0.5628
 5149TIP3    H136862   2.376   5.177   0.626  1.3596 -0.4229  0.1327
 5149TIP3    H236863   2.419   5.298   0.546  2.3519 -1.6333 -1.2220
 5150TIP3   OH236864   1.288   0.374  16.005 -0.9677  0.4104 -0.5527
 5150TIP3    H136865   1.220   0.307  16.014 -0.0950 -0.4511 -0.2293
 5150TIP3    H236866   1.337   0.370  16.086 -1.2403  1.8609 -0.2819
 5151TIP3   OH236867   5.672   0.230   4.603 -0.8251 -0.4268 -0.2309
 5151TIP3    H136868   5.638   0.180   4.678  1.0887 -0.1745  0.8824
 5151TIP3    H236869   5.764   0.206   4.598 -0.9716 -0.7221 -2.8089
 5152TIP3   OH236870   1.574   0.324  15.179 -0.0144  0.0735  0.5658
 5152TIP3    H136871   1.519   0.269  15.235 -0.7927  0.7826  0.5146
 5152TIP3    H236872   1.535   0.411  15.186 -2.0417 -0.2836 -3.3631
 5153TIP3   OH236873   1.124   3.579  14.322 -0.2451  0.3319  0.1729
 5153TIP3    H136874   1.174   3.506  14.358 -0.8580  0.3584  1.1026
 5153TIP3    H236875   1.062   3.603  14.391 -0.1824  1.6170 -0.1786
 5154TIP3   OH236876   1.022   3.745   6.169 -0.3547  0.5019  0.7835
 5154TIP3    H136877   1.051   3.668   6.218 -0.8945  0.7053  1.4442
 5154TIP3    H236878   1.030   3.720   6.077 -2.3513 -1.0463  0.9855
 5155TIP3   OH236879   0.940   3.770   3.863  0.3491  0.2520  0.2514
 5155TIP3    H136880   1.000   3.779   3.937 -0.0669  1.1364  0.5064
 5155TIP3    H236881   0.865   3.824   3.887  0.8210  1.7706 -1.4288
 5156TIP3   OH236882   6.495   1.099  15.051 -0.0589 -0.4929 -0.0170
 5156TIP3    H136883   6.520   1.122  14.962 -0.7161 -0.2300 -0.1361
 5156TIP3    H236884   6.400   1.111  15.054  0.1775  1.6204  1.3090
 5157TIP3   OH236885   3.487   5.109   1.733 -0.0409 -0.5229  0.0927
 5157TIP3    H136886   3.443   5.171   1.675 -1.5051 -2.8472 -1.4586
 5157TIP3    H236887   3.551   5.065   1.677  0.3820 -1.0007  0.9319
 5158TIP3   OH236888   2.127   5.234   1.762 -0.5832 -0.1499 -0.5026
 5158TIP3    H136889   2.222   5.232   1.765 -0.3342  3.9420  0.2424
 5158TIP3    H236890   2.107   5.255   1.671 -0.8529 -1.7155 -0.8200
 5159TIP3   OH236891   2.572   6.547   3.165 -0.3878 -0.4388  0.6416
 5159TIP3    H136892   2.562   6.638   3.193 -0.7349 -0.1090 -0.5395
 5159TIP3    H236893   2.494   6.503   3.198 -0.7280 -0.0825  0.3156
 5160TIP3   OH236894   6.780   4.575  14.008 -0.0858 -0.1713 -0.0627
 5160TIP3    H136895   6.698   4.587  14.056  0.3538 -0.0390  0.6725
 5160TIP3    H236896   6.806   4.664  13.984 -0.4146 -0.2536 -0.7501
 5161TIP3   OH236897   0.987   5.246  16.988  0.0481  0.0803 -0.2016
 5161TIP3    H136898   0.920   5.217  16.925  1.5420  0.7664 -2.2036
 5161TIP3    H236899   1.055   5.178  16.984 -0.1858 -0.2863  1.3439
 5162TIP3   OH236900   4.848   0.406   6.479 -0.4031  0.1389 -0.1441
 5162TIP3    H136901   4.846   0.311   6.486 -1.6275  0.0097 -1.6582
 5162TIP3    H236902   4.939   0.430   6.496  0.1532 -1.3980 -0.8281
 5163TIP3   OH236903   6.081   0.716   5.229  0.1369  1.0887  0.3089
 5163TIP3    H136904   6.095   0.622   5.237  3.7657  1.4730  0.3783
 5163TIP3    H236905   6.089   0.734   5.135 -3.2112  1.1391 -0.0821
 5164TIP3   OH236906   4.025   1.200  14.044 -0.1248 -0.2296  0.1418
 5164TIP3    H136907   4.106   1.245  14.071  0.7244 -0.3629 -1.9864
 5164TIP3    H236908   4.046   1.164  13.958 -2.4068 -0.4707 -0.3604
 5165TIP3   OH236909   5.904   5.981  15.837  0.0740 -0.1949  0.0499
 5165TIP3    H136910   5.860   5.993  15.921 -0.5375 -0.2394 -0.2578
 5165TIP3    H236911   5.982   5.930  15.858  0.5790  0.8286  0.7710
 5166TIP3   OH236912   4.050   5.421   0.217 -0.0361 -0.1478  0.1851
 5166TIP3    H136913   4.031   5.332   0.247  1.1552  0.3014  2.4723
 5166TIP3    H236914   3.979   5.474   0.253  1.4477  0.4095  2.4780
 5167TIP3   OH236915   2.223   6.038   2.917  0.1096 -0.1626  0.7717
 5167TIP3    H136916   2.298   6.006   2.866 -1.9201 -3.4163 -0.5071
 5167TIP3    H236917   2.225   5.985   2.997  0.1452  1.0319  1.5837
 5168TIP3   OH236918   4.025   1.652   0.795  0.1766 -0.5258  0.1872
 5168TIP3    H136919   3.945   1.617   0.833  1.4796 -1.7032  2.0293
 5168TIP3    H236920   4.092   1.635   0.861  1.6486  2.0199 -0.5063
 5169TIP3   OH236921   0.176   3.087   5.589  0.5528 -0.4114 -0.2135
 5169TIP3    H136922   0.102   3.028   5.572 -0.8311  1.2783 -0.2748
 5169TIP3    H236923   0.145   3.173   5.563  1.9822  0.6251  1.2777
 5170TIP3   OH236924   2.364   1.766   4.232  0.6134  0.4148 -0.5832
 5170TIP3    H136925   2.361   1.804   4.144 -2.7676  2.2830  0.1531
 5170TIP3    H236926   2.273   1.746   4.252  1.3713 -0.6505  2.2566
 5171TIP3   OH236927   6.112   0.680  16.429  0.2490 -0.0309  0.1326
 5171TIP3    H136928   6.064   0.599  16.410 -1.4459  0.6679  1.1539
 5171TIP3    H236929   6.112   0.685  16.525 -0.8110  1.7824  0.0758
 5172TIP3   OH236930   6.434   2.412  13.420  0.4880 -0.3947 -0.4353
 5172TIP3    H136931   6.514   2.462  13.436 -0.0493  0.0534  1.0746
 5172TIP3    H236932   6.376   2.473  13.375  0.4545 -0.2033 -0.1382
 5173TIP3   OH236933   6.326   3.447   3.475 -0.3082  0.1012 -0.3976
 5173TIP3    H136934   6.383   3.404   3.411  0.6866  0.2355  0.3672
 5173TIP3    H236935   6.322   3.384   3.548 -0.3199  0.5253 -0.0302
 5174TIP3   OH236936   2.114   3.317  17.131 -0.1050 -0.2727 -0.0346
 5174TIP3    H136937   2.193   3.290  17.085  0.1455  2.3614 -1.3606
 5174TIP3    H236938   2.144   3.382  17.195 -1.1931  1.1662 -0.9232
 5175TIP3   OH236939   1.806   0.562  10.789  0.5665 -0.2260 -0.5222
 5175TIP3    H136940   1.834   0.505  10.717  0.4144  0.5671 -1.2203
 5175TIP3    H236941   1.826   0.651  10.759 -0.7330  0.2186 -0.1435
 5176TIP3   OH236942   5.506   4.702   4.522 -0.1136 -0.6611  0.2199
 5176TIP3    H136943   5.459   4.622   4.543 -1.3454 -0.2517 -0.8435
 5176TIP3    H236944   5.437   4.764   4.497  0.6140  1.2639  2.5350
 5177TIP3   OH236945   5.654   2.646  12.984 -0.2674  0.1001 -0.5281
 5177TIP3    H136946   5.642   2.590  13.061 -1.0201  0.2153 -0.5536
 5177TIP3    H236947   5.715   2.597  12.929  2.4094  1.1567  1.2519
 5178TIP3   OH236948   3.085   0.841  11.786 -0.2599  0.2195  0.1079
 5178TIP3    H136949   3.155   0.847  11.722  1.5016 -0.6333  1.8592
 5178TIP3    H236950   3.067   0.932  11.811 -0.0144  0.4601 -0.5944
 5179TIP3   OH236951   1.907   4.274  14.992  0.2074  0.2661  0.0938
 5179TIP3    H136952   1.866   4.326  15.061 -0.5436  2.3090 -1.7826
 5179TIP3    H236953   1.999   4.302  14.992 -0.2995  2.1056 -1.2511
 5180TIP3   OH236954   1.800   2.441   5.427  0.1623  0.1369 -0.2111
 5180TIP3    H136955   1.709   2.469   5.423 -0.4860 -1.8972 -0.8594
 5180TIP3    H236956   1.809   2.402   5.514  0.5441  0.6672 -0.0038
 5181TIP3   OH236957   6.364   6.043   1.329  0.4202  0.2309  0.2375
 5181TIP3    H136958   6.423   5.982   1.286  0.5087  2.1618 -2.6464
 5181TIP3    H236959   6.420   6.092   1.389  1.4342  0.8528 -1.1647
 5182TIP3   OH236960   2.078   4.672   2.537  0.4714 -0.0730 -0.1769
 5182TIP3    H136961   2.076   4.748   2.595 -1.0016  0.0183 -0.3130
 5182TIP3    H236962   2.156   4.624   2.564 -0.5694 -0.4682  2.4870
 5183TIP3   OH236963   3.464   4.232   2.859 -0.0987  0.5074 -0.4151
 5183TIP3    H136964   3.518   4.153   2.865  0.4241  0.9092  0.4404
 5183TIP3    H236965   3.386   4.205   2.811  0.3577 -0.3727 -0.6711
 5184TIP3   OH236966   4.002   3.571  14.883 -0.3310  0.1205 -0.9531
 5184TIP3    H136967   3.978   3.479  14.889 -0.3740  0.1714 -0.2413
 5184TIP3    H236968   4.098   3.570  14.876 -0.3090  0.0301 -0.6499
 5185TIP3   OH236969   1.893   2.565  14.686  0.8315 -0.0960 -0.5526
 5185TIP3    H136970   1.823   2.566  14.621 -1.5571 -0.0998  1.7993
 5185TIP3    H236971   1.905   2.473  14.706  0.4350 -0.0268  0.0495
 5186TIP3   OH236972   1.050   1.532   1.069 -0.7472  0.5382 -0.1696
 5186TIP3    H136973   0.998   1.531   1.149  0.3731 -0.2418  0.5840
 5186TIP3    H236974   1.054   1.624   1.043 -0.1555  0.9615  1.3351
 5187TIP3   OH236975   1.394   4.684   3.293  0.0820  0.4483 -0.1007
 5187TIP3    H136976   1.418   4.608   3.239 -0.7683  0.9480 -1.2256
 5187TIP3    H236977   1.377   4.647   3.380 -2.5184 -1.0807 -1.1222
 5188TIP3   OH236978   3.943   6.570  16.342  0.1692 -0.0431  0.1592
 5188TIP3    H136979   3.887   6.616  16.405  1.6630  1.4012  0.4909
 5188TIP3    H236980   4.024   6.621  16.340 -0.0230  0.3808 -3.4071
 5189TIP3   OH236981   6.094   5.025  14.142 -0.3524  0.1155  0.0587
 5189TIP3    H136982   6.032   5.087  14.103 -0.4415  0.3531  0.5742
 5189TIP3    H236983   6.050   4.995  14.222  0.8097  1.4013  1.2273
 5190TIP3   OH236984   3.280   1.965  14.031 -0.2010 -0.2367  0.2533
 5190TIP3    H136985   3.247   1.884  14.068  2.2001 -0.3854  2.2794
 5190TIP3    H236986   3.374   1.951  14.020  0.0993  1.8663 -0.4365
 5191TIP3   OH236987   1.606   2.169   6.506 -0.4326  0.4699  0.0692
 5191TIP3    H136988   1.603   2.213   6.421  1.0962 -1.1971 -0.9233
 5191TIP3    H236989   1.595   2.076   6.486 -0.4168  0.0686  1.7415
 5192TIP3   OH236990   6.096   1.876  16.263  0.8925 -0.3097 -0.5638
 5192TIP3    H136991   6.181   1.906  16.295  1.8134  1.2138 -4.0188
 5192TIP3    H236992   6.116   1.823  16.187 -1.2257  0.3688 -1.6719
 5193TIP3   OH236993   1.328   3.525   4.182 -0.8637  0.1837  0.1556
 5193TIP3    H136994   1.298   3.547   4.271 -0.4469  0.6242  0.1931
 5193TIP3    H236995   1.252   3.483   4.141 -1.4514  1.0215  0.3420
 5194TIP3   OH236996   0.127   5.783  10.781 -0.1876 -0.5322 -0.8893
 5194TIP3    H136997   0.069   5.840  10.831  0.1270 -0.7016 -0.3128
 5194TIP3    H236998   0.130   5.702  10.832  1.3045 -0.1912 -0.3866
 5195TIP3   OH236999   2.026   5.245   0.156 -0.2772  0.0330  0.1307
 5195TIP3    H137000   2.032   5.338   0.180 -0.6168  0.5294 -1.5886
 5195TIP3    H237001   2.098   5.204   0.203 -0.0090  1.2016  0.7822
 5196TIP3   OH237002   3.582   2.663  16.086 -0.1423 -0.2484 -0.4939
 5196TIP3    H137003   3.517   2.706  16.031 -1.2050 -0.0471  0.8712
 5196TIP3    H237004   3.534   2.637  16.164  1.2430 -0.8787  0.1816
 5197TIP3   OH237005   5.102   0.531   5.476  0.4254  0.0048  0.4924
 5197TIP3    H137006   5.110   0.584   5.556  1.4155  0.9692 -0.2176
 5197TIP3    H237007   5.054   0.588   5.415  0.9575 -0.1493 -0.0775
 5198TIP3   OH237008   4.887   6.526  11.901  0.2304 -0.4008  0.2572
 5198TIP3    H137009   4.863   6.558  11.988 -0.1757 -1.3738  0.5177
 5198TIP3    H237010   4.977   6.497  11.909 -0.1631 -1.5510  0.6742
 5199TIP3   OH237011   5.672   5.836  16.259  0.1416  0.3617  0.1401
 5199TIP3    H137012   5.719   5.763  16.298  1.0891  1.5828  1.3994
 5199TIP3    H237013   5.595   5.848  16.315 -1.2617 -1.0556 -1.3869
 5200TIP3   OH237014   1.908   1.319   1.962 -0.1870  0.0279 -0.0939
 5200TIP3    H137015   1.911   1.224   1.957  1.7359  0.0560 -0.2262
 5200TIP3    H237016   1.817   1.342   1.941 -1.5479 -1.8947  2.9843
 5201TIP3   OH237017   2.929   4.932  13.995 -0.0292  0.2367  0.3376
 5201TIP3    H137018   2.985   4.854  13.988  2.8981  2.1305  0.9891
 5201TIP3    H237019   2.874   4.915  14.072  1.6994 -0.5348  1.4541
 5202TIP3   OH237020   0.843   1.864   0.747  0.2681  0.2812 -0.3649
 5202TIP3    H137021   0.916   1.892   0.802  0.2571  1.1140 -0.7534
 5202TIP3    H237022   0.778   1.830   0.809  1.6276 -2.0779 -0.1322
 5203TIP3   OH237023   6.134   4.140  15.434 -0.1020 -0.2714 -0.0705
 5203TIP3    H137024   6.126   4.058  15.385 -2.6311  0.6938 -1.4876
 5203TIP3    H237025   6.185   4.197  15.376 -1.2474  0.1771 -0.6821
 5204TIP3   OH237026   6.686   6.557   6.114  0.4068 -0.5375 -0.0591
 5204TIP3    H137027   6.772   6.585   6.082 -0.0358 -0.8069 -1.5692
 5204TIP3    H237028   6.654   6.632   6.164  1.2859 -0.2199  0.0449
 5205TIP3   OH237029   3.549   5.025   3.808 -0.6285 -0.0786 -0.1181
 5205TIP3    H137030   3.516   5.007   3.896 -0.0511 -2.3393 -0.2962
 5205TIP3    H237031   3.489   4.981   3.749  0.9746 -1.7623 -0.6000
 5206TIP3   OH237032   0.457   1.774   0.294  0.8076  0.1767  0.1838
 5206TIP3    H137033   0.424   1.786   0.383 -0.8006  1.4084 -0.5220
 5206TIP3    H237034   0.511   1.852   0.279  0.3816  0.4010 -0.1978
 5207TIP3   OH237035   2.933   1.544   5.383 -0.1897 -0.1969 -0.2454
 5207TIP3    H137036   2.994   1.513   5.450 -1.9608  3.2685  3.4097
 5207TIP3    H237037   2.849   1.505   5.409 -0.5433 -0.6615 -1.9811
 5208TIP3   OH237038   2.125   4.841  10.690  0.7781 -0.0170 -0.1863
 5208TIP3    H137039   2.220   4.829  10.687  0.8000  0.0465  0.1955
 5208TIP3    H237040   2.090   4.766  10.643  1.0255  0.0960 -0.5592
 5209TIP3   OH237041   6.207   3.338   3.815 -0.5909 -0.9558  0.9582
 5209TIP3    H137042   6.266   3.281   3.766 -1.2111 -1.3413  0.6403
 5209TIP3    H237043   6.257   3.366   3.891  0.2891 -0.5869  0.2559
 5210TIP3   OH237044   6.347   3.985  12.813  0.2460  0.1497 -0.1579
 5210TIP3    H137045   6.302   4.065  12.786 -1.5174 -1.0510 -0.9007
 5210TIP3    H237046   6.277   3.922  12.831  1.5690 -2.1073 -2.2742
 5211TIP3   OH237047   1.415   2.133   4.163 -0.9453  0.0720 -0.8355
 5211TIP3    H137048   1.411   2.037   4.171 -1.5789  0.2048  0.6804
 5211TIP3    H237049   1.337   2.164   4.208 -0.6123  1.3301 -1.0996
 5212TIP3   OH237050   1.673   4.659  11.985  0.4814  0.6157  0.3071
 5212TIP3    H137051   1.656   4.645  11.892 -2.1921 -0.2736  0.8377
 5212TIP3    H237052   1.686   4.571  12.020  0.8238  0.8893  0.8720
 5213TIP3   OH237053   3.306   5.484   1.081 -0.3116 -0.0414 -0.2643
 5213TIP3    H137054   3.296   5.391   1.061 -0.5701 -0.7032  2.5305
 5213TIP3    H237055   3.401   5.498   1.080 -0.2938 -0.1996 -1.2080
 5214TIP3   OH237056   4.638   1.200  11.333  0.2046 -0.5916 -0.1737
 5214TIP3    H137057   4.731   1.215  11.318  0.5149 -0.7732  1.3868
 5214TIP3    H237058   4.596   1.282  11.308  1.0272  0.2158  0.9758
 5215TIP3   OH237059   4.210   0.090  10.996  0.4111  0.3155 -0.0961
 5215TIP3    H137060   4.115   0.079  10.992  0.3367  1.2831 -2.0368
 5215TIP3    H237061   4.244   0.001  10.982 -0.2434  0.2855 -1.8352
 5216TIP3   OH237062   0.712   2.215  16.459 -0.0448 -0.6224  0.0532
 5216TIP3    H137063   0.700   2.239  16.367  1.1963 -1.8501 -0.4603
 5216TIP3    H237064   0.807   2.212  16.472 -0.1962 -0.4836  1.3798
 5217TIP3   OH237065   3.047   5.549   2.570  0.3016  0.2869 -0.0405
 5217TIP3    H137066   3.071   5.504   2.651  1.3867  1.3326  0.2476
 5217TIP3    H237067   3.047   5.642   2.593 -0.4663  0.5384 -0.9770
 5218TIP3   OH237068   3.101   0.873  10.363  0.0671  1.1837 -0.1024
 5218TIP3    H137069   3.155   0.950  10.379  0.8432  0.2388  2.4413
 5218TIP3    H237070   3.050   0.863  10.443  0.1612 -1.0273 -0.2571
 5219TIP3   OH237071   6.367   1.980   5.817 -0.0360 -0.5730  0.1990
 5219TIP3    H137072   6.341   1.918   5.749 -0.1842  0.3979 -0.6373
 5219TIP3    H237073   6.453   2.011   5.790 -1.0031  1.4503 -0.7336
 5220TIP3   OH237074   5.039   6.319   1.986  0.1466 -0.1250 -0.3183
 5220TIP3    H137075   5.082   6.259   2.047 -0.3410  0.8085  0.9803
 5220TIP3    H237076   4.946   6.318   2.012  0.2860  1.9585  0.4346
 5221TIP3   OH237077   1.592   0.404  12.239 -0.0360  0.1520 -0.3954
 5221TIP3    H137078   1.665   0.348  12.212 -1.3330 -2.1725  0.6169
 5221TIP3    H237079   1.601   0.411  12.334 -1.0992 -0.1607 -0.2567
 5222TIP3   OH237080   5.102   0.200   6.714  0.2499  0.4783  0.3882
 5222TIP3    H137081   5.184   0.151   6.728 -0.0109  0.3337  1.5139
 5222TIP3    H237082   5.130   0.283   6.677  0.7959 -0.0531 -0.4484
 5223TIP3   OH237083   0.297   1.468   1.039 -0.2056 -0.0861  0.4228
 5223TIP3    H137084   0.262   1.502   0.957 -0.8476  0.0654  0.7609
 5223TIP3    H237085   0.220   1.443   1.090  0.1890 -0.1286  1.0042
 5224TIP3   OH237086   1.064   0.458   5.057 -0.2786  0.8869  0.5895
 5224TIP3    H137087   1.136   0.520   5.072  0.3572  0.0408  1.0642
 5224TIP3    H237088   1.005   0.472   5.130  0.1432  0.5512  1.0016
 5225TIP3   OH237089   4.391   6.670  11.502 -0.1666  0.1549 -0.3432
 5225TIP3    H137090   4.332   6.610  11.547  1.8273 -1.5073  0.2714
 5225TIP3    H237091   4.345   6.694  11.422 -0.9929 -2.5379 -0.7948
 5226TIP3   OH237092   4.509   3.614  12.835 -0.0998 -0.1079 -0.7942
 5226TIP3    H137093   4.505   3.704  12.802  1.0937 -0.4617 -2.0099
 5226TIP3    H237094   4.597   3.607  12.873 -0.5171 -0.4971  0.1162
 5227TIP3   OH237095   0.947   2.360   1.369  0.1466  0.1760 -0.5239
 5227TIP3    H137096   1.037   2.327   1.366  0.6814  1.6354 -1.0731
 5227TIP3    H237097   0.954   2.453   1.351 -1.4670  0.3670 -0.3514
 5228TIP3   OH237098   6.120   3.342  16.313 -0.1783  0.5957 -0.5827
 5228TIP3    H137099   6.206   3.360  16.352  0.0935 -0.3313 -0.7329
 5228TIP3    H237100   6.073   3.425  16.321  0.0494  0.6013  1.2659
 5229TIP3   OH237101   2.078   0.977  12.420 -0.2617 -0.0168  0.6573
 5229TIP3    H137102   2.162   0.938  12.444  0.3552  0.6185 -0.3806
 5229TIP3    H237103   2.031   0.988  12.503 -0.3395 -2.6178  1.0362
 5230TIP3   OH237104   2.171   1.502   2.969 -0.8534 -0.0580 -0.6491
 5230TIP3    H137105   2.140   1.438   2.905 -2.8113 -0.0365  0.2168
 5230TIP3    H237106   2.128   1.584   2.943  0.2568  0.5184 -0.7223
 5231TIP3   OH237107   0.511   2.653   0.345  0.4879  0.3382 -0.3628
 5231TIP3    H137108   0.493   2.638   0.252  1.3390 -0.2645 -0.4421
 5231TIP3    H237109   0.542   2.569   0.378  0.3635  0.5917  0.4275
 5232TIP3   OH237110   3.302   0.154   5.466  0.6558 -0.5597 -0.4203
 5232TIP3    H137111   3.281   0.141   5.374 -0.5619  0.5936 -0.3263
 5232TIP3    H237112   3.279   0.070   5.508 -1.2704 -0.2381 -0.7687
 5233TIP3   OH237113   4.374   4.823  13.681 -0.3050  0.3299  0.0710
 5233TIP3    H137114   4.296   4.790  13.726  0.1726  1.0506  1.4897
 5233TIP3    H237115   4.372   4.917  13.697  1.6337  0.1872  1.4468
 5234TIP3   OH237116   3.114   5.662  12.638  0.5669  0.0626 -0.4225
 5234TIP3    H137117   3.049   5.635  12.703  0.1282 -0.0079 -0.8767
 5234TIP3    H237118   3.086   5.619  12.557  0.9898  0.3035 -0.7054
 5235TIP3   OH237119   2.548   4.280   0.077  0.1453  0.3109 -0.3725
 5235TIP3    H137120   2.563   4.190   0.046 -0.0161 -0.2983  1.2342
 5235TIP3    H237121   2.511   4.269   0.165 -0.0995  1.9558 -0.2501
 5236TIP3   OH237122   2.175   4.184   5.270  0.0439 -0.0411  0.3454
 5236TIP3    H137123   2.126   4.102   5.264  0.6682 -0.3534 -0.5488
 5236TIP3    H237124   2.267   4.158   5.267  0.2469  0.7105 -0.2202
 5237TIP3   OH237125   4.718   2.729   4.785 -0.4579  0.2687  0.2589
 5237TIP3    H137126   4.720   2.775   4.701 -0.0025 -0.3057 -0.0468
 5237TIP3    H237127   4.711   2.636   4.762  0.8884  0.0042  0.8286
 5238TIP3   OH237128   5.837   0.800  14.487 -0.0267 -0.9063 -0.4618
 5238TIP3    H137129   5.860   0.708  14.498  0.6631 -0.9700 -2.1002
 5238TIP3    H237130   5.769   0.800  14.419 -1.5350 -0.3372  0.9817
 5239TIP3   OH237131   6.758   1.614  16.655 -0.4583  0.2839  0.3482
 5239TIP3    H137132   6.770   1.708  16.664  1.2562  0.0550  0.8841
 5239TIP3    H237133   6.755   1.582  16.746 -1.1724 -0.1764  0.1733
 5240TIP3   OH237134   5.757   5.673  13.554  0.4940  0.1302  0.4527
 5240TIP3    H137135   5.707   5.734  13.499  0.8079  0.3864  0.4520
 5240TIP3    H237136   5.728   5.691  13.643  0.9811  0.6665  0.5137
 5241TIP3   OH237137   3.942   1.598  11.873 -0.2457  0.3444 -0.6843
 5241TIP3    H137138   3.887   1.526  11.841  0.7649 -1.2618  1.0185
 5241TIP3    H237139   3.909   1.616  11.961  0.4866  0.9446 -0.5218
 5242TIP3   OH237140   0.662   3.852  11.663 -0.2479 -0.1597 -0.2812
 5242TIP3    H137141   0.584   3.895  11.698  0.3476  1.3577 -0.7399
 5242TIP3    H237142   0.652   3.858  11.568 -0.2736 -1.3040 -0.3637
 5243TIP3   OH237143   6.415   0.207   0.212  0.0037  0.0876 -0.3033
 5243TIP3    H137144   6.491   0.188   0.267  1.3841 -2.4459 -2.8021
 5243TIP3    H237145   6.350   0.140   0.236 -0.8979  1.3198  0.7910
 5244TIP3   OH237146   5.109   0.329   5.315 -0.0785 -0.1670  0.1913
 5244TIP3    H137147   5.100   0.404   5.373  0.7530 -0.0715  0.2071
 5244TIP3    H237148   5.022   0.318   5.276 -0.3067  0.5599  0.4838
 5245TIP3   OH237149   6.249   1.715   1.087  0.7523  0.3448 -0.1784
 5245TIP3    H137150   6.244   1.630   1.044  2.3354 -0.0715  0.3680
 5245TIP3    H237151   6.198   1.704   1.167  1.1266 -0.1862 -0.0012
 5246TIP3   OH237152   2.250   4.132  12.975  0.3517  0.2250  0.1397
 5246TIP3    H137153   2.309   4.204  12.954 -1.1313  1.0410 -1.4679
 5246TIP3    H237154   2.278   4.061  12.918  1.4393 -0.3069  1.3016
 5247TIP3   OH237155   5.458   1.876   2.002  0.2678  0.1875 -0.3049
 5247TIP3    H137156   5.455   1.960   1.955 -1.9700 -0.8619 -2.2665
 5247TIP3    H237157   5.369   1.842   1.996  0.4678 -1.1810  2.7536
 5248TIP3   OH237158   6.197   1.751   2.277 -0.2672  0.6471  0.1544
 5248TIP3    H137159   6.180   1.672   2.227 -2.8170  2.0475 -1.3720
 5248TIP3    H237160   6.193   1.822   2.213  1.3694  2.1165  1.5606
 5249TIP3   OH237161   2.769   6.635   0.717  0.2728  0.2097 -1.1713
 5249TIP3    H137162   2.724   6.715   0.747  0.0310 -0.3899  0.1498
 5249TIP3    H237163   2.833   6.617   0.786 -0.1057 -1.0842 -1.1319
 5250TIP3   OH237164   0.264   6.134  11.265  0.1425 -0.0656 -0.0360
 5250TIP3    H137165   0.251   6.094  11.180 -0.0427  1.7566 -0.9133
 5250TIP3    H237166   0.177   6.133  11.306  0.1644 -0.6487 -0.0036
 5251TIP3   OH237167   1.939   1.920   0.069  0.0512 -0.2726 -0.5307
 5251TIP3    H137168   1.969   1.829   0.061 -2.5175 -1.3081  0.4266
 5251TIP3    H237169   1.891   1.937  -0.011  0.5719  0.3031 -0.7326
 5252TIP3   OH237170   6.594   2.502  11.001 -0.2814  0.3148 -0.2179
 5252TIP3    H137171   6.518   2.547  10.963 -1.0352  0.1926  1.0934
 5252TIP3    H237172   6.649   2.480  10.925 -1.9084 -0.2704 -1.2782
 5253TIP3   OH237173   0.787   3.994   2.315 -0.3508  0.2840 -0.3133
 5253TIP3    H137174   0.859   4.049   2.285  0.2916 -0.1167  0.4522
 5253TIP3    H237175   0.829   3.926   2.368 -1.3500  0.5327  0.8599
 5254TIP3   OH237176   1.504   3.999  12.340  0.1252  0.8798 -0.0059
 5254TIP3    H137177   1.584   4.024  12.385 -0.9445  1.0624  1.8750
 5254TIP3    H237178   1.446   4.075  12.350 -0.0154  1.1105 -2.0972
 5255TIP3   OH237179   6.507   3.639   4.998 -0.1910  0.3055 -0.5201
 5255TIP3    H137180   6.445   3.601   4.937 -0.1994 -0.9296  0.2242
 5255TIP3    H237181   6.572   3.683   4.943 -1.8695  1.9629 -1.3098
 5256TIP3   OH237182   2.855   4.696  15.468  0.1585  0.1270 -0.1995
 5256TIP3    H137183   2.784   4.694  15.404 -0.8354  0.6091  0.8484
 5256TIP3    H237184   2.920   4.755  15.431 -0.3857  0.3670 -0.7777
 5257TIP3   OH237185   4.042   3.621   1.263  0.0563 -0.2963 -0.0390
 5257TIP3    H137186   4.065   3.531   1.285 -2.5031 -1.0262 -0.0640
 5257TIP3    H237187   4.016   3.617   1.171  0.0524  0.5107 -0.0796
 5258TIP3   OH237188   4.218   4.057   2.072 -0.0915 -0.1885 -0.2435
 5258TIP3    H137189   4.199   4.096   1.987 -2.0171 -0.5248 -0.0044
 5258TIP3    H237190   4.221   4.132   2.132  0.1102 -0.0656 -0.4034
 5259TIP3   OH237191   3.680   3.814  11.513 -0.0714  0.2957  0.2151
 5259TIP3    H137192   3.662   3.877  11.443 -0.1406 -2.0213 -1.9897
 5259TIP3    H237193   3.768   3.836  11.543 -0.6322  2.3027  0.5390
 5260TIP3   OH237194   6.227   1.969   2.719 -0.0745 -1.1059  0.0580
 5260TIP3    H137195   6.279   1.905   2.769 -1.0408 -1.8475  0.1584
 5260TIP3    H237196   6.179   1.915   2.656 -0.3676 -0.3860 -0.3357
 5261TIP3   OH237197   5.424   6.099   1.193 -0.4565  0.1749  0.1121
 5261TIP3    H137198   5.420   6.040   1.117 -0.7253 -1.6071  1.4594
 5261TIP3    H237199   5.333   6.119   1.213 -0.3626  2.3778 -1.2367
 5262TIP3   OH237200   1.885   6.019   2.471  0.8988  0.6412 -0.2106
 5262TIP3    H137201   1.835   6.093   2.505  0.8972  0.8856 -0.7192
 5262TIP3    H237202   1.952   6.002   2.537 -0.2213 -0.0850  0.7629
 5263TIP3   OH237203   2.230   4.609   1.682  0.1958  0.3302  0.0258
 5263TIP3    H137204   2.253   4.558   1.759  0.5976  0.1760 -0.1881
 5263TIP3    H237205   2.145   4.574   1.654  0.5902 -0.4220 -0.2761
 5264TIP3   OH237206   3.402   3.627  15.620  0.1326  0.5068 -0.2789
 5264TIP3    H137207   3.350   3.691  15.572  1.1237  1.3986 -0.1874
 5264TIP3    H237208   3.429   3.672  15.700 -0.9595 -0.7541  0.8530
 5265TIP3   OH237209   3.038   1.722  16.610 -0.2250  0.3908  0.5046
 5265TIP3    H137210   3.098   1.660  16.570  0.0188 -0.5065  2.2018
 5265TIP3    H237211   2.995   1.673  16.680 -0.5735  1.9201  1.4133
 5266TIP3   OH237212   3.149   1.729  11.683 -0.4958  0.4558 -0.3828
 5266TIP3    H137213   3.135   1.635  11.671  1.1526 -0.0394  1.1361
 5266TIP3    H237214   3.089   1.753  11.754  2.1872 -0.5548  2.4965
 5267TIP3   OH237215   0.114   5.192  11.193  0.3445 -0.4451 -0.3913
 5267TIP3    H137216   0.126   5.249  11.269 -0.3539 -0.0950 -0.5369
 5267TIP3    H237217   0.177   5.121  11.206  0.7974  0.0370  0.0995
 5268TIP3   OH237218   4.997   1.762  13.430 -0.2917  0.5476  0.6989
 5268TIP3    H137219   4.905   1.737  13.430 -0.7664  2.1527  0.5725
 5268TIP3    H237220   4.998   1.850  13.468  0.8836  1.4919 -1.3089
 5269TIP3   OH237221   6.660   3.232  16.904 -0.3815  0.1924  0.2267
 5269TIP3    H137222   6.567   3.251  16.914 -0.6170  0.1574 -1.5144
 5269TIP3    H237223   6.698   3.314  16.873 -0.1837 -0.2636 -0.7956
 5270TIP3   OH237224   2.161   6.633  13.051 -0.2426 -0.4972  0.1981
 5270TIP3    H137225   2.255   6.648  13.038 -0.2720 -1.2362 -1.0118
 5270TIP3    H237226   2.125   6.631  12.962 -1.4998  0.2956  0.6589
 5271TIP3   OH237227   2.556   6.053  14.079  1.0608 -0.3220  0.4580
 5271TIP3    H137228   2.496   5.980  14.065 -0.4256  0.4760  2.1302
 5271TIP3    H237229   2.616   6.022  14.146  1.7275 -0.6758 -0.2869
 5272TIP3   OH237230   4.441   3.138   1.521 -0.2256  0.4460 -0.2057
 5272TIP3    H137231   4.375   3.168   1.458  0.1711 -0.9604 -1.3354
 5272TIP3    H237232   4.434   3.200   1.594 -3.8734 -0.4926  0.4645
 5273TIP3   OH237233   4.496   6.113  15.288 -0.0717 -0.1563  0.1510
 5273TIP3    H137234   4.562   6.045  15.280 -0.3351 -0.2404 -2.2322
 5273TIP3    H237235   4.498   6.139  15.380  0.7714 -2.6142  0.9025
 5274TIP3   OH237236   4.674   5.616   1.974  0.3802 -0.3541 -0.6425
 5274TIP3    H137237   4.732   5.653   2.041 -1.0859 -1.6195  1.4364
 5274TIP3    H237238   4.695   5.522   1.973 -1.1398 -0.7220 -0.3348
 5275TIP3   OH237239   4.680   3.807  11.641 -0.0878 -0.0172 -0.6807
 5275TIP3    H137240   4.733   3.862  11.699 -0.6635  1.6114 -1.6353
 5275TIP3    H237241   4.617   3.868  11.602 -1.1190 -1.4813 -1.3605
 5276TIP3   OH237242   6.362   0.997  13.675  0.0749 -0.1851 -0.1826
 5276TIP3    H137243   6.279   1.035  13.646 -0.2731  0.9198  1.9865
 5276TIP3    H237244   6.357   0.905  13.650 -0.7212  0.3794 -2.2467
 5277TIP3   OH237245   4.486   4.031   3.951  0.5746 -0.2938  0.0681
 5277TIP3    H137246   4.395   4.046   3.976  0.7267  1.0194 -0.1061
 5277TIP3    H237247   4.488   3.938   3.926 -1.1246  0.0411 -1.5814
 5278TIP3   OH237248   4.251   3.880   3.964 -0.0743 -0.1120 -0.1198
 5278TIP3    H137249   4.228   3.855   3.875 -1.2185 -0.5093  0.2563
 5278TIP3    H237250   4.204   3.817   4.019  1.8906 -0.8930  0.7524
 5279TIP3   OH237251   3.215   4.887  14.278  0.6331  0.1097  0.3600
 5279TIP3    H137252   3.165   4.963  14.308  0.4569  0.4201 -0.6973
 5279TIP3    H237253   3.177   4.814  14.326 -0.3415  0.4486  0.1265
 5280TIP3   OH237254   1.660   0.481  13.819 -0.0481 -0.0931 -0.0797
 5280TIP3    H137255   1.576   0.445  13.847 -0.1818  0.1574 -0.1558
 5280TIP3    H237256   1.657   0.476  13.723 -1.2506  2.6848 -0.2903
 5281TIP3   OH237257   3.563   5.755  14.826 -0.2294  0.0102 -0.1267
 5281TIP3    H137258   3.533   5.664  14.831  3.0687 -1.2899 -0.8911
 5281TIP3    H237259   3.611   5.768  14.908 -1.1154  1.2951  0.2156
 5282TIP3   OH237260   1.332   1.041  14.974 -0.6118  0.0234 -0.0130
 5282TIP3    H137261   1.325   0.996  15.058  0.8880 -0.5123 -0.1340
 5282TIP3    H237262   1.331   0.970  14.909 -2.3090  0.4606 -0.5261
 5283TIP3   OH237263   3.813   4.087   4.918 -0.1010  0.5900 -0.9388
 5283TIP3    H137264   3.773   4.161   4.872  0.4567  1.7168  0.3017
 5283TIP3    H237265   3.856   4.127   4.994 -0.7593 -1.1518  0.4085
 5284TIP3   OH237266   1.756   0.798   2.101 -0.4989 -0.2444  0.2863
 5284TIP3    H137267   1.816   0.776   2.031 -0.7103  1.0336 -0.3304
 5284TIP3    H237268   1.691   0.855   2.060 -0.0629  1.3539  1.7187
 5285TIP3   OH237269   3.683   4.130   3.695  0.0460  0.8618 -0.6177
 5285TIP3    H137270   3.612   4.109   3.635 -0.1831  1.6137 -0.6178
 5285TIP3    H237271   3.641   4.175   3.768  0.3998  0.4703 -0.1631
 5286TIP3   OH237272   1.450   2.121  16.858  0.6382  0.2881 -0.0496
 5286TIP3    H137273   1.378   2.079  16.906  0.4043  0.9804  0.2085
 5286TIP3    H237274   1.408   2.161  16.782  0.6939  1.0330  0.3123
 5287TIP3   OH237275   4.292   0.857   3.329 -0.0189  0.1209 -0.3230
 5287TIP3    H137276   4.254   0.867   3.241 -0.3375 -0.3224 -0.2368
 5287TIP3    H237277   4.290   0.763   3.345 -1.4243  0.3125  0.8089
 5288TIP3   OH237278   0.725   3.753   0.027  0.7397  0.1423 -0.1943
 5288TIP3    H137279   0.767   3.693   0.088 -0.9102 -0.2346  0.6164
 5288TIP3    H237280   0.710   3.701  -0.052  1.7253  0.2703 -0.4767
 5289TIP3   OH237281   3.351   2.882  12.396  0.3476 -0.0508  0.3995
 5289TIP3    H137282   3.440   2.916  12.387  0.4613 -0.2810  0.6411
 5289TIP3    H237283   3.350   2.839  12.482 -0.1709  0.4754  0.6667
 5290TIP3   OH237284   5.639   2.317  10.425  0.3547 -0.0858  0.2351
 5290TIP3    H137285   5.629   2.240  10.480  3.4795 -1.3328 -0.7076
 5290TIP3    H237286   5.571   2.309  10.358  0.2438 -1.7052  0.5187
 5291TIP3   OH237287   0.422   0.469  13.569  0.1836  0.1152  0.1376
 5291TIP3    H137288   0.377   0.397  13.525 -0.0114  0.4105 -0.1487
 5291TIP3    H237289   0.514   0.459  13.545 -0.1006  1.0790 -1.4912
 5292TIP3   OH237290   6.475   2.943  12.711 -0.2237  0.7649  0.4476
 5292TIP3    H137291   6.443   2.861  12.674  0.3800 -0.4113  2.4025
 5292TIP3    H237292   6.562   2.953  12.673 -0.7029  1.0694 -0.6009
 5293TIP3   OH237293   1.782   1.371  10.887 -0.3092 -0.7224  0.0960
 5293TIP3    H137294   1.853   1.324  10.844  0.4864  0.0573  0.5282
 5293TIP3    H237295   1.822   1.452  10.919 -1.1290 -0.7652  1.3225
 5294TIP3   OH237296   3.207   2.507  13.711  0.1866 -0.2294  0.0920
 5294TIP3    H137297   3.203   2.595  13.749 -0.5933 -1.0737  2.0759
 5294TIP3    H237298   3.115   2.481  13.702  0.3455 -0.2440 -2.0710
 5295TIP3   OH237299   3.933   2.600  16.646  0.2660 -0.5336  0.0397
 5295TIP3    H137300   3.983   2.627  16.569 -0.2165 -0.4048 -0.2279
 5295TIP3    H237301   3.923   2.505  16.635 -0.4003 -0.4161 -0.4130
 5296TIP3   OH237302   3.060   3.777  14.298  0.1565  0.2799  0.2337
 5296TIP3    H137303   2.994   3.846  14.299 -0.1316  0.0122  0.0553
 5296TIP3    H237304   3.041   3.724  14.375  0.7207  0.7127  0.6779
 5297TIP3   OH237305   4.590   0.006   4.828  1.3001 -0.2978  0.2141
 5297TIP3    H137306   4.674   0.023   4.785  1.9329  0.2225  1.5945
 5297TIP3    H237307   4.558   0.093   4.854  0.7492 -0.5686  0.4652
 5298TIP3   OH237308   6.059   3.603   2.780 -0.5050  0.1864  0.0084
 5298TIP3    H137309   6.065   3.522   2.832 -1.0848  1.5067  2.2548
 5298TIP3    H237310   6.121   3.590   2.708 -1.4942 -2.7488 -0.4553
 5299TIP3   OH237311   6.082   2.219  16.593 -0.1253 -0.6453  0.0388
 5299TIP3    H137312   6.168   2.224  16.552 -0.6376 -0.2901 -1.0234
 5299TIP3    H237313   6.050   2.309  16.592 -0.4312 -0.7406  0.6279
 5300TIP3   OH237314   4.895   5.359  13.731  0.0442  0.2743 -0.5038
 5300TIP3    H137315   4.975   5.384  13.684 -1.1549 -0.9240 -3.3972
 5300TIP3    H237316   4.894   5.264  13.729 -1.8790  0.2775 -1.3429
 5301TIP3   OH237317   6.787   3.830   5.371 -0.5531 -0.4801 -0.2564
 5301TIP3    H137318   6.815   3.876   5.450 -2.1754  0.1693 -0.0266
 5301TIP3    H237319   6.807   3.891   5.299 -2.0640  0.3238 -0.0175
 5302TIP3   OH237320   3.670   1.396  13.840  0.1854 -0.0177 -0.8009
 5302TIP3    H137321   3.599   1.378  13.778  0.3003  0.7796 -1.1812
 5302TIP3    H237322   3.720   1.467  13.799  0.1741  0.6376  0.2706
 5303TIP3   OH237323   0.389   4.519   2.000  0.1619 -0.3673 -0.1232
 5303TIP3    H137324   0.434   4.595   1.964 -0.2563  0.3398  0.8011
 5303TIP3    H237325   0.344   4.480   1.925  1.7534 -0.7231 -0.9480
 5304TIP3   OH237326   6.740   4.905  11.895 -0.1268 -0.4899 -0.1910
 5304TIP3    H137327   6.664   4.918  11.839 -0.9389 -2.2866  0.4092
 5304TIP3    H237328   6.717   4.945  11.978  0.8068  1.5700 -0.8636
 5305TIP3   OH237329   3.558   1.781   0.345  0.1203 -0.7306  0.3109
 5305TIP3    H137330   3.532   1.748   0.431 -0.7478  0.4873  0.5355
 5305TIP3    H237331   3.531   1.713   0.284  0.8813 -1.6811  0.9899
 5306TIP3   OH237332   6.280   1.334  16.934 -0.0863  0.4062 -0.1085
 5306TIP3    H137333   6.186   1.342  16.947 -0.1120 -0.8523  0.6509
 5306TIP3    H237334   6.290   1.267  16.867  0.2744  1.0025 -0.6727
 5307TIP3   OH237335   0.288   6.782   0.548 -0.0552 -0.3779  0.2800
 5307TIP3    H137336   0.259   6.828   0.469 -1.6868 -0.6891  0.6705
 5307TIP3    H237337   0.219   6.798   0.612  1.4510  0.2293  1.8121
 5308TIP3   OH237338   2.299   6.350  11.607  0.5212 -0.0832  0.5582
 5308TIP3    H137339   2.333   6.315  11.688  0.4179  0.5351  0.8799
 5308TIP3    H237340   2.298   6.276  11.546 -2.9828 -1.6254  2.1689
 5309TIP3   OH237341   5.386   2.711  12.848 -0.3403 -0.3209  0.1469
 5309TIP3    H137342   5.319   2.683  12.910 -0.6360  0.9242  0.4284
 5309TIP3    H237343   5.469   2.695  12.893 -0.4720 -1.1282  0.1149
 5310TIP3   OH237344   3.226   3.237   0.826 -0.0563  0.0238  0.0469
 5310TIP3    H137345   3.167   3.294   0.776 -0.8528 -0.9004 -0.1141
 5310TIP3    H237346   3.224   3.154   0.778  2.2066  0.2533 -0.5493
 5311TIP3   OH237347   0.634   3.825   4.432 -0.1840 -0.2606 -0.0709
 5311TIP3    H137348   0.621   3.742   4.387 -2.2595 -0.2845  0.5003
 5311TIP3    H237349   0.632   3.803   4.525  1.4756  0.1572  0.0991
 5312TIP3   OH237350   2.468   6.462  15.168 -0.5896  0.3887 -0.2548
 5312TIP3    H137351   2.381   6.423  15.163 -0.7096  0.8611 -2.3888
 5312TIP3    H237352   2.457   6.551  15.136  0.3413  1.1060  1.2997
 5313TIP3   OH237353   3.342   2.690   6.797 -0.5034  0.2917  0.4635
 5313TIP3    H137354   3.263   2.742   6.811 -0.1050  1.0439 -0.0123
 5313TIP3    H237355   3.313   2.599   6.807 -1.5791  0.5143 -0.3868
 5314TIP3   OH237356   6.262   5.249  14.266 -0.0370  0.3615  0.2425
 5314TIP3    H137357   6.221   5.163  14.258  0.5104 -0.0330  1.3998
 5314TIP3    H237358   6.219   5.289  14.342  1.1824  0.2437  1.0078
 5315TIP3   OH237359   6.530   4.584  12.855 -0.1106  0.2476  0.1461
 5315TIP3    H137360   6.581   4.653  12.898  1.3185 -1.2217  0.9323
 5315TIP3    H237361   6.461   4.631  12.807 -0.1396  2.1174  1.8698
 5316TIP3   OH237362   5.353   3.140   5.111  0.5046  0.7807 -0.3908
 5316TIP3    H137363   5.443   3.109   5.098  0.1742  0.2113 -1.4427
 5316TIP3    H237364   5.315   3.142   5.023 -0.7670  0.2362  0.1215
 5317TIP3   OH237365   2.432   4.686  12.901 -0.8086 -0.3054  0.1770
 5317TIP3    H137366   2.437   4.742  12.824  0.8688 -0.7625 -0.0989
 5317TIP3    H237367   2.523   4.659  12.916 -1.2584 -1.0950  1.6688
 5318TIP3   OH237368   4.322   1.010  12.828  0.7946 -0.3183 -0.3617
 5318TIP3    H137369   4.261   1.034  12.897  2.2756  1.0588  0.5496
 5318TIP3    H237370   4.358   1.093  12.798  2.2787 -1.0765 -0.7916
 5319TIP3   OH237371   0.870   4.948  12.471  0.4364  0.5158 -0.2293
 5319TIP3    H137372   0.834   4.920  12.555  2.9079 -1.3919  0.3527
 5319TIP3    H237373   0.795   4.951  12.412 -1.3398  1.6496  1.9263
 5320TIP3   OH237374   1.609   6.750   2.425  0.0330 -0.6479 -0.0854
 5320TIP3    H137375   1.588   6.843   2.438 -1.2058 -0.8116 -0.7574
 5320TIP3    H237376   1.704   6.746   2.430  0.1193  0.6927 -0.2446
 5321TIP3   OH237377   4.370   3.529  11.308 -0.3053  0.2564  0.0667
 5321TIP3    H137378   4.412   3.568  11.231 -0.8744  2.2008  0.6864
 5321TIP3    H237379   4.423   3.560  11.382 -0.1197 -1.0982  0.5127
 5322TIP3   OH237380   0.706   6.255   5.629 -0.1877  0.2401 -0.2699
 5322TIP3    H137381   0.785   6.204   5.643 -0.2454  0.6295  1.7695
 5322TIP3    H237382   0.636   6.190   5.621 -0.0283 -0.0552  0.6528
 5323TIP3   OH237383   1.268   6.578   5.626  0.0556  0.0615 -0.0436
 5323TIP3    H137384   1.349   6.607   5.668  0.0081 -0.5083  0.4436
 5323TIP3    H237385   1.233   6.511   5.684 -0.0494 -0.6939 -0.9597
 5324TIP3   OH237386   0.109   3.608   3.682 -0.2342  0.0283  0.0100
 5324TIP3    H137387   0.084   3.524   3.643 -0.6939  0.0553  0.2280
 5324TIP3    H237388   0.026   3.656   3.690 -0.3290 -0.3600  1.9256
 5325TIP3   OH237389   6.019   4.473   3.986 -0.5476  0.0412  0.2240
 5325TIP3    H137390   6.039   4.406   4.052 -0.5753  0.8543  1.0695
 5325TIP3    H237391   6.041   4.556   4.028  2.5601  0.4778 -1.8477
 5326TIP3   OH237392   0.469   1.689   3.139 -0.4544 -0.0421 -0.4747
 5326TIP3    H137393   0.439   1.748   3.208 -1.3807  0.3104 -1.1728
 5326TIP3    H237394   0.530   1.630   3.184 -1.2158  0.0282  0.6954
 5327TIP3   OH237395   0.810   4.312  14.755  0.3216  0.2525  0.5590
 5327TIP3    H137396   0.840   4.397  14.724  2.0941 -0.0881  1.2360
 5327TIP3    H237397   0.785   4.265  14.676 -0.4928  1.3067  0.1650
 5328TIP3   OH237398   5.537   1.777  15.052  0.4510 -0.3114  0.1351
 5328TIP3    H137399   5.547   1.866  15.087  0.1163 -0.4875  0.6873
 5328TIP3    H237400   5.454   1.747  15.088  0.4105 -0.7342 -0.3098
 5329TIP3   OH237401   4.384   5.063  12.010 -0.6746 -0.0964 -0.1460
 5329TIP3    H137402   4.443   5.108  11.951  0.2563 -2.5996 -1.2713
 5329TIP3    H237403   4.405   5.098  12.097  0.2747  1.2614 -0.9001
 5330TIP3   OH237404   5.150   3.075   0.932 -0.2867  0.7153 -0.1587
 5330TIP3    H137405   5.202   2.995   0.927 -0.1357  0.4677  3.1310
 5330TIP3    H237406   5.070   3.055   0.884  0.9371 -0.3387 -1.8482
 5331TIP3   OH237407   1.409   1.958   4.575 -0.0582 -0.5366 -0.4304
 5331TIP3    H137408   1.396   1.933   4.667  0.0167  0.2093 -0.2135
 5331TIP3    H237409   1.352   2.033   4.562  1.0975  0.3471 -0.5469
 5332TIP3   OH237410   4.309   3.491  13.008  0.1406 -0.7083 -0.9240
 5332TIP3    H137411   4.336   3.564  12.952 -0.3233  0.1344 -0.0746
 5332TIP3    H237412   4.381   3.482  13.071 -0.5600  0.1366  0.0170
 5333TIP3   OH237413   3.544   4.452  12.819  0.3892  0.1309 -0.3163
 5333TIP3    H137414   3.465   4.495  12.851 -0.4916 -1.3811 -0.3464
 5333TIP3    H237415   3.513   4.369  12.783  2.1342 -1.1459  0.9383
 5334TIP3   OH237416   0.823   6.398   4.138  0.6011  0.6250  0.1049
 5334TIP3    H137417   0.799   6.489   4.152  0.9653  0.9897 -1.4499
 5334TIP3    H237418   0.740   6.351   4.137  0.3800  1.0013  0.4682
 5335TIP3   OH237419   2.207   2.956  12.352 -0.1101 -0.1365  0.0720
 5335TIP3    H137420   2.185   2.966  12.259 -2.2981 -0.5675  0.5046
 5335TIP3    H237421   2.230   3.044  12.381  0.8274 -0.0331 -0.8965
 5336TIP3   OH237422   3.258   4.791   2.747  0.0670 -0.2477 -0.1706
 5336TIP3    H137423   3.335   4.837   2.714 -0.0683  0.5045  0.5076
 5336TIP3    H237424   3.192   4.860   2.759 -0.7030 -0.8699 -0.6993
 5337TIP3   OH237425   2.427   0.668   4.981  0.2860  0.3451  0.0942
 5337TIP3    H137426   2.521   0.683   4.988  1.0424 -2.2177 -2.4815
 5337TIP3    H237427   2.417   0.574   4.993 -2.1441  0.6657  1.2279
 5338TIP3   OH237428   0.330   1.946  10.659 -0.4732  0.2838  0.1190
 5338TIP3    H137429   0.377   2.025  10.687 -0.1936  0.3793 -0.6003
 5338TIP3    H237430   0.397   1.890  10.620 -1.0851  0.8353 -1.8300
 5339TIP3   OH237431   1.296   0.710   1.258 -1.1172 -0.1213 -0.3538
 5339TIP3    H137432   1.259   0.652   1.191  1.3231  0.4988 -2.4044
 5339TIP3    H237433   1.299   0.796   1.215  0.6047  0.2896  0.5023
 5340TIP3   OH237434   3.193   2.023  14.419  0.7791  0.4687  0.4762
 5340TIP3    H137435   3.190   1.943  14.470 -0.2556  0.3126  0.1939
 5340TIP3    H237436   3.107   2.028  14.377  1.0100  1.4633  0.0924
 5341TIP3   OH237437   1.530   2.370  11.428  0.0234  0.2716  0.2879
 5341TIP3    H137438   1.565   2.343  11.343 -1.0350  0.3656 -0.1944
 5341TIP3    H237439   1.564   2.459  11.440 -0.3566  0.5120 -0.3547
 5342TIP3   OH237440   0.046   0.139  13.595 -0.1563  0.3474 -0.2136
 5342TIP3    H137441   0.035   0.062  13.539  1.1872  0.2105 -0.3131
 5342TIP3    H237442   0.112   0.192  13.550 -2.6374  2.7268 -1.3619
 5343TIP3   OH237443   4.513   5.837  12.113 -0.0448 -0.1171 -0.2545
 5343TIP3    H137444   4.420   5.815  12.117 -0.1070  0.2584  1.0836
 5343TIP3    H237445   4.515   5.933  12.104  0.1883 -0.0269  0.6251
 5344TIP3   OH237446   4.115   0.385   3.878  0.5265 -0.0561  0.4248
 5344TIP3    H137447   4.083   0.467   3.914 -0.7328 -0.2826 -0.1397
 5344TIP3    H237448   4.206   0.403   3.854 -0.0866  1.5621 -0.8450
 5345TIP3   OH237449   4.008   0.196   4.750  0.9598 -0.3208 -0.4069
 5345TIP3    H137450   4.032   0.287   4.771  2.2965 -1.1451  2.0570
 5345TIP3    H237451   4.064   0.173   4.677  0.4920  0.8600 -1.1727
 5346TIP3   OH237452   3.212   0.787   5.107 -0.4956 -0.2428  0.1084
 5346TIP3    H137453   3.224   0.694   5.124  0.5153 -0.3831 -1.1716
 5346TIP3    H237454   3.295   0.828   5.134 -0.7573  0.2089  0.2396
 5347TIP3   OH237455   6.736   0.442   6.141 -0.2860  0.6329  0.5590
 5347TIP3    H137456   6.795   0.373   6.172  0.3957  1.3982  0.9968
 5347TIP3    H237457   6.659   0.395   6.110  0.6042 -0.3972 -0.1727
 5348TIP3   OH237458   5.257   6.203   4.863 -0.6531 -0.3118  0.2704
 5348TIP3    H137459   5.210   6.153   4.797 -1.7431  0.7986  0.1626
 5348TIP3    H237460   5.349   6.186   4.846 -0.9603 -0.9872 -0.7675
 5349TIP3   OH237461   4.166   4.612  12.139  0.6964  0.1007 -0.1355
 5349TIP3    H137462   4.125   4.578  12.059  1.1622 -0.1136 -0.2842
 5349TIP3    H237463   4.140   4.705  12.140  2.6576  0.7690 -1.8644
 5350TIP3   OH237464   5.346   0.051   1.528  0.3319 -0.6463 -0.4622
 5350TIP3    H137465   5.333  -0.032   1.574  1.9092 -0.9564 -0.5241
 5350TIP3    H237466   5.391   0.107   1.591  1.6206 -0.7356 -1.2771
 5351TIP3   OH237467   6.559   6.586   0.752  0.6954 -0.3808  0.4358
 5351TIP3    H137468   6.593   6.640   0.680  0.7261 -1.3967 -0.3444
 5351TIP3    H237469   6.538   6.648   0.821 -0.0536  0.7156 -0.7318
 5352TIP3   OH237470   3.272   3.891  16.635 -0.5624 -0.0246 -0.0888
 5352TIP3    H137471   3.345   3.853  16.682 -0.6695 -0.3287 -0.1624
 5352TIP3    H237472   3.299   3.980  16.615  0.3564 -0.5434 -1.3158
 5353TIP3   OH237473   5.520   3.637   4.091  0.4761  0.0845  0.2446
 5353TIP3    H137474   5.566   3.647   4.008 -2.3028 -0.5635 -1.4984
 5353TIP3    H237475   5.558   3.559   4.131  2.0538  0.5745 -0.2463
 5354TIP3   OH237476   2.349   0.473  17.049  0.2972 -0.2219  0.4957
 5354TIP3    H137477   2.280   0.417  17.014 -0.1940  1.4522 -1.3504
 5354TIP3    H237478   2.429   0.445  17.003  0.6816 -1.3785  1.7909
 5355TIP3   OH237479   3.327   4.440  15.329  0.7862  0.0375 -0.6067
 5355TIP3    H137480   3.301   4.367  15.273  0.0454  0.4937 -0.8691
 5355TIP3    H237481   3.378   4.399  15.400 -0.2958 -0.8368 -0.3033
 5356TIP3   OH237482   4.204   3.962   1.076 -0.2369  0.6495  0.3433
 5356TIP3    H137483   4.261   4.023   1.123 -0.2266  0.3433  0.7409
 5356TIP3    H237484   4.261   3.889   1.053 -0.0343  1.2014 -0.9591
 5357TIP3   OH237485   1.077   5.483   0.154  0.1048  0.1387 -0.4696
 5357TIP3    H137486   1.138   5.411   0.139  0.6328  0.4369  0.1994
 5357TIP3    H237487   1.127   5.562   0.137 -0.8851  0.3678 -2.6728
 5358TIP3   OH237488   5.189   2.657   3.296  0.0932  0.1350 -0.1418
 5358TIP3    H137489   5.247   2.693   3.364  0.1261  1.3122 -0.7807
 5358TIP3    H237490   5.214   2.564   3.292  1.6140  0.5074 -0.0671
 5359TIP3   OH237491   6.348   4.127  14.699 -0.0454  0.2262  0.1986
 5359TIP3    H137492   6.307   4.090  14.777  1.0921  1.0165  1.2123
 5359TIP3    H237493   6.323   4.220  14.701  0.5595  0.3968  0.0145
 5360TIP3   OH237494   4.846   3.334  16.006 -0.7152 -0.4572 -0.2993
 5360TIP3    H137495   4.859   3.336  16.101 -1.8831 -0.6032 -0.1234
 5360TIP3    H237496   4.861   3.424  15.977 -2.0914 -0.0089  0.2922
 5361TIP3   OH237497   1.202   6.762   1.947  0.0647  0.7673 -0.2656
 5361TIP3    H137498   1.137   6.781   1.879  0.6431  2.1900 -0.4478
 5361TIP3    H237499   1.236   6.848   1.974  0.5396  0.1710  1.1489
 5362TIP3   OH237500   5.800   0.875   1.575 -0.3681  0.3575  0.0976
 5362TIP3    H137501   5.824   0.790   1.539  0.0638  0.8023 -0.7005
 5362TIP3    H237502   5.709   0.889   1.547  0.1262  0.9273 -1.3102
 5363TIP3   OH237503   1.553   6.657  16.929  0.3516  0.2190 -0.1231
 5363TIP3    H137504   1.587   6.567  16.934 -0.7340 -0.1300  2.4385
 5363TIP3    H237505   1.465   6.651  16.964  0.7720  2.4982  1.5100
 5364TIP3   OH237506   5.424   3.078  12.291  0.2376 -0.7315  0.0385
 5364TIP3    H137507   5.499   3.068  12.232 -0.6927  2.2908 -1.9162
 5364TIP3    H237508   5.453   3.143  12.355 -0.5891  0.2961 -0.6014
 5365TIP3   OH237509   5.970   4.170   2.918 -0.5165 -0.3151 -0.8602
 5365TIP3    H137510   6.006   4.237   2.976 -0.2636 -0.4203 -0.8957
 5365TIP3    H237511   6.038   4.104   2.912 -0.9077 -0.7519 -0.5395
 5366TIP3   OH237512   3.945   6.549   4.482 -0.5910  0.3081  0.1326
 5366TIP3    H137513   3.891   6.478   4.517  1.4430 -0.8871  1.0370
 5366TIP3    H237514   3.977   6.594   4.560  1.8516 -0.7232 -0.1711
 5367TIP3   OH237515   1.433   2.976   0.219 -0.0831 -0.3930 -0.4202
 5367TIP3    H137516   1.448   2.932   0.303  0.6398 -0.1189 -0.3920
 5367TIP3    H237517   1.475   2.919   0.155  1.2097  0.4138 -0.3387
 5368TIP3   OH237518   1.620   5.142   6.089  0.4923  0.3672  0.8780
 5368TIP3    H137519   1.585   5.225   6.058  0.1975  0.9902  2.7436
 5368TIP3    H237520   1.593   5.137   6.181 -1.6798 -2.9371  0.2698
 5369TIP3   OH237521   1.338   3.220   3.595 -0.3905 -0.1740  0.2907
 5369TIP3    H137522   1.306   3.250   3.510 -1.1950 -1.8035 -0.0176
 5369TIP3    H237523   1.406   3.156   3.574  0.5831  0.6287  0.9129
 5370TIP3   OH237524   3.571   4.673  13.761  0.0139  0.0218 -0.4679
 5370TIP3    H137525   3.595   4.673  13.853  2.7067 -0.6271 -1.0882
 5370TIP3    H237526   3.571   4.766  13.736  0.9689  0.1141 -0.1757
 5371TIP3   OH237527   4.920   2.177   3.616  0.1080 -0.0633 -0.0010
 5371TIP3    H137528   4.887   2.229   3.543 -0.3642  0.5135  0.6013
 5371TIP3    H237529   4.922   2.239   3.690 -0.2073 -0.8292  0.6612
 5372TIP3   OH237530   1.368   0.843   3.552 -0.4710  0.0131  0.3188
 5372TIP3    H137531   1.371   0.936   3.528  0.0061  0.4108  1.7840
 5372TIP3    H237532   1.449   0.828   3.601 -1.1801 -0.8134  1.2909
 5373TIP3   OH237533   3.131   2.874  14.679  0.2542 -0.4733  0.7190
 5373TIP3    H137534   3.071   2.801  14.692  0.6034 -0.5061  2.4830
 5373TIP3    H237535   3.154   2.902  14.768 -0.1491  2.0281  0.1178
 5374TIP3   OH237536   1.787   4.704   0.281  0.0456 -0.2403 -0.4099
 5374TIP3    H137537   1.772   4.637   0.213 -0.6331 -0.6216  0.1070
 5374TIP3    H237538   1.874   4.684   0.315 -1.1013 -2.4925  1.4915
 5375TIP3   OH237539   3.025   5.687  14.928 -0.3825  0.0541 -0.3316
 5375TIP3    H137540   2.989   5.623  14.866 -1.7157 -0.5338  1.0037
 5375TIP3    H237541   2.987   5.771  14.901 -0.1156 -0.0172 -0.9460
 5376TIP3   OH237542   5.276   5.815  16.449  0.0173  0.2647  0.2333
 5376TIP3    H137543   5.266   5.757  16.525  0.6190 -0.2887 -0.1028
 5376TIP3    H237544   5.311   5.897  16.486  1.1885 -0.3126  0.4512
 5377TIP3   OH237545   3.432   2.960  16.201  0.0691 -0.0698 -0.1788
 5377TIP3    H137546   3.403   2.905  16.128 -0.3065 -1.3046  0.8684
 5377TIP3    H237547   3.352   2.989  16.242  0.2826  0.4708 -0.1407
 5378TIP3   OH237548   4.054   4.756   4.745 -0.0929  0.3502 -0.1277
 5378TIP3    H137549   3.968   4.785   4.777  0.4829  2.0968 -0.0442
 5378TIP3    H237550   4.044   4.662   4.732 -1.3576  0.1168  2.0265
 5379TIP3   OH237551   4.430   4.599  12.037  0.5334  0.4865  0.2106
 5379TIP3    H137552   4.410   4.683  12.078 -2.1811  1.0116 -1.8987
 5379TIP3    H237553   4.506   4.617  11.981 -1.9877  2.6545 -2.8630
 5380TIP3   OH237554   4.452   0.253   4.110  0.0956  0.0725 -1.0005
 5380TIP3    H137555   4.363   0.229   4.083  0.3288  1.2482 -2.9792
 5380TIP3    H237556   4.478   0.183   4.170 -1.7491 -0.8762 -1.2218
 5381TIP3   OH237557   0.549   5.807   3.047 -0.4958  0.0986 -0.3471
 5381TIP3    H137558   0.538   5.806   3.142 -1.6313  0.3159 -0.4709
 5381TIP3    H237559   0.579   5.895   3.027  0.1320 -0.0663 -0.1568
 5382TIP3   OH237560   6.136   6.298   0.958 -0.3280 -0.2159  0.2814
 5382TIP3    H137561   6.171   6.306   0.869  1.9262 -3.5478  0.7034
 5382TIP3    H237562   6.203   6.339   1.013  0.1277 -1.4234  0.6581
 5383TIP3   OH237563   1.209   0.188  13.194 -0.0493 -0.2181  0.3038
 5383TIP3    H137564   1.168   0.274  13.200  0.8858  0.2009  1.0564
 5383TIP3    H237565   1.142   0.132  13.155 -1.2353  0.4977  1.2230
 5384TIP3   OH237566   2.286   6.209   0.743  0.4073 -0.3299  0.8543
 5384TIP3    H137567   2.377   6.215   0.771  0.4276 -1.4550  1.0643
 5384TIP3    H237568   2.291   6.185   0.650  0.3170  0.4462  0.6380
 5385TIP3   OH237569   3.085   6.396  14.538  0.0643  0.0907 -0.0613
 5385TIP3    H137570   3.072   6.478  14.490  0.5299 -0.0453 -0.4216
 5385TIP3    H237571   3.148   6.347  14.485  2.0322  0.7031  1.5957
 5386TIP3   OH237572   3.187   6.407   4.260  0.0314 -0.1460  0.4372
 5386TIP3    H137573   3.225   6.428   4.345 -1.5138 -1.3893  1.4959
 5386TIP3    H237574   3.229   6.325   4.234  0.0068 -0.1241  0.3253
 5387TIP3   OH237575   5.654   0.657  16.518  0.1823  0.2215  0.6099
 5387TIP3    H137576   5.616   0.587  16.572  0.3313  0.7300  1.3944
 5387TIP3    H237577   5.591   0.671  16.448 -0.0738 -0.3707  0.7147
 5388TIP3   OH237578   5.105   5.634   0.613 -0.2179 -0.0297 -0.3914
 5388TIP3    H137579   5.195   5.617   0.643 -0.9157 -3.2754  0.2449
 5388TIP3    H237580   5.110   5.626   0.518  0.3684  1.0198 -0.4577
 5389TIP3   OH237581   1.028   2.687  16.096 -0.4092  0.2813 -0.5601
 5389TIP3    H137582   1.004   2.598  16.071 -0.6561  0.4957 -1.1141
 5389TIP3    H237583   1.058   2.680  16.186  0.4333 -0.5137 -0.8871
 5390TIP3   OH237584   5.016   1.293  14.057  0.0580  0.4056  0.0192
 5390TIP3    H137585   4.923   1.307  14.038 -0.0916 -0.6669 -0.0502
 5390TIP3    H237586   5.062   1.339  13.986 -0.4366  0.1082 -0.4967
 5391TIP3   OH237587   5.605   4.748   2.018 -0.2851  0.1382 -0.1001
 5391TIP3    H137588   5.536   4.769   2.080 -0.8175 -1.0453 -0.2625
 5391TIP3    H237589   5.686   4.765   2.065 -0.6802  1.0799  0.2554
 5392TIP3   OH237590   2.342   2.265   4.550  0.6441 -0.1383 -0.0340
 5392TIP3    H137591   2.293   2.186   4.527 -0.3741  0.5342 -0.2311
 5392TIP3    H237592   2.342   2.266   4.646  0.3085 -0.1623 -0.0330
 5393TIP3   OH237593   5.403   0.323   0.006 -0.1592 -0.0661 -0.2403
 5393TIP3    H137594   5.396   0.307   0.100 -2.6228  0.8403 -0.2127
 5393TIP3    H237595   5.464   0.256  -0.025  0.9815 -0.1610  2.0270
 5394TIP3   OH237596   1.223   4.399  16.654  0.4794 -0.8786 -0.5155
 5394TIP3    H137597   1.313   4.421  16.679 -0.7527  1.0659  2.9055
 5394TIP3    H237598   1.204   4.320  16.703 -0.5333  0.4347  1.3511
 5395TIP3   OH237599   5.125   3.606  11.967  0.1098 -0.1452  0.5246
 5395TIP3    H137600   5.165   3.531  11.923  2.6673  1.3692  0.0923
 5395TIP3    H237601   5.136   3.679  11.905 -0.8336  0.9412  1.5917
 5396TIP3   OH237602   1.632   6.511  11.733 -0.1319  0.1806 -0.1897
 5396TIP3    H137603   1.703   6.495  11.671 -1.7062  1.3075 -2.4130
 5396TIP3    H237604   1.602   6.424  11.757  1.2857 -0.2942 -0.0339
 5397TIP3   OH237605   2.662   6.148   4.294 -0.0628 -1.0286  0.3062
 5397TIP3    H137606   2.708   6.176   4.373  0.7883 -0.0085 -0.5159
 5397TIP3    H237607   2.657   6.053   4.300  0.1540 -0.9721  1.4854
 5398TIP3   OH237608   2.594   4.425   0.642  0.6314  0.2254  0.3535
 5398TIP3    H137609   2.515   4.459   0.600  2.0339 -0.1714 -2.8018
 5398TIP3    H237610   2.579   4.331   0.648  0.9068  0.1393 -0.3261
 5399TIP3   OH237611   0.561   1.290   0.442 -0.0770 -0.1281  0.2400
 5399TIP3    H137612   0.506   1.265   0.367 -1.2034  0.4744  0.8472
 5399TIP3    H237613   0.499   1.314   0.511  0.9289  1.5473  0.6201
 5400TIP3   OH237614   4.037   2.149  13.934  0.1844 -0.0820  0.1685
 5400TIP3    H137615   4.056   2.108  13.850  0.2726 -1.0975  0.6602
 5400TIP3    H237616   4.027   2.242  13.915  0.2085 -0.3026 -0.9555
 5401TIP3   OH237617   4.928   4.415  16.097  0.2139 -0.1567  0.1926
 5401TIP3    H137618   4.864   4.433  16.028 -0.5200 -1.8949  0.3772
 5401TIP3    H237619   5.011   4.447  16.061 -0.7141  2.3295  0.0334
 5402TIP3   OH237620   5.449   5.054   6.135 -0.0769  0.1895 -0.1848
 5402TIP3    H137621   5.470   4.961   6.120 -1.5096 -0.1265 -0.3408
 5402TIP3    H237622   5.354   5.056   6.148 -0.6627  2.0147 -3.5459
 5403TIP3   OH237623   5.247   5.601   1.756  0.1401  0.2395 -0.8875
 5403TIP3    H137624   5.201   5.532   1.803 -0.7994  0.4321 -1.4794
 5403TIP3    H237625   5.201   5.607   1.672  0.4297  1.3399 -0.9809
 5404TIP3   OH237626   6.141   6.238   4.571 -0.5081 -0.0832  0.0633
 5404TIP3    H137627   6.124   6.285   4.653  0.7496  0.3790  0.0969
 5404TIP3    H237628   6.237   6.235   4.566 -0.5620  0.1738 -1.5435
 5405TIP3   OH237629   3.514   2.163   4.507  0.2659 -0.3757 -0.3198
 5405TIP3    H137630   3.526   2.232   4.572  1.5187 -0.5013 -0.4047
 5405TIP3    H237631   3.438   2.114   4.538  0.4077  0.0129  0.6561
 5406TIP3   OH237632   5.201   3.962  12.242  0.0697  0.6289  0.6757
 5406TIP3    H137633   5.114   3.931  12.267  0.3748 -4.6361 -3.2778
 5406TIP3    H237634   5.259   3.929  12.311 -0.4946 -1.4348  0.2193
 5407TIP3   OH237635   2.713   3.048  11.547 -0.3079  0.2434  0.6117
 5407TIP3    H137636   2.637   3.009  11.505  0.0605 -0.0511  0.2086
 5407TIP3    H237637   2.726   2.996  11.626 -0.8854  0.6773  0.9973
 5408TIP3   OH237638   4.515   5.600  16.969  0.7419 -0.1351  0.0841
 5408TIP3    H137639   4.442   5.608  17.029 -0.3756  0.4301 -1.2850
 5408TIP3    H237640   4.506   5.512  16.931  2.2381 -1.0303  1.6768
 5409TIP3   OH237641   4.693   0.511  14.244  0.4961  0.1970  0.0141
 5409TIP3    H137642   4.741   0.463  14.177 -3.4932 -1.9164 -1.6777
 5409TIP3    H237643   4.719   0.470  14.326  0.3943 -1.9973 -0.9895
 5410TIP3   OH237644   5.790   4.221   3.234  0.2120 -0.1697  0.1643
 5410TIP3    H137645   5.870   4.238   3.185  0.4511 -0.5738  0.4049
 5410TIP3    H237646   5.812   4.245   3.325 -0.1409  0.3167  0.1272
 5411TIP3   OH237647   4.080   3.768   3.731 -0.6231 -0.6396 -0.2947
 5411TIP3    H137648   4.063   3.823   3.655  0.7223  1.4951  0.8512
 5411TIP3    H237649   4.152   3.711   3.704  0.0991  0.3574 -0.5687
 5412TIP3   OH237650   1.806   6.287  15.297 -0.1543  0.2664  0.2032
 5412TIP3    H137651   1.733   6.348  15.284 -0.1525  0.1241 -0.5178
 5412TIP3    H237652   1.778   6.233  15.371 -1.4757 -0.7607 -0.9744
 5413TIP3   OH237653   2.824   3.801   5.540  0.2701 -0.6802 -0.3215
 5413TIP3    H137654   2.729   3.809   5.530  0.3727 -0.5566 -1.2557
 5413TIP3    H237655   2.837   3.788   5.634 -0.6696 -0.6922 -0.1840
 5414TIP3   OH237656   0.217   5.782   3.693  0.0383  0.1128  0.3958
 5414TIP3    H137657   0.312   5.789   3.702  0.1905 -1.3240  0.2060
 5414TIP3    H237658   0.184   5.867   3.722  1.2718  0.0307  2.2379
 5415TIP3   OH237659   3.218   4.986  12.768  0.4798  0.3361  0.0521
 5415TIP3    H137660   3.241   5.002  12.859 -1.2778 -1.5041  0.9025
 5415TIP3    H237661   3.289   4.931  12.734  0.2620 -0.4673  0.8737
 5416TIP3   OH237662   1.433   6.477  14.803 -0.2273  0.2713 -0.4538
 5416TIP3    H137663   1.495   6.548  14.783  0.8773 -0.7100 -0.6714
 5416TIP3    H237664   1.476   6.399  14.768 -1.0057 -0.6326  0.5614
 5417TIP3   OH237665   5.849   1.825   4.827  0.8267  0.0318  0.2406
 5417TIP3    H137666   5.862   1.741   4.871  2.9363  0.9294  1.4416
 5417TIP3    H237667   5.913   1.824   4.755 -0.8680 -0.3678 -1.3557
 5418TIP3   OH237668   0.989   4.822   4.949  0.0676  1.0099 -0.1731
 5418TIP3    H137669   0.946   4.782   4.873 -1.1586  1.2393  0.3788
 5418TIP3    H237670   1.065   4.766   4.965  0.9356  1.5060 -2.1427
 5419TIP3   OH237671   3.623   1.859   5.436  0.3436  0.9517 -0.1054
 5419TIP3    H137672   3.609   1.847   5.530 -0.7487  0.2806 -0.3392
 5419TIP3    H237673   3.715   1.834   5.422  0.3908  0.6406  0.7151
 5420TIP3   OH237674   4.244   4.676  13.146  0.2844  0.0047  0.2895
 5420TIP3    H137675   4.286   4.729  13.214  0.1409 -0.3916  0.6934
 5420TIP3    H237676   4.150   4.691  13.160  0.2573  0.0139  0.1013
 5421TIP3   OH237677   1.715   6.414  13.157  0.4292  0.2442  0.3375
 5421TIP3    H137678   1.645   6.467  13.196  1.5200  0.2862  2.3440
 5421TIP3    H237679   1.796   6.449  13.195  1.2091 -2.8103  1.7836
 5422TIP3   OH237680   6.502   0.471   5.470 -0.2612  0.2773  0.2068
 5422TIP3    H137681   6.536   0.522   5.397  0.7941 -0.1838  0.3642
 5422TIP3    H237682   6.429   0.524   5.504  1.0662  1.9269  0.6508
 5423TIP3   OH237683   0.539   3.395   3.147 -0.3679  1.1156  0.3812
 5423TIP3    H137684   0.507   3.305   3.140  1.4838  0.3107  1.4920
 5423TIP3    H237685   0.570   3.417   3.059 -0.6641  0.6049  0.1480
 5424TIP3   OH237686   5.727   4.948  14.725  0.4635 -0.1966  0.6168
 5424TIP3    H137687   5.696   4.895  14.652 -0.7143 -0.1630  1.0657
 5424TIP3    H237688   5.818   4.921  14.738  0.3815 -0.9036 -0.2180
 5425TIP3   OH237689   6.513   4.632   0.076 -0.2411  0.0066 -0.3686
 5425TIP3    H137690   6.442   4.624   0.140  0.7758 -2.4905  0.5903
 5425TIP3    H237691   6.550   4.719   0.092 -1.3651  0.2857  0.9619
 5426TIP3   OH237692   0.466   2.584   0.077 -0.6357  0.5882 -0.0415
 5426TIP3    H137693   0.413   2.511   0.044 -0.0576 -0.1339  0.5641
 5426TIP3    H237694   0.473   2.644   0.003 -1.2132  0.0792 -0.5232
 5427TIP3   OH237695   2.349   5.500   4.412  0.1701  0.1287  0.4225
 5427TIP3    H137696   2.410   5.528   4.343  1.6995 -0.8240  1.3269
 5427TIP3    H237697   2.329   5.579   4.461 -2.1018  1.1458 -1.8751
 5428TIP3   OH237698   1.171   5.561  13.859  0.6184 -0.1864  0.0503
 5428TIP3    H137699   1.106   5.495  13.833  0.0284 -0.4746  2.0970
 5428TIP3    H237700   1.140   5.642  13.819 -0.3758 -0.5425  0.0653
 5429TIP3   OH237701   0.120   3.476  11.647  0.0869 -0.1378  0.3313
 5429TIP3    H137702   0.119   3.420  11.724 -0.2167 -0.5339  0.0464
 5429TIP3    H237703   0.192   3.444  11.593  0.8822  0.7218  0.8632
 5430TIP3   OH237704   3.043   1.970  16.734  0.0527 -0.1080  0.2257
 5430TIP3    H137705   3.046   1.887  16.687  2.4297  1.2134 -2.2540
 5430TIP3    H237706   2.958   2.007  16.712 -0.5163 -1.2888  0.3432
 5431TIP3   OH237707   4.077   3.171  10.733  0.1773  0.4310  0.3225
 5431TIP3    H137708   4.000   3.114  10.732 -0.3725  1.1447 -0.9775
 5431TIP3    H237709   4.131   3.140  10.660  0.7670  0.4060  0.7651
 5432TIP3   OH237710   2.962   6.436   4.894 -0.3265 -0.2561  0.4684
 5432TIP3    H137711   2.866   6.429   4.888 -0.3855  0.3158  0.6220
 5432TIP3    H237712   2.978   6.530   4.893  0.2119 -0.3441  0.8465
 5433TIP3   OH237713   5.213   1.226   5.792 -0.3759 -0.5603 -0.1220
 5433TIP3    H137714   5.277   1.216   5.721  0.8832  1.2086  0.7051
 5433TIP3    H237715   5.251   1.177   5.865 -0.4695 -0.3685  0.0561
 5434TIP3   OH237716   1.773   4.759  12.890  0.6392 -0.0173  0.6253
 5434TIP3    H137717   1.685   4.747  12.854  0.3441  1.6413  0.7061
 5434TIP3    H237718   1.797   4.674  12.926 -0.1817 -0.9908 -1.0125
 5435TIP3   OH237719   0.069   4.920   3.937 -0.0335  0.1349  0.2135
 5435TIP3    H137720   0.113   4.872   3.867  1.5086  2.4269 -0.5086
 5435TIP3    H237721   0.071   4.860   4.012  4.2353 -0.0947  0.1816
 5436TIP3   OH237722   0.473   4.541   5.446 -0.1399 -0.3037  0.3750
 5436TIP3    H137723   0.552   4.595   5.443  1.3855 -2.4645 -0.2538
 5436TIP3    H237724   0.481   4.489   5.526 -0.0528 -1.7327 -0.5247
 5437TIP3   OH237725   1.079   2.971  16.750 -0.0807 -0.5496  0.1380
 5437TIP3    H137726   0.999   2.988  16.700 -0.9208  0.6817  1.7927
 5437TIP3    H237727   1.130   3.052  16.740 -0.1764 -0.3627  1.0624
 5438TIP3   OH237728   6.230   2.703   0.927  0.2517  1.1219  0.2596
 5438TIP3    H137729   6.235   2.718   1.021  0.6562 -2.5350  0.9340
 5438TIP3    H237730   6.319   2.717   0.896  0.5603  0.4017  0.7959
 5439TIP3   OH237731   4.317   2.092  16.405 -0.4238  0.6112 -0.7716
 5439TIP3    H137732   4.395   2.135  16.370  0.7515 -0.7846  0.0488
 5439TIP3    H237733   4.305   2.132  16.491  2.6002 -2.6439  1.4717
 5440TIP3   OH237734   1.672   2.451   3.281 -0.5742  0.0853  0.1228
 5440TIP3    H137735   1.694   2.490   3.196  2.6658  4.0366  2.4256
 5440TIP3    H237736   1.745   2.393   3.301  0.2285  1.4965  1.4150
 5441TIP3   OH237737   1.870   2.290   2.109  0.0261  0.0391 -0.0103
 5441TIP3    H137738   1.858   2.323   2.198 -2.0672 -0.8489  0.0794
 5441TIP3    H237739   1.959   2.254   2.109  0.3240  0.6783  1.4832
 5442TIP3   OH237740   5.455   3.776   1.792  0.2685 -0.8503 -0.0828
 5442TIP3    H137741   5.440   3.869   1.780  0.8683 -0.9386 -1.8712
 5442TIP3    H237742   5.468   3.765   1.886  1.5712  1.0817  0.0157
 5443TIP3   OH237743   2.799   1.581   1.435  0.3031 -0.1085  0.0304
 5443TIP3    H137744   2.796   1.535   1.519  1.9273 -1.2434 -0.4880
 5443TIP3    H237745   2.797   1.511   1.370 -0.6958  0.7490 -0.8994
 5444TIP3   OH237746   2.005   1.631   5.176  0.3923 -0.5130 -0.1699
 5444TIP3    H137747   2.003   1.716   5.220 -0.1966 -1.5155  1.8620
 5444TIP3    H237748   2.035   1.570   5.243 -1.3760 -2.2833 -0.8803
 5445TIP3   OH237749   1.640   0.472  14.288 -0.4635  0.3062 -0.6431
 5445TIP3    H137750   1.683   0.442  14.208  0.0643 -0.6294 -0.0266
 5445TIP3    H237751   1.711   0.478  14.352 -0.5940  2.5651 -0.6227
 5446TIP3   OH237752   0.806   5.476   0.197  0.2874 -0.0969  0.5701
 5446TIP3    H137753   0.898   5.502   0.205  0.7555 -2.0345  3.5416
 5446TIP3    H237754   0.810   5.386   0.163 -0.6401  0.3567 -0.7888
 5447TIP3   OH237755   2.813   4.296  14.471  0.3672 -0.4371  0.1479
 5447TIP3    H137756   2.888   4.346  14.501  0.4945 -1.2256  1.2280
 5447TIP3    H237757   2.740   4.358  14.474  0.4976 -0.3118  1.5626
 5448TIP3   OH237758   5.757   3.609  15.528  0.7389 -0.0813  0.5061
 5448TIP3    H137759   5.852   3.597  15.531  0.5424 -2.6261 -0.6915
 5448TIP3    H237760   5.745   3.695  15.488  2.5454 -0.1665 -0.3252
 5449TIP3   OH237761   3.849   4.010  12.002  0.5321  0.5055  0.6155
 5449TIP3    H137762   3.928   4.011  12.057  0.5140 -0.2446  0.6734
 5449TIP3    H237763   3.883   3.994  11.914  0.4114 -0.4909  0.7345
 5450TIP3   OH237764   3.001   4.736  16.002  0.2400  0.0051  0.4127
 5450TIP3    H137765   2.949   4.728  15.922  1.6625  2.0987 -0.8411
 5450TIP3    H237766   2.937   4.739  16.073 -1.1783  0.1992 -0.8267
 5451TIP3   OH237767   5.921   3.365  11.646  0.4211 -0.1816 -0.4590
 5451TIP3    H137768   5.828   3.344  11.654  0.9944 -2.9284 -0.3084
 5451TIP3    H237769   5.959   3.344  11.731  1.6819 -2.2900 -1.4461
 5452TIP3   OH237770   5.237   3.698   0.029 -0.1705  0.4262 -0.4999
 5452TIP3    H137771   5.232   3.631   0.097  0.5507 -0.6289 -1.4542
 5452TIP3    H237772   5.151   3.695  -0.014 -0.7371  1.3084  0.5287
 5453TIP3   OH237773   5.652   1.958  15.903  0.3655  0.0903 -0.0258
 5453TIP3    H137774   5.567   1.942  15.860  0.0951  0.3704  0.3964
 5453TIP3    H237775   5.675   2.047  15.877  1.4932 -0.6389 -1.7384
 5454TIP3   OH237776   0.609   2.629   5.115 -1.1231  0.5170  0.6612
 5454TIP3    H137777   0.522   2.603   5.144 -0.5155 -0.8697  1.3449
 5454TIP3    H237778   0.650   2.667   5.193  0.5772 -3.3885  1.9374
 5455TIP3   OH237779   6.715   0.298   5.644 -0.1154  0.2107 -0.0207
 5455TIP3    H137780   6.779   0.292   5.573  0.2965 -1.8373  0.4498
 5455TIP3    H237781   6.632   0.315   5.601 -0.0830 -2.1694 -1.1923
 5456TIP3   OH237782   4.067   0.620   4.002 -0.5264 -0.0376  0.4352
 5456TIP3    H137783   4.092   0.710   3.983 -0.4292 -0.5500 -2.2683
 5456TIP3    H237784   3.996   0.628   4.066  0.7970  1.8162  1.7599
 5457TIP3   OH237785   3.499   2.760   0.068 -0.1667 -0.0235 -0.1869
 5457TIP3    H137786   3.531   2.763   0.158 -0.7261  0.1308  0.0147
 5457TIP3    H237787   3.570   2.721   0.018  0.2781  0.1914  0.2684
 5458TIP3   OH237788   6.793   6.003  11.288 -0.2796  0.1823  0.3387
 5458TIP3    H137789   6.709   5.998  11.333  0.0667  0.3134  1.0165
 5458TIP3    H237790   6.841   5.926  11.318 -0.3814 -0.2180 -0.5197
 5459TIP3   OH237791   0.663   5.587  17.067 -0.1992  0.4919 -0.2778
 5459TIP3    H137792   0.698   5.674  17.046  0.8812  0.1992  0.2273
 5459TIP3    H237793   0.723   5.553  17.134  0.4295 -1.3247 -1.6795
 5460TIP3   OH237794   5.266   4.389   3.431 -0.0319  0.3289  0.5472
 5460TIP3    H137795   5.355   4.407   3.400 -0.1378 -1.2302 -0.7993
 5460TIP3    H237796   5.212   4.454   3.388  0.1987 -0.0841 -0.4042
 5461TIP3   OH237797   5.520   2.554  16.273  0.0555 -0.2343 -0.0591
 5461TIP3    H137798   5.563   2.549  16.187  1.3112  0.4666  0.4944
 5461TIP3    H237799   5.592   2.566  16.335 -0.9030  0.2622  0.9975
 5462TIP3   OH237800   0.735   0.341   2.883 -0.0477  0.8353 -1.1021
 5462TIP3    H137801   0.683   0.417   2.859  0.3894  1.3184 -0.5625
 5462TIP3    H237802   0.726   0.334   2.978  0.4106  0.5922 -1.0698
 5463TIP3   OH237803   3.739   4.344  14.858 -0.4553 -0.7117 -0.5230
 5463TIP3    H137804   3.733   4.261  14.905 -2.0958 -0.2946  0.0770
 5463TIP3    H237805   3.686   4.405  14.910  1.8268  1.1088 -0.1792
 5464TIP3   OH237806   4.754   4.431  14.567 -0.0673 -0.1083 -0.1420
 5464TIP3    H137807   4.734   4.512  14.612 -1.2394  0.0143 -0.8236
 5464TIP3    H237808   4.682   4.372  14.591 -0.0299 -0.4465 -0.8370
 5465TIP3   OH237809   4.701   4.011   3.000 -0.3767  0.8127 -0.4058
 5465TIP3    H137810   4.768   3.953   3.038 -0.1727 -0.9804 -3.2572
 5465TIP3    H237811   4.618   3.968   3.020 -0.4116  0.9294 -0.2966
 5466TIP3   OH237812   4.855   3.264   2.963 -0.6116 -0.6403  0.3487
 5466TIP3    H137813   4.933   3.257   3.018  2.1151 -2.3355 -3.3343
 5466TIP3    H237814   4.849   3.357   2.943 -0.2792 -0.3286  1.5776
 5467TIP3   OH237815   5.123   4.756   0.262  0.2957  0.6609 -0.1727
 5467TIP3    H137816   5.038   4.759   0.306 -0.2809 -1.6350 -0.9848
 5467TIP3    H237817   5.187   4.761   0.333 -0.5692 -0.0814  0.6898
 5468TIP3   OH237818   5.940   3.861  13.429  0.4986 -0.0496  0.0382
 5468TIP3    H137819   5.845   3.873  13.427  0.6114  1.1036  0.4991
 5468TIP3    H237820   5.961   3.857  13.523  0.8802 -0.4844 -0.0677
 5469TIP3   OH237821   1.160   1.757   1.597 -0.1356  0.3968  0.5362
 5469TIP3    H137822   1.150   1.813   1.674 -1.2689  1.7336 -0.5431
 5469TIP3    H237823   1.071   1.727   1.578 -0.0159  0.8316 -0.7941
 5470TIP3   OH237824   5.448   2.198  12.997 -0.3511  0.2509  0.1863
 5470TIP3    H137825   5.356   2.188  13.022 -1.4549  1.2447 -2.9373
 5470TIP3    H237826   5.445   2.210  12.902  3.0148  0.7022  0.0327
 5471TIP3   OH237827   5.960   6.350   5.417  0.2609 -0.1761  0.3756
 5471TIP3    H137828   5.957   6.443   5.441 -0.0270 -0.3150  0.8755
 5471TIP3    H237829   5.972   6.351   5.322  0.9948  0.3709  0.4667
 5472TIP3   OH237830   2.121   0.994   1.719 -0.4663  0.0683  0.3114
 5472TIP3    H137831   2.102   0.904   1.695 -0.1841  0.1662 -0.2984
 5472TIP3    H237832   2.062   1.013   1.792 -1.0627 -0.3653 -0.0561
 5473TIP3   OH237833   5.236   4.696   0.733  0.0851  0.5339  0.6734
 5473TIP3    H137834   5.279   4.643   0.666 -0.2734  0.7271  0.2891
 5473TIP3    H237835   5.259   4.653   0.816 -0.7839 -0.6625  0.3292
 5474TIP3   OH237836   6.429   4.314   3.591 -0.0719 -0.1530  0.2840
 5474TIP3    H137837   6.497   4.253   3.618 -0.2758 -0.3226  0.4229
 5474TIP3    H237838   6.380   4.332   3.671  0.8140  1.2618  0.5363
 5475TIP3   OH237839   0.478   4.305   2.177  0.1801 -0.4779 -0.6992
 5475TIP3    H137840   0.456   4.349   2.094 -0.5882 -0.0525 -0.2864
 5475TIP3    H237841   0.483   4.212   2.154 -1.4941 -0.5344 -0.9547
 5476TIP3   OH237842   5.451   5.276   1.782 -0.0528  0.0069 -0.0562
 5476TIP3    H137843   5.483   5.366   1.771 -1.2618  0.5881  0.8639
 5476TIP3    H237844   5.504   5.224   1.722 -1.3921  1.7889 -3.0191
 5477TIP3   OH237845   3.612   3.667   4.085  0.1198 -0.9011  0.4644
 5477TIP3    H137846   3.528   3.633   4.054 -0.7830  1.6634 -0.0918
 5477TIP3    H237847   3.656   3.698   4.006 -0.1354  1.3175  1.1196
 5478TIP3   OH237848   2.046   5.869   3.177 -0.0669  0.2112 -0.2035
 5478TIP3    H137849   1.992   5.923   3.235 -0.9973 -2.5633  1.7389
 5478TIP3    H237850   2.132   5.912   3.177 -1.0463  2.2839  0.2586
 5479TIP3   OH237851   4.358   2.143   0.413  0.0659  0.0866 -0.0480
 5479TIP3    H137852   4.280   2.194   0.394 -0.2289 -0.1111  0.5958
 5479TIP3    H237853   4.421   2.168   0.345 -0.1855  1.0502  0.0689
 5480TIP3   OH237854   6.479   4.682  14.743 -0.3391 -0.2303  0.0607
 5480TIP3    H137855   6.485   4.591  14.713 -1.1777 -0.2966  0.0658
 5480TIP3    H237856   6.487   4.735  14.664 -0.4775 -0.3339 -0.0230
 5481TIP3   OH237857   5.653   2.268   4.039  0.6032 -0.0042 -0.1846
 5481TIP3    H137858   5.719   2.205   4.066 -1.7695 -2.5336  0.1534
 5481TIP3    H237859   5.598   2.220   3.977 -1.3324  1.6954  0.1063
 5482TIP3   OH237860   6.418   6.674  11.601  0.5145  0.3314  0.0695
 5482TIP3    H137861   6.490   6.736  11.594 -1.3794  2.5401 -1.5258
 5482TIP3    H237862   6.363   6.708  11.672  1.3745 -1.8057  1.8612
 5483TIP3   OH237863   3.908   4.748  12.253  0.5078 -0.6230 -0.1271
 5483TIP3    H137864   3.844   4.689  12.291 -1.3050  0.5191 -1.2264
 5483TIP3    H237865   3.978   4.754  12.318 -0.4623 -1.9667  1.0882
 5484TIP3   OH237866   0.184   4.089   2.088  0.2176  0.1824  0.1678
 5484TIP3    H137867   0.208   4.030   2.017 -2.5812 -1.4346  0.4589
 5484TIP3    H237868   0.136   4.160   2.045  0.4248  0.3551  0.2200
 5485TIP3   OH237869   0.018   3.549   5.042  0.0109 -0.0796  0.4032
 5485TIP3    H137870   0.041   3.622   4.985 -0.2340  0.2350  0.7032
 5485TIP3    H237871  -0.067   3.519   5.009  0.4354 -0.6819 -0.1586
 5486TIP3   OH237872   3.353   4.917   6.267 -0.5087  0.0745  0.1127
 5486TIP3    H137873   3.407   4.996   6.276 -1.6648  0.9418 -0.2062
 5486TIP3    H237874   3.416   4.845   6.267  0.7054  1.0683 -0.8572
 5487TIP3   OH237875   3.673   4.775   1.439 -0.2449  0.1261  0.2226
 5487TIP3    H137876   3.633   4.730   1.514 -0.6433  2.9168  1.8213
 5487TIP3    H237877   3.600   4.823   1.399  0.1937 -0.4283 -1.2953
 5488TIP3   OH237878   3.275   3.637  12.886 -0.4166  0.1091 -0.1483
 5488TIP3    H137879   3.330   3.662  12.960 -1.1765 -0.1399  0.5137
 5488TIP3    H237880   3.312   3.554  12.855 -0.7300 -0.3196  0.6171
 5489TIP3   OH237881   5.340   5.986  12.239 -0.4787 -0.1085  0.2205
 5489TIP3    H137882   5.312   5.930  12.167 -0.1845  1.8707 -1.5152
 5489TIP3    H237883   5.430   5.960  12.257 -0.3928 -0.2931 -0.4609
 5490TIP3   OH237884   1.903   0.035  13.051 -0.1875  0.7558  0.2364
 5490TIP3    H137885   1.998   0.035  13.065 -0.3640 -0.9387  1.6251
 5490TIP3    H237886   1.888  -0.035  12.987 -0.5668  0.6305  0.4613
 5491TIP3   OH237887   1.743   1.661  15.111 -0.1831 -0.4253 -0.7618
 5491TIP3    H137888   1.825   1.670  15.064  0.7836 -1.2641  0.6628
 5491TIP3    H237889   1.750   1.724  15.183 -2.4460  2.2448 -2.6813
 5492TIP3   OH237890   1.957   2.037   2.374  0.2056 -0.3940 -0.3634
 5492TIP3    H137891   2.018   2.006   2.441 -1.7215  0.9189  2.1925
 5492TIP3    H237892   1.971   2.131   2.369 -1.4215 -0.0892  0.1447
 5493TIP3   OH237893   1.699   5.871   0.982 -0.2285 -0.1630 -0.1479
 5493TIP3    H137894   1.768   5.865   0.916  1.6055  1.5764  1.4692
 5493TIP3    H237895   1.619   5.889   0.932  0.6996 -0.8697 -1.9905
 5494TIP3   OH237896   2.094   6.258   3.237 -0.1053  0.3814  0.5047
 5494TIP3    H137897   2.167   6.204   3.269  1.0224  0.7435 -1.3430
 5494TIP3    H237898   2.066   6.308   3.314 -0.7345 -2.2323  2.1340
 5495TIP3   OH237899   1.658   6.444  12.133  0.4536 -0.2143 -0.0700
 5495TIP3    H137900   1.707   6.466  12.212 -0.2426  3.4455 -0.5178
 5495TIP3    H237901   1.717   6.386  12.084  2.0937 -0.1940  1.7543
 5496TIP3   OH237902   6.235   3.791  11.185  0.2553 -0.5032 -0.8960
 5496TIP3    H137903   6.251   3.758  11.097  2.7178  0.2040 -0.7911
 5496TIP3    H237904   6.265   3.721  11.243  2.1250  0.4172 -0.6772
 5497TIP3   OH237905   1.703   2.567  11.106 -0.0043  0.3989 -0.1556
 5497TIP3    H137906   1.686   2.635  11.171  2.1153  0.4791  0.3886
 5497TIP3    H237907   1.751   2.611  11.036  0.6919 -0.3436 -0.1692
 5498TIP3   OH237908   1.301   2.946   4.474  0.0253  0.2154  0.3975
 5498TIP3    H137909   1.218   2.983   4.503 -0.1388 -0.0931  0.3276
 5498TIP3    H237910   1.300   2.856   4.506  0.2353  0.1436  0.2066
 5499TIP3   OH237911   5.385   0.471  16.898 -0.0648  0.2738 -0.0644
 5499TIP3    H137912   5.389   0.432  16.985  1.4185  0.9384  0.1982
 5499TIP3    H237913   5.302   0.441  16.862  1.0825 -3.4818 -0.0501
 5500TIP3   OH237914   5.322   5.567  15.968  0.0046 -0.8935  0.1028
 5500TIP3    H137915   5.389   5.624  15.930 -0.1547 -1.6985 -1.4486
 5500TIP3    H237916   5.327   5.584  16.062  0.5047  1.0655 -0.2339
 5501TIP3   OH237917   3.689   3.548   2.017  0.3172  0.0531 -0.6009
 5501TIP3    H137918   3.611   3.603   2.016  1.0365  1.1332  0.4355
 5501TIP3    H237919   3.661   3.468   2.061 -0.2390  0.3603 -0.3913
 5502TIP3   OH237920   2.008   3.183  14.748  0.1095  0.5489  0.1788
 5502TIP3    H137921   2.041   3.272  14.764  0.1565  0.4818  0.4662
 5502TIP3    H237922   2.078   3.140  14.700  0.5866  0.3079  1.0693
 5503TIP3   OH237923   2.506   5.344   4.994  0.6502 -0.1023  0.2376
 5503TIP3    H137924   2.556   5.380   5.068  0.7379 -1.0500  0.6546
 5503TIP3    H237925   2.424   5.314   5.034 -1.3190  3.3697 -0.7363
 5504TIP3   OH237926   2.443   1.005  13.166  0.5881  0.4051 -0.1871
 5504TIP3    H137927   2.450   0.951  13.088  3.0927  0.6668 -0.2028
 5504TIP3    H237928   2.435   0.942  13.238 -4.2558  0.1226 -0.6234
 5505TIP3   OH237929   6.727   4.735  10.921 -0.6273 -0.3279  0.3004
 5505TIP3    H137930   6.668   4.682  10.975 -0.9770 -1.8061 -1.4652
 5505TIP3    H237931   6.673   4.762  10.847  0.4892 -0.3850 -0.5512
 5506TIP3   OH237932   1.857   4.492  16.306 -0.0126  0.3683  0.2456
 5506TIP3    H137933   1.794   4.558  16.335 -0.1165 -0.4243  1.9263
 5506TIP3    H237934   1.804   4.418  16.279  0.1628 -0.4279  1.9822
 5507TIP3   OH237935   5.481   3.194  17.000 -0.1834  0.5127 -0.3394
 5507TIP3    H137936   5.410   3.167  17.058  0.6166  0.6801  0.7498
 5507TIP3    H237937   5.461   3.286  16.980  0.0235  0.7402  0.4478
 5508TIP3   OH237938   1.400   1.295  10.398 -0.3711 -0.1754  0.4779
 5508TIP3    H137939   1.308   1.275  10.415 -0.0884 -0.3668  1.9256
 5508TIP3    H237940   1.442   1.209  10.388 -0.1022 -0.1431  1.2802
 5509TIP3   OH237941   5.386   6.544   0.567  0.5855 -0.2821  0.2215
 5509TIP3    H137942   5.350   6.461   0.599  0.6326 -0.6580 -0.6751
 5509TIP3    H237943   5.470   6.520   0.528  0.3966  0.1036 -0.4505
 5510TIP3   OH237944   5.042   5.433   1.970  0.2354 -0.0085  0.0525
 5510TIP3    H137945   5.079   5.347   1.992  0.4948 -0.3848 -1.7123
 5510TIP3    H237946   4.950   5.416   1.950  0.2047  0.1801  0.0296
 5511TIP3   OH237947   5.888   0.084  10.895 -0.2245 -0.3257 -0.0184
 5511TIP3    H137948   5.970   0.081  10.847 -0.7802 -0.8056 -0.9592
 5511TIP3    H237949   5.845   0.001  10.876 -2.0019  0.8571 -1.5095
 5512TIP3   OH237950   3.908   3.841   1.298  0.2302  0.1221  0.2775
 5512TIP3    H137951   3.959   3.762   1.310 -0.3111 -0.0282  1.8679
 5512TIP3    H237952   3.819   3.817   1.323 -0.0218  1.1211  0.4141
 5513TIP3   OH237953   5.116   3.238   0.202  0.3939  0.1308  0.2837
 5513TIP3    H137954   5.147   3.240   0.111 -1.1029 -0.2995 -0.2719
 5513TIP3    H237955   5.191   3.208   0.253  1.5282  1.2059 -0.6834
 5514TIP3   OH237956   0.157   3.320   5.455  0.4797 -0.4591 -0.6329
 5514TIP3    H137957   0.228   3.332   5.518 -0.1880 -1.5953  0.3745
 5514TIP3    H237958   0.081   3.364   5.495  0.0768 -1.0934 -0.6848
 5515TIP3   OH237959   0.387   2.313  14.091  0.0203  0.3548 -0.5216
 5515TIP3    H137960   0.443   2.236  14.091  0.4726  0.5140 -3.8977
 5515TIP3    H237961   0.340   2.308  14.008 -0.6505  3.2205 -0.4233
 5516TIP3   OH237962   2.852   4.998  16.149  0.1548 -0.1288  0.2332
 5516TIP3    H137963   2.814   5.040  16.226 -0.4233 -1.2463  0.5729
 5516TIP3    H237964   2.926   5.054  16.125 -0.5172  0.9986  0.7401
 5517TIP3   OH237965   5.027   5.742   3.076  0.2404 -0.4836  0.4796
 5517TIP3    H137966   5.016   5.651   3.047  1.0996 -0.9402  1.5230
 5517TIP3    H237967   5.114   5.743   3.117 -1.0751 -0.0167  3.4944
 5518TIP3   OH237968   6.314   0.245  11.964  0.1724 -0.7518  0.1146
 5518TIP3    H137969   6.224   0.275  11.973  0.6774  0.9716 -0.1088
 5518TIP3    H237970   6.341   0.276  11.878  1.6767  0.8901  1.0967
 5519TIP3   OH237971   3.062   5.879   3.491  0.1447 -0.4908  0.0875
 5519TIP3    H137972   3.026   5.790   3.487 -0.8485 -0.1420  0.8747
 5519TIP3    H237973   3.120   5.878   3.567 -0.3164 -0.3154  0.4460
 5520TIP3   OH237974   5.988   5.688   1.119  0.1340 -0.3266  0.2486
 5520TIP3    H137975   5.998   5.711   1.026  0.5441 -1.7532 -0.1032
 5520TIP3    H237976   6.078   5.675   1.149 -0.0615 -1.8732  0.2633
 5521TIP3   OH237977   5.696   1.259   4.093 -0.3294 -0.1590 -0.6176
 5521TIP3    H137978   5.608   1.288   4.118 -0.4320  0.5000 -1.6960
 5521TIP3    H237979   5.696   1.165   4.109 -0.5880  0.1165  1.2230
 5522TIP3   OH237980   0.713   1.482  15.185 -0.4884  0.0058  0.3198
 5522TIP3    H137981   0.674   1.435  15.259 -2.4564  2.7628  1.1901
 5522TIP3    H237982   0.781   1.536  15.224 -0.7691  0.6376 -0.0494
 5523TIP3   OH237983   3.123   1.026   4.310 -0.5284  0.3062 -0.3587
 5523TIP3    H137984   3.152   1.115   4.292 -1.0209  0.2271 -1.6602
 5523TIP3    H237985   3.203   0.976   4.322 -0.2377  0.8201 -0.1444
 5524TIP3   OH237986   0.237   0.232  12.655 -0.7403  0.4608 -0.4040
 5524TIP3    H137987   0.310   0.170  12.647  0.0272  1.4160 -1.2345
 5524TIP3    H237988   0.217   0.257  12.564 -2.7699 -0.4963 -0.2695
 5525TIP3   OH237989   4.835   6.122   1.304  0.3582 -0.0476  0.1304
 5525TIP3    H137990   4.760   6.133   1.245  0.4726 -1.9775 -0.4359
 5525TIP3    H237991   4.828   6.195   1.365 -0.1569  1.6396 -1.8342
 5526TIP3   OH237992   0.077   3.173  12.243 -0.4408  0.1505  0.4830
 5526TIP3    H137993   0.161   3.196  12.282  0.0650  1.0780 -1.0615
 5526TIP3    H237994   0.013   3.224  12.292 -0.0118  0.1051  1.1003
 5527TIP3   OH237995   5.817   3.814  11.688 -0.2985 -0.2189  0.4239
 5527TIP3    H137996   5.742   3.802  11.631 -1.0307 -2.3136  1.6954
 5527TIP3    H237997   5.890   3.833  11.629 -1.7081  1.5239 -0.8656
 5528TIP3   OH237998   5.263   5.930  12.951  0.0689 -0.2127  0.1733
 5528TIP3    H137999   5.288   6.020  12.929 -0.8418 -0.2354 -1.0277
 5528TIP3    H238000   5.338   5.897  13.002  2.9791 -0.5439 -3.8461
 5529TIP3   OH238001   3.031   6.714   4.887  0.5657  0.2405  0.3771
 5529TIP3    H138002   3.122   6.741   4.880  0.5564  0.6325  1.5460
 5529TIP3    H238003   2.982   6.796   4.898 -0.1187  0.1647 -1.6430
 5530TIP3   OH238004   0.676   6.048   2.987  0.2192  0.1118  0.0544
 5530TIP3    H138005   0.664   6.114   2.918  1.2539 -0.9273 -1.1906
 5530TIP3    H238006   0.742   6.086   3.045  3.1625 -0.9425 -2.3333
 5531TIP3   OH238007   1.668   4.667  16.984  0.4174 -0.3443  0.2264
 5531TIP3    H138008   1.740   4.620  17.026  0.2756  0.4426  1.3892
 5531TIP3    H238009   1.624   4.713  17.055 -1.4995 -1.1153 -0.3763
 5532TIP3   OH238010   4.510   1.899  12.814 -0.0968  0.3764  0.1886
 5532TIP3    H138011   4.479   1.921  12.902 -0.8305 -1.1052  0.3287
 5532TIP3    H238012   4.599   1.867  12.827 -0.0513  0.5535  0.3251
 5533TIP3   OH238013   6.304   6.015  15.962  0.0229 -0.1844  0.4148
 5533TIP3    H138014   6.360   5.956  16.012 -1.3652 -0.4251  1.7751
 5533TIP3    H238015   6.230   5.961  15.935 -0.6508  0.6198  0.6050
 5534TIP3   OH238016   1.656   2.346  11.841 -0.3461  0.1610  0.2306
 5534TIP3    H138017   1.711   2.367  11.765 -1.5468  1.8949 -0.2366
 5534TIP3    H238018   1.679   2.412  11.906 -0.4573 -0.3516  0.8021
 5535TIP3   OH238019   0.567   6.756  15.717 -0.0716 -0.3270 -0.1405
 5535TIP3    H138020   0.640   6.787  15.771  0.8603 -1.4255 -0.7232
 5535TIP3    H238021   0.608   6.729  15.635 -1.1689 -0.7702 -0.5589
 5536TIP3   OH238022   5.586   4.610  15.315 -0.8022  0.2383  0.7014
 5536TIP3    H138023   5.672   4.588  15.350 -1.0400 -0.4923  0.8479
 5536TIP3    H238024   5.542   4.655  15.387 -1.1082 -0.8119  1.1974
 5537TIP3   OH238025   3.484   6.415  16.554 -0.5086 -0.2417 -0.3358
 5537TIP3    H138026   3.450   6.375  16.473 -3.5513  0.3769  0.5093
 5537TIP3    H238027   3.496   6.507  16.532 -1.3860 -0.0632 -0.1114
 5538TIP3   OH238028   0.087   5.128   2.410 -0.0462 -0.0253 -0.6071
 5538TIP3    H138029   0.039   5.155   2.489  0.2206  0.9100 -0.7557
 5538TIP3    H238030   0.024   5.141   2.339  0.7543  2.3579 -0.9603
 5539TIP3   OH238031   2.036   2.264  16.632  0.2638  0.1799  0.0380
 5539TIP3    H138032   2.067   2.318  16.705  0.0823  0.9260 -0.4265
 5539TIP3    H238033   2.050   2.174  16.661  1.1218  0.4822  0.5950
 5540TIP3   OH238034   5.316   5.425  15.720 -0.2183  0.1924 -0.6734
 5540TIP3    H138035   5.319   5.467  15.806  2.4340 -1.2753  0.0950
 5540TIP3    H238036   5.255   5.352  15.731 -1.4814  1.2172 -0.7013
 5541TIP3   OH238037   3.468   0.490  14.212 -0.4200  0.4315 -0.2489
 5541TIP3    H138038   3.561   0.514  14.214 -0.4676  1.0725 -2.6395
 5541TIP3    H238039   3.467   0.395  14.226  0.4823  0.5313  0.6404
 5542TIP3   OH238040   0.523   2.762  15.014 -0.3468 -0.4227 -0.5242
 5542TIP3    H138041   0.491   2.689  15.068 -0.9111 -0.3173 -0.7106
 5542TIP3    H238042   0.568   2.819  15.076 -1.3571 -0.0885 -0.0796
 5543TIP3   OH238043   4.378   5.950  13.682  0.4276 -0.4956 -0.4139
 5543TIP3    H138044   4.346   5.860  13.674  1.5609 -0.8481 -1.2391
 5543TIP3    H238045   4.414   5.955  13.770  0.9679 -1.0693 -0.5945
 5544TIP3   OH238046   0.363   0.209  11.328 -0.6397 -0.0093  0.4429
 5544TIP3    H138047   0.332   0.294  11.359 -1.1458 -0.4560  1.1906
 5544TIP3    H238048   0.386   0.224  11.236  0.0492  1.1276  0.7761
 5545TIP3   OH238049   6.683   1.576  12.246  0.6243 -0.3266 -0.3624
 5545TIP3    H138050   6.652   1.568  12.336 -1.8757  0.0722 -1.1291
 5545TIP3    H238051   6.745   1.504  12.236  0.8076 -0.4920  1.6007
 5546TIP3   OH238052   3.767   4.825   0.291 -0.3948  0.0474  0.1927
 5546TIP3    H138053   3.744   4.821   0.383  0.7345  0.2774  0.4994
 5546TIP3    H238054   3.693   4.868   0.249 -0.2363  1.3934  1.2384
 5547TIP3   OH238055   2.194   3.853   4.878 -0.2476  0.9128 -0.2455
 5547TIP3    H138056   2.167   3.920   4.940 -1.2301  0.3634 -0.0613
 5547TIP3    H238057   2.245   3.901   4.812 -0.9932  1.8569 -0.1604
 5548TIP3   OH238058   4.101   0.475   2.619 -0.2444 -0.4228 -0.6828
 5548TIP3    H138059   4.089   0.567   2.596 -1.2081 -0.4733 -0.4270
 5548TIP3    H238060   4.195   0.466   2.637 -0.3505  0.8049  0.6137
 5549TIP3   OH238061   3.754   3.152   2.892  0.0173  0.0188  0.2835
 5549TIP3    H138062   3.808   3.115   2.963 -0.5846  0.9903  1.2670
 5549TIP3    H238063   3.666   3.121   2.911 -0.5068  1.9515  1.1461
 5550TIP3   OH238064   1.881   1.145   4.772 -0.1540  0.4641  0.1139
 5550TIP3    H138065   1.908   1.166   4.861 -0.6190  1.1689  0.1014
 5550TIP3    H238066   1.860   1.052   4.775  1.4510  0.0737  0.3116
 5551TIP3   OH238067   0.515   4.996   1.311  0.5874  0.3696  0.2138
 5551TIP3    H138068   0.586   4.985   1.374  0.6145  0.5202  0.2094
 5551TIP3    H238069   0.451   4.929   1.335  1.1534 -0.4142 -0.3714
 5552TIP3   OH238070   1.739   1.761  13.627  0.3924  0.0358  0.1412
 5552TIP3    H138071   1.807   1.719  13.575 -0.2370 -0.8524  0.0149
 5552TIP3    H238072   1.752   1.727  13.716  0.4095  0.2397  0.2175
 5553TIP3   OH238073   5.440   6.449   5.568  0.3170 -0.1758 -0.1514
 5553TIP3    H138074   5.525   6.406   5.560 -0.2050 -1.0848 -1.0650
 5553TIP3    H238075   5.408   6.456   5.478 -1.4067 -1.6242  0.2778
 5554TIP3   OH238076   2.718   2.770  14.716  1.0170 -0.4449 -0.6051
 5554TIP3    H138077   2.682   2.689  14.753  1.4134 -0.5513 -0.4413
 5554TIP3    H238078   2.751   2.745  14.630 -1.6360  0.2050 -1.9242
 5555TIP3   OH238079   5.523   1.085   3.872 -0.2850  0.4348 -0.1263
 5555TIP3    H138080   5.435   1.115   3.896 -0.3664  0.4128 -0.4006
 5555TIP3    H238081   5.571   1.085   3.955 -1.2422 -1.9659  0.5316
 5556TIP3   OH238082   5.945   1.599  13.999 -0.2473  0.2836  0.1486
 5556TIP3    H138083   5.879   1.648  14.050 -1.9164 -2.4490  0.8011
 5556TIP3    H238084   5.966   1.524  14.053  2.3458  0.2646 -0.7622
 5557TIP3   OH238085   1.809   2.146   5.316  0.5390 -0.1689  0.2540
 5557TIP3    H138086   1.820   2.155   5.221 -1.3900 -1.1765 -0.1082
 5557TIP3    H238087   1.828   2.234   5.350  1.9569  0.0425 -0.9540
 5558TIP3   OH238088   5.698   3.304  12.064 -0.1998 -0.5373 -0.1080
 5558TIP3    H138089   5.722   3.285  12.155 -2.4125 -0.5785  0.5245
 5558TIP3    H238090   5.626   3.243  12.045 -0.7592  0.4659 -1.3786
 5559TIP3   OH238091   5.086   3.720  14.553 -0.3661  0.3567 -0.0050
 5559TIP3    H138092   5.096   3.646  14.493 -1.0604  0.3816 -0.1538
 5559TIP3    H238093   5.021   3.776  14.512  0.3078  1.1702 -0.0001
 5560TIP3   OH238094   1.195   2.092   2.331 -0.4933  0.4527  0.4950
 5560TIP3    H138095   1.270   2.135   2.290  0.1390 -1.2809 -0.2645
 5560TIP3    H238096   1.119   2.126   2.284 -0.0848  1.2436  0.3855
 5561TIP3   OH238097   5.337   1.509   0.027  0.0836  0.9685  0.2529
 5561TIP3    H138098   5.333   1.474   0.116 -0.4538 -0.1757 -0.2086
 5561TIP3    H238099   5.312   1.436  -0.029 -0.3471  1.8987 -0.7951
 5562TIP3   OH238100   0.632   1.992   2.502  0.0753 -0.1768  0.0420
 5562TIP3    H138101   0.705   1.930   2.492 -0.5384 -0.8757 -0.2073
 5562TIP3    H238102   0.601   2.006   2.413 -1.2078 -1.2664  0.2904
 5563TIP3   OH238103   3.130   5.820  13.841 -0.0749 -0.3426 -0.3513
 5563TIP3    H138104   3.179   5.748  13.800  0.0796 -0.7752  0.5818
 5563TIP3    H238105   3.197   5.869  13.890 -0.4328 -0.4482  0.2484
 5564TIP3   OH238106   0.467   1.534  13.150 -0.3278  0.4169  0.0304
 5564TIP3    H138107   0.506   1.533  13.063  0.5737  1.5211  0.3939
 5564TIP3    H238108   0.511   1.606  13.195 -1.3647  0.3962  1.1341
 5565TIP3   OH238109   2.144   1.306   5.901 -0.1266  0.3021 -0.2395
 5565TIP3    H138110   2.073   1.349   5.854  0.0949 -0.8895 -1.7517
 5565TIP3    H238111   2.117   1.214   5.907  0.8333  0.0198  0.0402
 5566TIP3   OH238112   2.109   2.065   0.227 -0.4592 -0.1405  0.6243
 5566TIP3    H138113   2.112   2.005   0.302  1.4501 -2.0579 -0.8647
 5566TIP3    H238114   2.058   2.018   0.161  0.1850  0.3166 -0.2132
 5567TIP3   OH238115   6.127   0.087   6.266 -0.4311 -0.6033  0.6220
 5567TIP3    H138116   6.121  -0.007   6.249 -0.7243 -0.4610 -0.0985
 5567TIP3    H238117   6.221   0.103   6.280 -0.4075 -1.0359  0.9757
 5568TIP3   OH238118   5.555   3.410   0.633  0.1732  0.4795  0.2112
 5568TIP3    H138119   5.509   3.474   0.578 -0.2160  0.8015  0.8938
 5568TIP3    H238120   5.504   3.329   0.624  0.7476  0.2188 -0.7656
 5569TIP3   OH238121   3.955   6.156   1.182  0.0766 -0.3603 -0.0397
 5569TIP3    H138122   3.927   6.120   1.267  0.4792  0.1552  0.3178
 5569TIP3    H238123   4.049   6.140   1.179 -0.1830 -1.9791 -1.1917
 5570TIP3   OH238124   3.849   3.284  12.069 -0.3055  0.5478  1.0433
 5570TIP3    H138125   3.910   3.211  12.084  0.3823  1.1878  1.4469
 5570TIP3    H238126   3.825   3.277  11.977 -2.1265 -1.5939  1.5758
 5571TIP3   OH238127   6.267   5.092   3.966 -0.0620 -0.0716 -0.4975
 5571TIP3    H138128   6.358   5.119   3.956 -0.6979  2.2538 -0.7534
 5571TIP3    H238129   6.220   5.139   3.897 -1.4261 -1.4977 -0.6037
 5572TIP3   OH238130   6.497   1.630   4.859 -0.2219  0.1458 -0.4255
 5572TIP3    H138131   6.499   1.548   4.811 -0.5315  0.0292 -0.2407
 5572TIP3    H238132   6.407   1.637   4.892 -0.1615  0.4901 -0.3260
 5573TIP3   OH238133   5.941   4.012  14.979 -0.4899 -0.1366  0.4447
 5573TIP3    H138134   5.950   3.933  14.926 -0.9652  1.1032 -1.5869
 5573TIP3    H238135   5.861   3.997  15.030 -0.3902 -1.0826  0.3459
 5574TIP3   OH238136   0.857   4.641   0.801  0.1979 -0.0955 -0.3843
 5574TIP3    H138137   0.945   4.614   0.776 -0.7823 -2.1359 -1.9445
 5574TIP3    H238138   0.870   4.719   0.855  2.8317  1.0292 -2.4369
 5575TIP3   OH238139   3.475   3.196  17.106 -0.8811 -0.2187 -0.4936
 5575TIP3    H138140   3.545   3.260  17.118 -1.7839  0.6308  0.4163
 5575TIP3    H238141   3.433   3.191  17.192 -1.9897 -0.6613 -1.0536
 5576TIP3   OH238142   1.025   4.586  11.048  0.1547 -0.4838 -0.5108
 5576TIP3    H138143   1.107   4.614  11.007 -0.2050  0.0038 -0.9050
 5576TIP3    H238144   1.052   4.520  11.112  0.8420 -0.4209 -0.7245
 5577TIP3   OH238145   4.686   1.003  16.225  0.0658  0.3791 -0.6565
 5577TIP3    H138146   4.676   1.064  16.298  0.6599 -1.0997  0.7118
 5577TIP3    H238147   4.778   0.977  16.228  0.0804  0.2155 -1.9012
 5578TIP3   OH238148   6.567   0.745   3.070  0.2628  0.3785  0.3786
 5578TIP3    H138149   6.598   0.693   2.996  1.0214 -0.6283  1.3570
 5578TIP3    H238150   6.564   0.835   3.037  2.4667  0.2548 -0.3200
 5579TIP3   OH238151   1.244   2.201   2.840  0.1684  0.4557 -0.1439
 5579TIP3    H138152   1.201   2.279   2.805  1.3235  1.0830 -0.1932
 5579TIP3    H238153   1.192   2.128   2.806 -0.7106  1.1773 -0.3945
 5580TIP3   OH238154   0.250   0.348   0.526  0.2191 -0.2793 -0.0098
 5580TIP3    H138155   0.177   0.288   0.542 -0.0220 -0.3182 -1.1484
 5580TIP3    H238156   0.233   0.383   0.438  0.8794  0.7127  0.2435
 5581TIP3   OH238157   4.421   5.577   4.406 -0.4157  0.1874  0.8412
 5581TIP3    H138158   4.458   5.507   4.353  0.4252 -0.8396  2.6960
 5581TIP3    H238159   4.401   5.647   4.344 -2.4288 -2.0895 -1.2652
 5582TIP3   OH238160   5.523   1.044   1.240  0.0839  0.1042  0.1451
 5582TIP3    H138161   5.448   0.993   1.208 -2.8963  3.4155  1.2842
 5582TIP3    H238162   5.497   1.073   1.327  2.4651  1.8912  0.3596
 5583TIP3   OH238163   1.356   0.413  13.826  0.0665 -0.2602 -0.1879
 5583TIP3    H138164   1.301   0.489  13.808  0.2159 -0.6427 -2.4744
 5583TIP3    H238165   1.325   0.381  13.911 -0.4043  1.9520  0.5269
 5584TIP3   OH238166   2.907   0.197   5.548 -0.1332  0.0600 -0.5593
 5584TIP3    H138167   2.826   0.204   5.598 -0.2438 -2.4052 -0.3026
 5584TIP3    H238168   2.976   0.197   5.614 -0.0043  0.6478 -0.6857
 5585TIP3   OH238169   4.732   0.257  10.576  0.3726  0.3086 -0.0583
 5585TIP3    H138170   4.661   0.321  10.586  1.8957  1.9108  1.1673
 5585TIP3    H238171   4.689   0.172  10.588 -1.2699  1.2508  1.2549
 5586TIP3   OH238172   1.397   5.281   3.197  0.0479  0.0946 -0.3285
 5586TIP3    H138173   1.373   5.331   3.275  0.1190 -0.2255 -0.0962
 5586TIP3    H238174   1.329   5.300   3.133 -0.6959 -0.6034  0.2339
 5587TIP3   OH238175   4.451   3.253   3.206  0.2043 -0.1433  0.5147
 5587TIP3    H138176   4.459   3.175   3.150  2.7911  1.2996 -1.3030
 5587TIP3    H238177   4.494   3.228   3.287 -0.9721 -1.2968  0.8215
 5588TIP3   OH238178   5.367   3.983  12.845  0.0880  0.2955 -0.1473
 5588TIP3    H138179   5.435   4.044  12.817  0.5249 -0.4326 -0.7087
 5588TIP3    H238180   5.297   3.994  12.780  0.5588 -0.4610 -0.7982
 5589TIP3   OH238181   5.366   1.160   4.439 -0.4881 -0.4780  0.5254
 5589TIP3    H138182   5.281   1.121   4.417 -1.5723  1.8864  0.2138
 5589TIP3    H238183   5.378   1.229   4.374  1.1191  0.0457  1.3198
 5590TIP3   OH238184   2.213   3.627  11.374 -0.2097  0.1927 -0.0713
 5590TIP3    H138185   2.274   3.701  11.378  0.7016 -0.5544  0.1270
 5590TIP3    H238186   2.128   3.667  11.354  0.4673  1.1892 -1.0460
 5591TIP3   OH238187   2.163   3.999  14.692 -0.0144 -0.5750  0.0197
 5591TIP3    H138188   2.114   4.077  14.666 -1.1631 -1.8591 -1.9640
 5591TIP3    H238189   2.214   4.027  14.768 -1.4928  1.6817  0.2949
 5592TIP3   OH238190   3.974   2.492   2.959 -0.1519  0.7791  0.0557
 5592TIP3    H138191   4.009   2.574   2.924  1.4986  0.2538  0.3962
 5592TIP3    H238192   3.924   2.519   3.037 -2.3516  1.7584 -1.5717
 5593TIP3   OH238193   6.635   0.273   5.927 -0.3369 -0.0021  0.0471
 5593TIP3    H138194   6.696   0.201   5.941 -1.1691 -0.9655 -1.1469
 5593TIP3    H238195   6.669   0.319   5.851 -0.0834  0.5928  0.5096
 5594TIP3   OH238196   4.966   4.796  10.723 -0.4789  0.1172 -0.1148
 5594TIP3    H138197   5.021   4.857  10.675 -1.0608  0.3069 -0.5507
 5594TIP3    H238198   4.919   4.748  10.655  1.4183 -2.2479  0.1058
 5595TIP3   OH238199   2.517   3.974  17.130  0.3311 -0.0778 -0.5319
 5595TIP3    H138200   2.431   3.963  17.090 -0.9049  0.1059  1.8646
 5595TIP3    H238201   2.505   3.945  17.221  2.5914  0.7184  0.0960
 5596TIP3   OH238202   3.080   6.803   0.959 -0.1187  0.2517  0.4234
 5596TIP3    H138203   3.040   6.888   0.942  1.4127  1.2240  1.3895
 5596TIP3    H238204   3.095   6.765   0.872 -0.2841  1.2381 -0.0453
 5597TIP3   OH238205   0.595   6.351  11.521  0.2850  0.4032  0.0310
 5597TIP3    H138206   0.605   6.257  11.511  1.0111  0.4383  0.3602
 5597TIP3    H238207   0.674   6.388  11.481  0.8272  0.7761  1.3894
 5598TIP3   OH238208   0.436   4.286  16.845  0.0803 -0.0412 -0.4156
 5598TIP3    H138209   0.435   4.242  16.930 -2.7970  0.9540  0.1880
 5598TIP3    H238210   0.436   4.214  16.781  1.3661 -0.8085  0.4004
 5599TIP3   OH238211   3.210   5.933   5.436 -0.5903  0.3824 -0.1525
 5599TIP3    H138212   3.190   5.983   5.357  0.6241 -1.2995 -1.6343
 5599TIP3    H238213   3.261   5.993   5.490  1.2030  0.6947 -2.0588
 5600TIP3   OH238214   5.387   1.674  16.294  0.0312 -0.1068  0.0178
 5600TIP3    H138215   5.313   1.720  16.256  0.0116 -0.6468 -0.6192
 5600TIP3    H238216   5.355   1.585  16.309 -0.2250  0.2615  2.0724
 5601TIP3   OH238217   3.562   0.603  12.303  0.8979  0.6386 -0.0311
 5601TIP3    H138218   3.476   0.566  12.285  1.0901 -1.0812  2.1678
 5601TIP3    H238219   3.595   0.628  12.217 -0.7571 -1.0075 -1.2461
 5602TIP3   OH238220   5.286   3.109  14.625  0.1166  0.6883 -0.8362
 5602TIP3    H138221   5.297   3.139  14.715  1.0491 -1.5196 -0.1576
 5602TIP3    H238222   5.203   3.063  14.625 -0.5319  1.8059 -1.4797
 5603TIP3   OH238223   3.163   3.158  16.623 -0.0708 -0.1585  0.0909
 5603TIP3    H138224   3.080   3.204  16.636  0.1631 -0.4420  3.6229
 5603TIP3    H238225   3.230   3.225  16.634  0.1997 -0.5873  1.1586
 5604TIP3   OH238226   2.065   2.603  16.271  0.1631  0.2561  0.5408
 5604TIP3    H138227   2.066   2.519  16.318 -0.6363 -1.6663 -2.6291
 5604TIP3    H238228   1.973   2.629  16.271 -0.1250 -0.6311 -1.2671
 5605TIP3   OH238229   1.366   1.490   6.320 -0.2578 -0.2758  0.0186
 5605TIP3    H138230   1.422   1.420   6.354 -0.1121 -0.3026 -0.2686
 5605TIP3    H238231   1.425   1.564   6.309 -0.6996  0.3672  1.7272
 5606TIP3   OH238232   1.747   6.166  11.464  0.1545  0.2381  0.0727
 5606TIP3    H138233   1.720   6.084  11.423 -2.5723  0.4730  1.1905
 5606TIP3    H238234   1.796   6.212  11.396  0.4003 -1.6420 -1.0814
 5607TIP3   OH238235   6.165   2.207  15.530 -0.1961 -0.2264  0.1428
 5607TIP3    H138236   6.188   2.185  15.440  1.4085 -1.0218  0.7145
 5607TIP3    H238237   6.078   2.168  15.543  0.5099 -2.0582 -0.3731
 5608TIP3   OH238238   6.591   4.666   4.515 -0.1128  0.2814 -0.9031
 5608TIP3    H138239   6.503   4.628   4.512 -0.5784  1.2347  0.1708
 5608TIP3    H238240   6.638   4.623   4.443 -1.8538  0.7526 -2.3951
 5609TIP3   OH238241   1.488   2.487   4.366 -0.4939  0.2927 -0.6224
 5609TIP3    H138242   1.461   2.568   4.324 -0.2983  0.8017  0.2225
 5609TIP3    H238243   1.407   2.446   4.396 -0.5005  0.8050  0.0762
 5610TIP3   OH238244   4.968   4.018  13.615 -0.1200 -0.0117  0.0042
 5610TIP3    H138245   4.932   4.103  13.640 -0.0651  0.2559 -0.7846
 5610TIP3    H238246   4.909   3.954  13.654  0.1249  0.3763  1.0325
 5611TIP3   OH238247   0.870   0.560  17.019  0.1432 -0.0968 -0.0717
 5611TIP3    H138248   0.950   0.514  17.045  0.0625  0.0684  0.4844
 5611TIP3    H238249   0.856   0.625  17.088  0.1966  0.6966 -0.7930
 5612TIP3   OH238250   4.923   4.237  15.725  0.5013 -0.4284  0.2214
 5612TIP3    H138251   4.913   4.142  15.737  1.1682 -0.8321 -1.9571
 5612TIP3    H238252   4.987   4.263  15.791  0.6019 -1.5547  0.5874
 5613TIP3   OH238253   1.471   6.711   5.255 -0.2200  0.1631 -0.1837
 5613TIP3    H138254   1.401   6.772   5.278  0.6030  0.8376  0.6485
 5613TIP3    H238255   1.463   6.640   5.319 -0.4635 -0.0312 -0.4266
 5614TIP3   OH238256   3.235   5.222  12.564  0.6456  0.0054  0.0076
 5614TIP3    H138257   3.284   5.296  12.599  0.2710  0.3172 -0.1312
 5614TIP3    H238258   3.163   5.209  12.625 -0.2199  0.7800 -0.8111
 5615TIP3   OH238259   0.069   2.688  11.701 -0.3005 -0.1271 -0.0683
 5615TIP3    H138260   0.154   2.725  11.723 -0.2555 -0.3559  0.1460
 5615TIP3    H238261   0.087   2.631  11.626 -0.3520  0.1999 -0.3338
 5616TIP3   OH238262   1.555   1.356  15.493 -0.6413  0.3892  0.0019
 5616TIP3    H138263   1.622   1.288  15.491 -1.5657 -0.5231 -0.6467
 5616TIP3    H238264   1.544   1.376  15.586 -0.2621 -0.2524  0.1923
 5617TIP3   OH238265   3.077   2.314   2.260  0.0657  1.0432  0.2818
 5617TIP3    H138266   3.008   2.380   2.258 -1.1778 -0.1938  0.6538
 5617TIP3    H238267   3.064   2.268   2.343  1.0911  0.5272  0.1692
 5618TIP3   OH238268   3.978   0.972  13.442  0.0777 -0.1406 -0.2750
 5618TIP3    H138269   4.053   0.913  13.437 -1.0556 -1.6016 -0.5875
 5618TIP3    H238270   3.978   1.002  13.533  0.9033 -0.2690 -0.2194
 5619TIP3   OH238271   6.614   4.416   0.412  0.1177 -0.2168  0.0874
 5619TIP3    H138272   6.669   4.359   0.467 -0.5571 -0.4925  0.4833
 5619TIP3    H238273   6.677   4.469   0.364  0.7364 -0.2897  0.7862
 5620TIP3   OH238274   5.502   4.957   3.134  0.2864 -0.5021 -0.7749
 5620TIP3    H138275   5.473   4.945   3.044 -0.4351 -0.1722 -0.5933
 5620TIP3    H238276   5.481   4.875   3.178  0.1654 -0.4804 -0.7902
 5621TIP3   OH238277   0.100   5.699   2.071  0.3829 -0.2843  0.0227
 5621TIP3    H138278   0.124   5.725   2.160  0.2724  2.5467 -0.6908
 5621TIP3    H238279   0.004   5.704   2.069  0.3802 -0.4123 -0.2454
 5622TIP3   OH238280   0.687   4.996   5.001 -0.0122  0.1794  0.1108
 5622TIP3    H138281   0.686   4.918   4.945 -1.1711 -0.5474  1.1135
 5622TIP3    H238282   0.726   5.064   4.946  1.7028 -1.2629 -0.5580
 5623TIP3   OH238283   3.551   5.852   5.642 -0.1696  0.4165 -0.4296
 5623TIP3    H138284   3.477   5.807   5.601  0.9280 -1.5764 -0.3482
 5623TIP3    H238285   3.571   5.925   5.583  0.1543 -1.2379 -2.4519
 5624TIP3   OH238286   5.855   2.117  13.077 -0.2018 -0.1814  0.7607
 5624TIP3    H138287   5.838   2.043  13.018 -3.9268  1.5940 -0.7286
 5624TIP3    H238288   5.879   2.189  13.018 -0.9691  0.8685  1.7012
 5625TIP3   OH238289   5.852   6.526  16.030  0.1324 -0.1249 -0.1130
 5625TIP3    H138290   5.945   6.546  16.022  0.0704  1.0307  1.4914
 5625TIP3    H238291   5.809   6.588  15.971  0.3191 -0.0648 -0.1867
 5626TIP3   OH238292   2.457   4.315   0.319 -0.1580 -0.4359 -0.4578
 5626TIP3    H138293   2.432   4.253   0.388 -0.4749 -1.1876 -1.2372
 5626TIP3    H238294   2.444   4.401   0.360  1.4654 -0.8441  1.0603
 5627TIP3   OH238295   0.023   2.150  13.197  0.1239 -0.0769  0.0082
 5627TIP3    H138296   0.092   2.202  13.238  0.4214  0.4820 -1.1645
 5627TIP3    H238297   0.058   2.126  13.111 -0.7642 -0.6063 -0.2247
 5628TIP3   OH238298   2.722   0.218  12.781  0.4467  0.1694  0.2436
 5628TIP3    H138299   2.677   0.270  12.847 -0.4638 -0.4968  0.1807
 5628TIP3    H238300   2.743   0.136  12.826 -0.0465 -0.2302 -0.2382
 5629TIP3   OH238301   3.578   2.089  16.660  0.3002  0.0127  0.1686
 5629TIP3    H138302   3.637   2.062  16.731  0.2659 -1.2658 -0.2719
 5629TIP3    H238303   3.565   2.183  16.675 -0.3119 -0.3557  2.3042
 5630TIP3   OH238304   2.806   3.776   5.830 -0.0196 -0.2818  0.0599
 5630TIP3    H138305   2.819   3.729   5.912 -0.2768 -1.6325 -0.6460
 5630TIP3    H238306   2.837   3.864   5.847 -2.3157  0.1912  2.3631
 5631TIP3   OH238307   6.795   5.765  15.917 -0.4998  0.9394 -0.2929
 5631TIP3    H138308   6.705   5.779  15.947 -0.4495 -0.5093  0.6161
 5631TIP3    H238309   6.839   5.849  15.935 -0.6347  0.4272  3.2105
 5632TIP3   OH238310   1.570   2.360   0.139 -0.6784 -0.4778  0.0710
 5632TIP3    H138311   1.653   2.362   0.092  0.7689 -1.8833  2.3312
 5632TIP3    H238312   1.508   2.324   0.076  0.4911  0.2481 -1.5728
 5633TIP3   OH238313   1.782   2.792  14.023  0.3515  0.1033 -0.1048
 5633TIP3    H138314   1.847   2.723  14.008  0.3927  0.5638 -2.3567
 5633TIP3    H238315   1.739   2.767  14.104  3.2720 -0.2500  1.4664
 5634TIP3   OH238316   2.294   6.173  15.817 -0.4800  0.1794 -0.7176
 5634TIP3    H138317   2.227   6.175  15.749 -1.3540 -1.2828  0.0678
 5634TIP3    H238318   2.277   6.093  15.866  0.7650  0.6715  0.5944
 5635TIP3   OH238319   2.748   5.864   0.875  0.0883 -0.2110 -0.2398
 5635TIP3    H138320   2.800   5.794   0.837 -0.8276 -1.1347  0.1656
 5635TIP3    H238321   2.799   5.893   0.951  1.0317  0.3847 -1.0720
 5636TIP3   OH238322   5.459   1.946  15.255 -0.6721 -0.3633  0.1987
 5636TIP3    H138323   5.389   2.007  15.235  1.4031  1.5122 -2.0213
 5636TIP3    H238324   5.482   1.964  15.346 -1.3336  0.8776  0.1356
 5637TIP3   OH238325   0.172   4.905  16.665  0.7737 -0.1081  0.4724
 5637TIP3    H138326   0.236   4.961  16.619  0.2950 -0.5844 -0.8322
 5637TIP3    H238327   0.152   4.836  16.602 -1.9643  0.6995  0.3163
 5638TIP3   OH238328   5.173   3.347  11.925  0.0367 -0.1638 -0.1456
 5638TIP3    H138329   5.118   3.296  11.866  1.9221 -0.1977 -1.9947
 5638TIP3    H238330   5.249   3.290  11.942  0.5929  0.7380  0.4779
 5639TIP3   OH238331   1.958   1.201   5.460  0.1610 -0.5700  0.3579
 5639TIP3    H138332   1.867   1.192   5.491  0.5569 -1.2081  1.3770
 5639TIP3    H238333   1.977   1.294   5.472 -1.3222  0.2499 -2.7245
 5640TIP3   OH238334   1.136   3.207  15.536 -0.3306  0.3625 -0.5191
 5640TIP3    H138335   1.194   3.133  15.517 -1.3887 -0.4458 -0.6705
 5640TIP3    H238336   1.116   3.245  15.451 -0.6170  0.1733 -0.5387
 5641TIP3   OH238337   2.197   1.401  11.214  0.4508 -0.8847 -0.3077
 5641TIP3    H138338   2.270   1.394  11.153  1.6165 -0.7523  1.0349
 5641TIP3    H238339   2.158   1.487  11.194  1.7439 -0.1770  0.1076
 5642TIP3   OH238340   5.261   4.134  16.489 -0.5669  0.1896  0.9074
 5642TIP3    H138341   5.177   4.096  16.467  0.1752 -0.5429 -0.8686
 5642TIP3    H238342   5.314   4.061  16.519  0.4786 -0.0808 -1.3434
 5643TIP3   OH238343   0.081   4.764  16.453  0.4941 -0.0179  0.2571
 5643TIP3    H138344   0.136   4.732  16.382  1.4366  0.1152  0.9082
 5643TIP3    H238345  -0.005   4.724  16.437  0.8675 -0.5034 -0.5855
 5644TIP3   OH238346   2.529   1.053  16.164 -0.1780  0.1065 -0.3509
 5644TIP3    H138347   2.535   1.149  16.165 -0.7595  0.1686  1.2939
 5644TIP3    H238348   2.435   1.035  16.169 -0.0500 -0.5416 -0.2184
 5645TIP3   OH238349   6.505   6.323  15.967 -0.8390  0.1409 -0.3322
 5645TIP3    H138350   6.542   6.234  15.972 -4.2843 -1.3575  2.1881
 5645TIP3    H238351   6.458   6.324  15.883  0.3988  0.1547 -1.0453
 5646TIP3   OH238352   4.260   1.647  11.590  0.4320 -0.2315 -0.4035
 5646TIP3    H138353   4.175   1.660  11.549 -0.5328 -0.8229  1.2996
 5646TIP3    H238354   4.279   1.554  11.577  0.5997 -0.1988 -0.3953
 5647TIP3   OH238355   2.724   4.630  12.943  0.3014  0.1064 -0.1798
 5647TIP3    H138356   2.758   4.584  13.020 -0.0615  0.9568  0.5088
 5647TIP3    H238357   2.800   4.678  12.908  0.6710 -0.9629 -0.8768
 5648TIP3   OH238358   1.066   1.075  12.219 -0.0894 -0.0161  0.2670
 5648TIP3    H138359   0.999   1.144  12.221 -0.7957 -0.6521 -0.7388
 5648TIP3    H238360   1.034   1.010  12.282  0.4732  0.4630  1.0634
 5649TIP3   OH238361   6.663   1.228   0.846  0.6364  0.6796 -0.1587
 5649TIP3    H138362   6.688   1.300   0.904 -3.4217  1.0554  1.4285
 5649TIP3    H238363   6.653   1.153   0.904  1.5821 -0.3606 -1.2868
 5650TIP3   OH238364   1.218   4.690   5.039  0.7055 -0.3229 -0.0172
 5650TIP3    H138365   1.226   4.742   5.119 -0.4019 -2.1993  1.4020
 5650TIP3    H238366   1.187   4.604   5.070  0.1105 -1.0615 -2.4801
 5651TIP3   OH238367   1.223   3.389   4.727  0.0935  0.3253  0.5839
 5651TIP3    H138368   1.200   3.351   4.642 -0.8895  1.0687  0.4951
 5651TIP3    H238369   1.187   3.326   4.791  0.8768 -0.2581  0.4663
 5652TIP3   OH238370   0.454   2.170  11.584 -1.1335  0.2246 -0.9063
 5652TIP3    H138371   0.387   2.185  11.650 -1.6631  0.8114 -1.5611
 5652TIP3    H238372   0.537   2.175  11.632 -1.4862  1.1033 -0.3683
 5653TIP3   OH238373   4.973   1.114  13.520 -0.0922  0.4707  0.7315
 5653TIP3    H138374   4.899   1.155  13.565  0.7634  3.4531 -0.3542
 5653TIP3    H238375   4.961   1.137  13.428  0.9760 -0.9705  0.2060
 5654TIP3   OH238376   2.428   1.246  12.556 -0.3953  0.0609  0.1427
 5654TIP3    H138377   2.462   1.198  12.481 -1.0147 -1.6867  0.9207
 5654TIP3    H238378   2.421   1.336  12.526  2.2281  0.0050 -0.9176
 5655TIP3   OH238379   1.497   5.073  14.842  0.3648  0.1328  0.4431
 5655TIP3    H138380   1.547   5.110  14.915  1.8593 -1.9971  0.5848
 5655TIP3    H238381   1.556   5.083  14.767 -0.6189  1.0884 -0.2277
 5656TIP3   OH238382   1.260   6.584  14.034 -0.0056  0.2337  0.3446
 5656TIP3    H138383   1.303   6.526  13.971  1.3151 -0.9824  2.2695
 5656TIP3    H238384   1.198   6.527  14.079  1.7095  0.0942  2.6601
 5657TIP3   OH238385   5.638   5.485   1.663 -0.6892  0.4465  0.4392
 5657TIP3    H138386   5.676   5.410   1.618 -2.6889 -0.4830  0.1641
 5657TIP3    H238387   5.667   5.561   1.613 -2.2644 -0.4946 -2.0765
 5658TIP3   OH238388   4.210   6.150  12.999 -0.4868  0.0780 -0.3932
 5658TIP3    H138389   4.137   6.192  13.044  0.8353  0.6304  1.3271
 5658TIP3    H238390   4.169   6.103  12.926 -2.5693  0.1946  0.6261
 5659TIP3   OH238391   5.375   4.577   3.083 -0.2694 -0.0070 -0.4026
 5659TIP3    H138392   5.336   4.651   3.037 -1.0234  0.2219  0.5516
 5659TIP3    H238393   5.444   4.616   3.136  1.1664 -0.3844 -1.9327
 5660TIP3   OH238394   5.649   3.057  15.006 -0.1718  0.8405 -0.2311
 5660TIP3    H138395   5.737   3.032  14.979  0.7278  0.3364  2.7576
 5660TIP3    H238396   5.623   2.989  15.069 -1.9343  1.9614  0.3379
 5661TIP3   OH238397   1.836   4.388  11.639 -0.0542 -0.5889 -0.2802
 5661TIP3    H138398   1.798   4.301  11.647 -0.1824 -0.5472 -0.4138
 5661TIP3    H238399   1.930   4.373  11.628 -0.0102 -0.6865  0.2076
 5662TIP3   OH238400   1.597   4.077   3.983 -0.4900 -0.0622 -0.0149
 5662TIP3    H138401   1.635   4.112   4.063 -2.7911 -1.0746  1.6621
 5662TIP3    H238402   1.647   3.997   3.966  1.2021  1.0907 -0.7085
 5663TIP3   OH238403   1.108   1.398   5.018 -0.3830 -0.2272  0.4347
 5663TIP3    H138404   1.074   1.324   4.970  3.0507 -1.9191  0.3001
 5663TIP3    H238405   1.120   1.366   5.108  1.6785 -0.1061  0.2482
 5664TIP3   OH238406   3.121   4.998   0.862  0.6962 -0.1902  0.3047
 5664TIP3    H138407   3.121   4.912   0.905  1.7492 -0.1151  0.5015
 5664TIP3    H238408   3.029   5.020   0.850  0.4105 -1.0837  0.7930
 5665TIP3   OH238409   4.654   5.728   5.142  0.0234  0.0318 -0.0901
 5665TIP3    H138410   4.713   5.653   5.143  0.5217  0.4004 -0.7741
 5665TIP3    H238411   4.712   5.804   5.130 -0.6931  0.2250 -3.1413
 5666TIP3   OH238412   2.008   1.192  12.800 -0.0319  0.2592  0.1091
 5666TIP3    H138413   2.029   1.282  12.779 -0.2896 -0.0284 -1.4782
 5666TIP3    H238414   2.092   1.145  12.796  0.0755  0.3751  0.7725
 5667TIP3   OH238415   6.175   3.919  14.601  0.0109  0.4017 -0.3670
 5667TIP3    H138416   6.241   3.988  14.609 -0.6858  1.2072 -1.4877
 5667TIP3    H238417   6.094   3.964  14.580 -0.4863 -0.7487 -1.0193
 5668TIP3   OH238418   0.827   2.146   0.913 -0.3977  0.1004  0.4181
 5668TIP3    H138419   0.905   2.194   0.942 -0.1666 -0.2284  0.3467
 5668TIP3    H238420   0.775   2.211   0.865 -0.2621  0.3716  0.6347
 5669TIP3   OH238421   2.044   2.344   0.278  0.4128  0.2983 -0.2415
 5669TIP3    H138422   1.953   2.340   0.308  1.4185  0.3507  3.3573
 5669TIP3    H238423   2.071   2.253   0.268  0.5113  0.2037  0.7874
 5670TIP3   OH238424   4.608   5.047   2.263 -0.0349  0.1256  0.0946
 5670TIP3    H138425   4.616   4.963   2.218 -0.7949  1.2606 -2.3388
 5670TIP3    H238426   4.672   5.043   2.333  2.7435 -1.0285 -2.3056
 5671TIP3   OH238427   5.519   3.834   4.289  0.3375  0.0176  0.1010
 5671TIP3    H138428   5.530   3.760   4.228 -0.7106 -0.0375 -0.0420
 5671TIP3    H238429   5.575   3.813   4.363  1.6902  0.1154 -0.8687
 5672TIP3   OH238430   3.310   4.002   3.056 -0.3717  0.1348  0.4784
 5672TIP3    H138431   3.233   3.977   3.106 -0.9748  1.5622  0.2939
 5672TIP3    H238432   3.276   4.042   2.976  0.4591  2.6339  1.2690
 5673TIP3   OH238433   0.221   3.876   3.676 -0.2952  0.2567  0.1721
 5673TIP3    H138434   0.178   3.794   3.701 -1.5017  0.4668 -1.0974
 5673TIP3    H238435   0.266   3.857   3.594  0.2989  0.6030  0.4082
 5674TIP3   OH238436   6.059   3.496  16.938  0.0812 -0.1214  0.3468
 5674TIP3    H138437   6.012   3.576  16.912  0.0595 -0.0111  0.7020
 5674TIP3    H238438   6.087   3.514  17.028 -2.0209 -1.4349  1.3346
 5675TIP3   OH238439   6.288   2.833   4.558 -0.1398  0.0624  0.5042
 5675TIP3    H138440   6.256   2.851   4.470  0.6796  0.5254  0.2942
 5675TIP3    H238441   6.310   2.918   4.594  0.0641 -0.1765  0.9585
 5676TIP3   OH238442   4.904   3.794  11.875  0.2649 -0.0119 -0.1091
 5676TIP3    H138443   4.945   3.713  11.903  1.6841 -0.2241 -2.5124
 5676TIP3    H238444   4.974   3.860  11.884  0.0889  0.3101 -1.0276
 5677TIP3   OH238445   5.085   6.045   5.051 -0.6665 -0.2925 -0.1711
 5677TIP3    H138446   5.052   6.000   5.129 -1.0218 -0.2379 -0.2917
 5677TIP3    H238447   5.176   6.014   5.043 -0.8580 -0.8684 -0.1609
 5678TIP3   OH238448   0.498   2.652  13.020 -0.4696 -0.0637 -0.0663
 5678TIP3    H138449   0.441   2.585  13.058  1.6056 -0.6032  2.4630
 5678TIP3    H238450   0.459   2.735  13.047 -0.8239 -0.3823  0.4219
 5679TIP3   OH238451   4.849   0.403   5.221  0.0921 -0.2217  0.3373
 5679TIP3    H138452   4.807   0.416   5.306 -1.8117  0.1780 -0.6078
 5679TIP3    H238453   4.779   0.372   5.164  1.0808  0.4653 -1.3337
 5680TIP3   OH238454   4.751   4.486   1.228 -0.3584 -0.0528  0.1178
 5680TIP3    H138455   4.742   4.411   1.170  3.9103 -0.4107 -0.4401
 5680TIP3    H238456   4.837   4.522   1.207 -1.3126  3.7422  1.8800
 5681TIP3   OH238457   1.628   4.806   3.389  0.3003  0.2685  0.1265
 5681TIP3    H138458   1.566   4.773   3.324 -0.0036 -0.2241  0.6601
 5681TIP3    H238459   1.712   4.767   3.365  0.3846  0.8148 -0.5058
 5682TIP3   OH238460   1.091   2.566  15.109 -0.1927 -0.5954 -0.3239
 5682TIP3    H138461   1.055   2.613  15.185  0.5299  0.0137 -0.3518
 5682TIP3    H238462   1.047   2.606  15.034 -1.3565 -1.6048 -0.2098
 5683TIP3   OH238463   3.603   6.640  16.101 -0.2032 -0.6816  0.0222
 5683TIP3    H138464   3.628   6.698  16.029  0.9191 -0.8633  0.2478
 5683TIP3    H238465   3.512   6.617  16.082  0.1567 -0.9682 -1.5139
 5684TIP3   OH238466   2.423   3.969  12.827 -0.3521  0.4987 -0.2871
 5684TIP3    H138467   2.427   3.874  12.837 -0.3939  0.5265 -0.0171
 5684TIP3    H238468   2.512   3.999  12.843 -0.8777  0.7940  2.5468
 5685TIP3   OH238469   0.614   5.251  14.470  0.0946  0.1372 -0.0221
 5685TIP3    H138470   0.643   5.331  14.425  0.4481  0.3206  0.5303
 5685TIP3    H238471   0.533   5.277  14.514 -0.3519 -0.0907 -0.6835
 5686TIP3   OH238472   6.270   4.304  15.241  0.2598  0.5109  0.2791
 5686TIP3    H138473   6.356   4.293  15.282 -0.2112 -2.8658  0.6412
 5686TIP3    H238474   6.287   4.358  15.163  2.7343 -0.1832  0.2502
 5687TIP3   OH238475   6.426   1.109  11.120 -0.1352  0.0274 -0.2861
 5687TIP3    H138476   6.484   1.034  11.136 -0.0745 -0.1170 -1.1102
 5687TIP3    H238477   6.388   1.129  11.205  0.5860 -0.3310  0.1270
 5688TIP3   OH238478   4.266   2.845  14.841 -0.1117  0.3656 -0.5870
 5688TIP3    H138479   4.229   2.917  14.892 -0.7972 -0.7850  0.6139
 5688TIP3    H238480   4.337   2.885  14.791  0.0428  1.7163  0.6363
 5689TIP3   OH238481   3.267   0.408  15.547  0.0161  0.5740 -0.0574
 5689TIP3    H138482   3.323   0.454  15.609  1.1957 -2.3873  1.2222
 5689TIP3    H238483   3.179   0.413  15.585  0.4643  0.1456  1.0645
 5690TIP3   OH238484   2.902   6.565  12.087  0.2387 -0.8491  0.4179
 5690TIP3    H138485   2.981   6.609  12.118 -0.7626  1.1475  0.2785
 5690TIP3    H238486   2.875   6.511  12.161 -0.4561  1.5547  2.0651
 5691TIP3   OH238487   3.082   0.786   1.372  0.2815  0.2626  0.0550
 5691TIP3    H138488   3.072   0.775   1.467  0.2847 -1.3176 -0.0934
 5691TIP3    H238489   3.176   0.793   1.358  0.3144  0.0246  0.1427
 5692TIP3   OH238490   2.849   1.750  17.061  0.2976  0.3721 -0.7564
 5692TIP3    H138491   2.943   1.752  17.042  0.3622  1.2333 -0.4019
 5692TIP3    H238492   2.820   1.839  17.044 -0.0131  0.6891  1.2364
 5693TIP3   OH238493   3.444   4.218  15.856 -0.2387  0.0883  0.0308
 5693TIP3    H138494   3.487   4.234  15.772  0.2925 -0.1021  0.2602
 5693TIP3    H238495   3.517   4.205  15.918 -0.6018  0.9045  0.6547
 5694TIP3   OH238496   2.839   2.227   4.487  0.3268 -0.1817 -0.0225
 5694TIP3    H138497   2.870   2.300   4.433 -0.6443  1.0565  1.0046
 5694TIP3    H238498   2.753   2.205   4.450  0.6640 -0.8939 -0.3955
 5695TIP3   OH238499   5.117   1.198  15.174 -0.1678 -0.0123 -0.1212
 5695TIP3    H138500   5.159   1.117  15.147 -0.7854  0.1878 -1.7843
 5695TIP3    H238501   5.156   1.266  15.119  0.5660  0.8962  1.4614
 5696TIP3   OH238502   2.947   3.833   3.407  0.0545 -0.3112  0.1195
 5696TIP3    H138503   2.871   3.858   3.459 -0.1887 -0.6039 -0.0872
 5696TIP3    H238504   3.016   3.818   3.471 -1.0597 -3.7753  0.7135
 5697TIP3   OH238505   1.797   3.199   6.431 -0.2023  0.1897 -0.1219
 5697TIP3    H138506   1.718   3.253   6.425  0.0280  0.5467  0.0378
 5697TIP3    H238507   1.869   3.259   6.415  0.0908  0.0540  0.6365
 5698TIP3   OH238508   3.618   2.384  16.733  0.1728  0.4575 -0.0871
 5698TIP3    H138509   3.554   2.397  16.663  1.7755  0.1161 -1.7230
 5698TIP3    H238510   3.621   2.468  16.779  0.2325  1.2647 -1.4902
 5699TIP3   OH238511   4.474   3.436   0.997  0.3625 -0.0987  0.1490
 5699TIP3    H138512   4.418   3.390   0.934  0.0392  0.6835 -0.1583
 5699TIP3    H238513   4.557   3.448   0.951 -0.0450  0.9422 -0.3571
 5700TIP3   OH238514   6.463   0.544  15.864 -0.4903  0.5324 -0.1049
 5700TIP3    H138515   6.503   0.475  15.917  1.2261  1.0628 -0.6446
 5700TIP3    H238516   6.473   0.514  15.773  0.1884  1.4228 -0.3410
 5701TIP3   OH238517   0.565   1.757   2.216 -0.2543 -0.7553  0.0081
 5701TIP3    H138518   0.529   1.770   2.304 -1.3902 -0.4915 -0.4799
 5701TIP3    H238519   0.659   1.762   2.228 -0.4355  1.7971  0.8224
 5702TIP3   OH238520   3.687   4.306  11.960  0.0651  0.1097  0.2589
 5702TIP3    H138521   3.743   4.368  12.006  0.6771  0.3464 -0.7768
 5702TIP3    H238522   3.713   4.314  11.868 -0.2584 -1.2518  0.0323
 5703TIP3   OH238523   2.429   1.043   5.287  0.2465  0.0341  0.3105
 5703TIP3    H138524   2.404   1.045   5.194  1.5967 -2.1537 -0.1631
 5703TIP3    H238525   2.522   1.018   5.286 -0.0362 -1.2826  2.2756
 5704TIP3   OH238526   5.898   2.264   3.166 -0.6572 -0.8552  0.4444
 5704TIP3    H138527   5.978   2.247   3.215 -1.0811 -1.4870  0.9306
 5704TIP3    H238528   5.879   2.181   3.122 -0.4350 -0.3842 -0.5846
 5705TIP3   OH238529   3.615   6.459   1.214  0.0754 -0.7434 -0.4057
 5705TIP3    H138530   3.670   6.427   1.143  1.7003  1.3602 -0.2020
 5705TIP3    H238531   3.675   6.469   1.288 -1.0394 -0.4001  0.4845
 5706TIP3   OH238532   2.631   5.784  13.020  0.1150 -0.0380 -0.1516
 5706TIP3    H138533   2.663   5.874  13.014 -0.8055  0.3063  0.0138
 5706TIP3    H238534   2.646   5.760  13.111  0.1273  0.0342 -0.1339
 5707TIP3   OH238535   6.436   4.238   6.457  0.5899  0.1571  0.3182
 5707TIP3    H138536   6.519   4.255   6.413 -0.3220  0.1140 -1.5216
 5707TIP3    H238537   6.394   4.170   6.404 -1.3121  1.3106  0.2206
 5708TIP3   OH238538   4.090   1.598   0.128  0.0200 -0.1608 -0.1890
 5708TIP3    H138539   3.995   1.585   0.121 -0.2645  0.6745  1.6631
 5708TIP3    H238540   4.125   1.510   0.140 -0.4306 -0.5387 -1.4508
 5709TIP3   OH238541   2.921   5.645  12.858  0.0369  0.5171  0.0220
 5709TIP3    H138542   2.926   5.667  12.952  1.1748 -1.8253  0.5698
 5709TIP3    H238543   2.849   5.582  12.853  1.6503 -1.3777 -0.1978
 5710TIP3   OH238544   4.846   3.429   4.191  0.3724  0.0311 -0.6719
 5710TIP3    H138545   4.759   3.390   4.193  0.0442  0.7408 -0.8153
 5710TIP3    H238546   4.894   3.379   4.125 -0.0425 -0.1307 -0.8504
 5711TIP3   OH238547   4.072   6.594   5.141 -0.2367 -0.2761 -0.5838
 5711TIP3    H138548   4.010   6.594   5.068  0.4550 -0.7428 -1.1897
 5711TIP3    H238549   4.048   6.517   5.193  0.0864 -0.7110 -1.0582
 5712TIP3   OH238550   1.838   4.480   0.873  0.5001 -0.0104 -0.2625
 5712TIP3    H138551   1.785   4.401   0.873 -0.1503  0.3834 -1.9998
 5712TIP3    H238552   1.794   4.539   0.935 -1.2019  0.3414 -1.7213
 5713TIP3   OH238553   1.805   2.116  13.360  0.3707  0.0949 -0.1968
 5713TIP3    H138554   1.791   2.125  13.266  3.9649 -0.3001 -0.8921
 5713TIP3    H238555   1.821   2.205  13.392 -2.2707  0.4337  0.4360
 5714TIP3   OH238556   1.926   5.163  14.130  0.2527 -0.4828  0.0892
 5714TIP3    H138557   1.993   5.096  14.144  0.1578 -0.7202 -0.5694
 5714TIP3    H238558   1.964   5.243  14.169  1.9398 -0.0360 -2.2519
 5715TIP3   OH238559   2.472   0.628  13.210 -0.2340 -0.1904 -0.1030
 5715TIP3    H138560   2.519   0.696  13.161 -0.2160 -0.5965 -0.6514
 5715TIP3    H238561   2.514   0.629  13.297  0.4824 -0.2246 -0.4376
 5716TIP3   OH238562   1.046   6.041  14.780 -0.1350  0.1844 -0.3137
 5716TIP3    H138563   1.005   6.118  14.740  1.0954  1.2594  0.4038
 5716TIP3    H238564   1.088   6.075  14.859 -1.0903 -1.5790  1.0331
 5717TIP3   OH238565   0.872   2.680   5.473 -0.0225  1.1387  0.0708
 5717TIP3    H138566   0.870   2.585   5.477  2.8867  0.9407 -0.7315
 5717TIP3    H238567   0.837   2.709   5.557 -0.6889 -0.6297  0.4349
 5718TIP3   OH238568   1.393   5.200   5.277  0.7156  0.0132 -0.7553
 5718TIP3    H138569   1.433   5.255   5.210  1.8870  1.4915  1.0828
 5718TIP3    H238570   1.299   5.207   5.260  0.9163  1.4466 -1.4180
 5719TIP3   OH238571   6.738   0.663   5.383 -0.6288 -0.5562 -0.1000
 5719TIP3    H138572   6.745   0.689   5.291 -1.2738  1.0447  0.2640
 5719TIP3    H238573   6.686   0.732   5.423 -0.5940 -1.3757  1.4225
 5720TIP3   OH238574   1.989   4.010   1.350 -0.3099  0.3261  0.4820
 5720TIP3    H138575   2.082   4.027   1.333  0.3666 -1.9577  1.5775
 5720TIP3    H238576   1.961   3.957   1.276 -0.2198 -0.5305  1.0441
 5721TIP3   OH238577   1.264   1.094   2.627 -0.2831 -0.2613  0.8043
 5721TIP3    H138578   1.231   1.178   2.596  0.2812 -0.7056 -1.1807
 5721TIP3    H238579   1.359   1.099   2.615 -0.3779 -1.8210 -1.2963
 5722TIP3   OH238580   1.488   4.561  16.805  0.5608  0.1953 -0.2516
 5722TIP3    H138581   1.555   4.611  16.852 -1.0201  1.2470  0.9896
 5722TIP3    H238582   1.517   4.562  16.714  3.6915 -1.8482  0.5508
 5723TIP3   OH238583   2.181   2.530   2.848 -0.2901 -0.1467 -0.2706
 5723TIP3    H138584   2.164   2.624   2.842  0.5761  0.1057  0.7819
 5723TIP3    H238585   2.211   2.517   2.938 -2.6991 -1.8348  0.3862
 5724TIP3   OH238586   5.509   5.530   5.387  0.1124  0.2064 -0.0022
 5724TIP3    H138587   5.463   5.500   5.309 -0.5045  0.9215  0.0815
 5724TIP3    H238588   5.447   5.517   5.458 -0.1697  1.6578  0.0401
 5725TIP3   OH238589   3.166   1.106   4.015  0.1430  0.1915 -0.1430
 5725TIP3    H138590   3.116   1.024   4.016 -1.4261  1.0437 -1.6863
 5725TIP3    H238591   3.255   1.079   3.992 -0.2550 -1.1231 -0.2657
 5726TIP3   OH238592   5.347   2.296   0.288  0.2352  0.1122 -0.2343
 5726TIP3    H138593   5.293   2.353   0.233  1.3376  0.6934 -0.7333
 5726TIP3    H238594   5.283   2.241   0.334 -0.8668  1.5198  0.0286
 5727TIP3   OH238595   1.405   2.947  11.406  0.1342 -0.0985 -0.3803
 5727TIP3    H138596   1.419   2.919  11.497 -1.2758 -0.8631 -0.3664
 5727TIP3    H238597   1.325   2.902  11.380 -0.7391  1.8478 -1.2545
 5728TIP3   OH238598   5.876   0.056   2.700 -0.7915 -0.4147 -0.7069
 5728TIP3    H138599   5.971   0.069   2.698 -0.6007 -1.6973 -1.3586
 5728TIP3    H238600   5.840   0.139   2.669  0.0689  0.3834  0.3535
 5729TIP3   OH238601   4.502   4.424  16.402  0.0841 -0.0914 -0.4545
 5729TIP3    H138602   4.468   4.372  16.330  1.3463 -0.8065 -0.5584
 5729TIP3    H238603   4.426   4.471  16.436 -0.9848 -1.5846 -0.7034
 5730TIP3   OH238604   3.342   1.042   0.701  0.2428  0.1164 -0.2121
 5730TIP3    H138605   3.410   1.016   0.639 -0.4684 -0.1707 -0.9005
 5730TIP3    H238606   3.261   1.036   0.650 -0.7536 -2.8984  1.4916
 5731TIP3   OH238607   0.113   0.064  16.355 -0.1288 -0.0523  0.1240
 5731TIP3    H138608   0.077   0.136  16.303 -0.2148 -0.2441 -0.0844
 5731TIP3    H238609   0.097   0.089  16.446  1.8222  1.2712  0.1774
 5732TIP3   OH238610   6.218   0.059  11.734  0.3971  0.2000  0.0371
 5732TIP3    H138611   6.140   0.078  11.681  1.1031 -1.0069 -1.5100
 5732TIP3    H238612   6.229   0.136  11.789 -2.4776 -0.0063  1.0481
 5733TIP3   OH238613   6.443   0.645   6.365  0.0577 -0.2412  0.1373
 5733TIP3    H138614   6.535   0.620   6.357 -0.1189 -0.5616 -1.1174
 5733TIP3    H238615   6.407   0.587   6.431  1.1477  1.0664  1.9687
 5734TIP3   OH238616   0.043   2.936   3.300  0.3527  0.2418 -0.3216
 5734TIP3    H138617   0.101   3.010   3.319  0.0694  0.3358  0.2107
 5734TIP3    H238618  -0.028   2.946   3.363  0.0721 -0.2172 -0.5672
 5735TIP3   OH238619   4.310   4.533  12.370  0.3876 -0.1170  0.6796
 5735TIP3    H138620   4.248   4.552  12.299  2.0025 -0.2199 -0.8292
 5735TIP3    H238621   4.324   4.618  12.413 -0.0319  0.1003  0.3957
 5736TIP3   OH238622   6.747   1.614  12.775 -0.4881 -0.1082 -0.0144
 5736TIP3    H138623   6.802   1.582  12.703  0.9957  1.5720  0.3020
 5736TIP3    H238624   6.808   1.623  12.849 -1.1916  1.7094  0.3759
 5737TIP3   OH238625   0.912   5.317  14.237  0.2895 -0.3581  0.1011
 5737TIP3    H138626   0.967   5.243  14.263 -0.3002 -0.8745 -0.0937
 5737TIP3    H238627   0.953   5.350  14.157  1.3171  0.3737  0.8970
 5738TIP3   OH238628   2.523   1.703  15.271  0.6345  0.2755  0.0428
 5738TIP3    H138629   2.604   1.751  15.252  1.1570 -0.0618  1.3243
 5738TIP3    H238630   2.552   1.615  15.293 -0.0111  0.3273  1.1722
 5739TIP3   OH238631   4.089   0.407   3.584  0.1752 -0.3309 -0.1123
 5739TIP3    H138632   4.121   0.408   3.674  1.3676  0.1955 -0.5139
 5739TIP3    H238633   3.996   0.426   3.591 -0.2947 -2.7496  1.1670
 5740TIP3   OH238634   4.478   2.819   5.253 -0.6578 -0.6008  0.3444
 5740TIP3    H138635   4.498   2.893   5.195 -0.3979  0.9892  2.3670
 5740TIP3    H238636   4.415   2.767   5.204  0.3157  0.0897 -1.7879
 5741TIP3   OH238637   0.766   0.276  11.319 -0.1069  0.1724  0.2354
 5741TIP3    H138638   0.705   0.321  11.261  0.4605  0.3779 -0.2093
 5741TIP3    H238639   0.717   0.262  11.400 -0.4761  1.0635  0.1708
 5742TIP3   OH238640   3.911   3.219   4.066  0.7302 -0.6065  0.1391
 5742TIP3    H138641   3.927   3.177   4.150  0.5145  0.1571  0.5733
 5742TIP3    H238642   3.877   3.149   4.010 -1.9385 -0.5740  1.5386
 5743TIP3   OH238643   2.967   1.937   5.647  0.1830  0.2153  0.4074
 5743TIP3    H138644   2.911   1.862   5.627  1.4295 -0.6785  0.1557
 5743TIP3    H238645   3.014   1.954   5.566  2.7546 -1.2507  1.4711
 5744TIP3   OH238646   0.106   3.261   6.026  0.1107  0.3226 -0.2549
 5744TIP3    H138647   0.193   3.290   6.055 -0.2546  0.0309  1.1693
 5744TIP3    H238648   0.109   3.166   6.032 -0.0016  0.2521 -1.1499
 5745TIP3   OH238649   0.745   1.050  16.828 -0.1680  0.0232 -0.1698
 5745TIP3    H138650   0.688   1.105  16.883  0.4524 -1.5574  2.2092
 5745TIP3    H238651   0.832   1.086  16.841 -0.3315  1.6455 -2.8110
 5746TIP3   OH238652   4.079   5.830   3.489  0.1884 -0.1270  0.0993
 5746TIP3    H138653   4.100   5.753   3.436  0.9044  0.9493 -1.2184
 5746TIP3    H238654   3.990   5.854   3.462 -0.1125 -0.5824  0.6536
 5747TIP3   OH238655   4.806   2.547  10.480 -0.2932 -0.3509 -0.3649
 5747TIP3    H138656   4.850   2.503  10.553  0.4280 -1.2166 -1.3008
 5747TIP3    H238657   4.723   2.578  10.517 -0.5240 -1.9148  0.4869
 5748TIP3   OH238658   0.498   4.169   6.625 -0.4212 -0.0125 -0.1182
 5748TIP3    H138659   0.544   4.087   6.609 -1.4412 -0.7310  0.5485
 5748TIP3    H238660   0.547   4.234   6.574  0.5360 -0.9806 -0.4680
 5749TIP3   OH238661   6.436   3.362  16.966  0.2288  0.1933 -0.6136
 5749TIP3    H138662   6.418   3.454  16.985  2.3724  0.4098  0.6819
 5749TIP3    H238663   6.355   3.316  16.987 -0.3907  1.6018  0.1969
 5750TIP3   OH238664   5.131   2.918   5.777  0.4047 -0.6938 -0.4016
 5750TIP3    H138665   5.127   2.987   5.710 -1.6298 -0.6704 -0.3136
 5750TIP3    H238666   5.139   2.966   5.860  1.1341 -0.6632 -0.4806
 5751TIP3   OH238667   0.298   1.909  12.239  0.2836  0.2537 -0.1507
 5751TIP3    H138668   0.288   1.994  12.198  3.6692  0.8893  0.0265
 5751TIP3    H238669   0.368   1.866  12.190  1.2614 -0.8443  2.0266
 5752TIP3   OH238670   5.280   0.898   3.123  0.4533 -0.0342  0.1528
 5752TIP3    H138671   5.294   0.978   3.174 -1.5790 -0.0591  0.8176
 5752TIP3    H238672   5.320   0.917   3.038 -2.2377  2.7728 -0.6511
 5753TIP3   OH238673   2.000   1.915   5.261 -0.3568 -0.4005  0.1024
 5753TIP3    H138674   2.038   1.991   5.217 -0.1092 -1.7726 -2.2011
 5753TIP3    H238675   1.953   1.952   5.336  1.8014  1.7599  0.5201
 5754TIP3   OH238676   4.790   5.534  13.481  0.2141  0.3123  1.0218
 5754TIP3    H138677   4.776   5.468  13.548  1.3080 -0.4627  0.4948
 5754TIP3    H238678   4.787   5.617  13.529 -2.0142  0.0017  1.5690
 5755TIP3   OH238679   2.187   6.753  17.061  0.4825 -0.1913 -0.1761
 5755TIP3    H138680   2.093   6.748  17.048  0.6083 -0.2780 -1.1466
 5755TIP3    H238681   2.200   6.744  17.156 -0.4199 -0.9642 -0.1214
 5756TIP3   OH238682   4.724   0.527   5.460  0.2637 -0.3086 -0.9906
 5756TIP3    H138683   4.636   0.526   5.498  0.0040 -0.1882 -1.5783
 5756TIP3    H238684   4.773   0.591   5.513  0.1577 -0.7856 -0.3156
 5757TIP3   OH238685   2.886   2.715  14.490  0.0585  0.2675 -0.2277
 5757TIP3    H138686   2.854   2.626  14.482 -2.6398  1.1627 -0.3909
 5757TIP3    H238687   2.958   2.721  14.426 -0.3404 -1.4889 -0.8859
 5758TIP3   OH238688   0.297   5.577   2.292  0.0351 -0.1763  0.1654
 5758TIP3    H138689   0.274   5.535   2.375  2.1643 -0.5694  0.6048
 5758TIP3    H238690   0.321   5.667   2.317  0.4037 -0.2101 -0.0610
 5759TIP3   OH238691   1.236   6.401   3.968 -0.1376 -0.0328 -0.1457
 5759TIP3    H138692   1.328   6.424   3.981 -0.2917  0.5175  0.0045
 5759TIP3    H238693   1.195   6.415   4.053 -0.0104 -2.0985  0.3114
 5760TIP3   OH238694   5.189   0.021   5.720 -0.7054 -0.1165  0.6138
 5760TIP3    H138695   5.126   0.081   5.681  2.7014  2.7198 -1.1344
 5760TIP3    H238696   5.204   0.057   5.808 -1.9492 -1.2345  1.3168
 5761TIP3   OH238697   1.124   0.717   2.160  0.1531  0.2781 -0.1458
 5761TIP3    H138698   1.115   0.636   2.210  2.7804  0.8789  1.5009
 5761TIP3    H238699   1.098   0.786   2.220  1.2786  0.8589 -0.2942
 5762TIP3   OH238700   4.867   1.544   1.208 -0.0066  0.4427 -0.2665
 5762TIP3    H138701   4.852   1.450   1.216 -2.1759  0.5706 -1.9571
 5762TIP3    H238702   4.944   1.552   1.153  0.2825 -0.3435  0.0201
 5763TIP3   OH238703   0.512   5.633  13.026  0.1454  0.7426  0.0210
 5763TIP3    H138704   0.452   5.642  13.100 -0.9078 -0.2683 -0.6682
 5763TIP3    H238705   0.535   5.722  13.002 -3.5457  1.4176 -1.6166
 5764TIP3   OH238706   0.319   5.106   0.407 -0.1445  0.0341 -0.4722
 5764TIP3    H138707   0.408   5.112   0.441 -0.0390 -0.9985 -0.5281
 5764TIP3    H238708   0.317   5.023   0.360 -1.5781 -0.7277  0.8462
 5765TIP3   OH238709   5.825   3.857   5.284  0.6229  0.1212 -0.4068
 5765TIP3    H138710   5.856   3.885   5.370 -1.3109 -1.0088  0.7285
 5765TIP3    H238711   5.872   3.775   5.267  0.1104 -0.3003  0.1620
 5766TIP3   OH238712   6.499   4.518  11.586  0.0414 -0.0992  0.2952
 5766TIP3    H138713   6.437   4.489  11.652 -1.8763  1.0938 -0.8646
 5766TIP3    H238714   6.500   4.448  11.521  0.9197 -0.6847  0.9213
 5767TIP3   OH238715   6.541   0.653  11.590  0.5404 -0.1667  0.2247
 5767TIP3    H138716   6.523   0.582  11.527 -1.7159  0.3180  0.2366
 5767TIP3    H238717   6.546   0.732  11.536  0.8527 -0.0372  0.4386
 5768TIP3   OH238718   4.284   0.694  14.755 -0.3031  0.1728  0.5012
 5768TIP3    H138719   4.224   0.619  14.747 -0.5700  0.3192  1.1049
 5768TIP3    H238720   4.349   0.666  14.819 -1.3763  1.0760  2.0426
 5769TIP3   OH238721   6.791   3.589  13.851  0.4175 -0.3338 -0.5293
 5769TIP3    H138722   6.726   3.621  13.913  0.2135  0.9670 -1.3772
 5769TIP3    H238723   6.743   3.580  13.768  1.4235  1.2690 -1.3322
 5770TIP3   OH238724   5.737   4.638  13.244  0.4881 -0.4816  0.0312
 5770TIP3    H138725   5.737   4.591  13.328 -0.4731 -0.0145  0.3052
 5770TIP3    H238726   5.680   4.585  13.188  1.3205 -0.9208 -0.4064
 5771TIP3   OH238727   0.189   3.670  15.020 -0.3108 -0.8539 -0.1487
 5771TIP3    H138728   0.238   3.666  14.938  0.0886  0.2592  0.0124
 5771TIP3    H238729   0.132   3.593  15.018  1.3388 -2.1346 -0.4023
 5772TIP3   OH238730   6.245   0.171   0.897  0.0042  0.1206  0.1693
 5772TIP3    H138731   6.223   0.215   0.979 -0.9616  0.3214 -0.1794
 5772TIP3    H238732   6.316   0.223   0.860  1.0597 -0.4829  1.2841
 5773TIP3   OH238733   0.209   4.913  13.816  0.7343  0.1462  0.3147
 5773TIP3    H138734   0.160   4.925  13.897  2.3277 -0.1833  1.3867
 5773TIP3    H238735   0.285   4.970  13.825  0.8733  0.2076 -1.0235
 5774TIP3   OH238736   1.080   3.498  16.543  0.5721  0.2630 -0.2436
 5774TIP3    H138737   0.993   3.469  16.570 -0.0941  0.7311 -1.7519
 5774TIP3    H238738   1.089   3.586  16.580  1.3213 -0.6109  1.7330
 5775TIP3   OH238739   3.801   3.073   3.322  0.2811  0.5363 -0.5188
 5775TIP3    H138740   3.728   3.016   3.298 -0.8706  2.0947 -0.8125
 5775TIP3    H238741   3.878   3.029   3.285 -0.6707 -0.3650 -1.5081
 5776TIP3   OH238742   3.465   5.599  11.620 -0.1423 -0.3068 -0.0288
 5776TIP3    H138743   3.425   5.531  11.566 -0.6828 -0.7728  0.9204
 5776TIP3    H238744   3.511   5.551  11.689 -0.8121  0.2864  0.8558
 5777TIP3   OH238745   1.253   4.733   2.452 -0.0505 -0.4721 -0.4415
 5777TIP3    H138746   1.211   4.707   2.534 -0.1506 -1.6707 -0.8557
 5777TIP3    H238747   1.221   4.822   2.436  2.2811  1.0243  2.3277
 5778TIP3   OH238748   3.554   2.553   1.844 -0.3234 -0.8007 -0.3516
 5778TIP3    H138749   3.594   2.630   1.803 -0.6168 -1.3310 -1.6637
 5778TIP3    H238750   3.503   2.589   1.917  0.4077  0.1331 -0.2782
 5779TIP3   OH238751   3.567   5.848   0.105 -0.5664 -0.0289  0.2761
 5779TIP3    H138752   3.605   5.860   0.017  1.9071  0.4614  1.3223
 5779TIP3    H238753   3.617   5.908   0.160 -2.0924 -0.3171  2.0351
 5780TIP3   OH238754   4.081   6.740   5.499  0.6013  0.5070 -0.2727
 5780TIP3    H138755   4.177   6.741   5.495  0.6013  1.0882 -0.3072
 5780TIP3    H238756   4.060   6.659   5.545  1.1688  0.9073  0.7526
 5781TIP3   OH238757   2.270   3.203  12.512  0.4947 -0.2917 -0.3336
 5781TIP3    H138758   2.322   3.177  12.588 -1.2492 -3.0875  0.0963
 5781TIP3    H238759   2.204   3.263  12.548  1.1310  0.2966 -0.1363
 5782TIP3   OH238760   6.365   0.647   4.818 -0.0988 -0.5033  0.1322
 5782TIP3    H138761   6.423   0.711   4.776 -0.6023 -0.9381 -1.2528
 5782TIP3    H238762   6.338   0.690   4.899 -0.5338  1.1216 -0.8275
 5783TIP3   OH238763   0.192   3.009   1.929  0.4659  0.5108  0.0379
 5783TIP3    H138764   0.182   3.083   1.988  2.1054  1.2175 -0.5245
 5783TIP3    H238765   0.117   2.952   1.950 -0.5933  2.0856  0.7791
 5784TIP3   OH238766   2.969   5.193  12.688 -0.9581 -0.3522 -0.1082
 5784TIP3    H138767   2.951   5.107  12.728  0.1200 -0.0840  1.0407
 5784TIP3    H238768   2.883   5.233  12.677 -1.4146 -1.2301  0.1612
 5785TIP3   OH238769   2.937   5.931  14.842  0.0161 -0.3046 -0.3271
 5785TIP3    H138770   2.970   5.957  14.757 -1.5412  2.2863 -0.2409
 5785TIP3    H238771   2.866   5.993  14.861  0.8889 -0.1463  3.2400
 5786TIP3   OH238772   2.623   1.575  12.314 -0.9462  0.2119  0.2099
 5786TIP3    H138773   2.543   1.536  12.352 -1.8060  1.3568 -0.3518
 5786TIP3    H238774   2.618   1.667  12.340 -1.1911  0.8843 -2.0359
 5787TIP3   OH238775   4.814   2.148   0.304 -0.1562 -0.5787 -0.3261
 5787TIP3    H138776   4.732   2.185   0.272  0.2214  0.3192 -0.2915
 5787TIP3    H238777   4.882   2.193   0.253  0.4489  0.6018  1.4222
 5788TIP3   OH238778   6.471   5.891   3.946 -0.1421 -0.2314 -0.5939
 5788TIP3    H138779   6.388   5.912   3.990 -0.1662 -1.4288 -0.0266
 5788TIP3    H238780   6.446   5.876   3.855 -0.0510  2.5821 -1.1854
 5789TIP3   OH238781   4.758   5.505  12.781 -0.3989  0.0283 -0.5356
 5789TIP3    H138782   4.698   5.517  12.708  0.9446 -1.1484 -1.9141
 5789TIP3    H238783   4.763   5.591  12.823 -0.3410  1.0556 -2.5458
 5790TIP3   OH238784   4.289   6.297  11.472 -0.0037  0.2035 -0.2151
 5790TIP3    H138785   4.211   6.241  11.475 -1.9558  2.6386 -1.8273
 5790TIP3    H238786   4.319   6.291  11.382  2.1207 -1.1354  0.5114
 5791TIP3   OH238787   6.538   2.755   5.099 -0.2602  0.2537 -0.5110
 5791TIP3    H138788   6.563   2.673   5.056 -0.5290  0.5664 -1.2764
 5791TIP3    H238789   6.555   2.823   5.034  1.1054  0.9642  0.5292
 5792TIP3   OH238790   2.883   3.320   2.374 -0.2944  0.7660  0.2033
 5792TIP3    H138791   2.958   3.380   2.368  0.3664 -0.1593 -1.5163
 5792TIP3    H238792   2.827   3.358   2.441  0.3143  3.0864 -0.5137
 5793TIP3   OH238793   1.362   3.812  15.512  0.1534 -0.0307 -0.3314
 5793TIP3    H138794   1.387   3.904  15.508  2.0015 -0.3840  1.1538
 5793TIP3    H238795   1.392   3.775  15.429  2.6121  0.0881  0.3992
 5794TIP3   OH238796   0.870   2.964   0.293 -0.1883  0.4182 -0.3968
 5794TIP3    H138797   0.910   3.042   0.331  2.0676 -1.0698  0.5060
 5794TIP3    H238798   0.936   2.930   0.233 -0.6890 -1.3491  0.0047
 5795TIP3   OH238799   3.266   6.331   0.013 -0.3759  0.6134 -0.3739
 5795TIP3    H138800   3.220   6.274  -0.048 -1.9582 -2.0058  2.9421
 5795TIP3    H238801   3.208   6.407   0.023 -1.5171 -0.2735 -0.0666
 5796TIP3   OH238802   1.244   3.210  16.655  0.7021  0.1989  0.4109
 5796TIP3    H138803   1.235   3.299  16.689  2.9802  1.2941 -1.6001
 5796TIP3    H238804   1.219   3.217  16.563 -1.6057 -1.8730  0.7707
 5797TIP3   OH238805   3.842   1.307   4.107 -0.2003 -0.7199  0.3606
 5797TIP3    H138806   3.790   1.269   4.037  0.6401 -2.3021  0.5470
 5797TIP3    H238807   3.789   1.293   4.186 -0.8729  0.5181  0.1549
 5798TIP3   OH238808   3.415   0.435   5.273  0.2476  0.4184  0.3726
 5798TIP3    H138809   3.448   0.405   5.358  2.9035  0.5763 -0.5148
 5798TIP3    H238810   3.472   0.393   5.209 -1.1723  0.9450 -1.3146
 5799TIP3   OH238811   6.785   1.903   1.440 -0.7024 -0.1048  0.1892
 5799TIP3    H138812   6.862   1.921   1.386 -1.1531  0.8383 -0.1472
 5799TIP3    H238813   6.781   1.808   1.445  0.9269 -0.1777  0.8365
 5800TIP3   OH238814   6.528   4.221  15.337  0.7250  0.0500 -0.3797
 5800TIP3    H138815   6.605   4.174  15.304  0.5405 -1.0340  0.6885
 5800TIP3    H238816   6.532   4.212  15.432 -0.8570 -0.2630 -0.3115
 5801TIP3   OH238817   2.738   0.208   5.188  0.2403 -0.1912 -0.0645
 5801TIP3    H138818   2.712   0.270   5.121 -0.8202 -1.4771 -0.8812
 5801TIP3    H238819   2.656   0.176   5.225  0.7760 -0.8516  0.5886
 5802TIP3   OH238820   4.066   5.053   1.628  0.2121  0.6682 -0.2454
 5802TIP3    H138821   4.057   4.980   1.689  1.1267  0.5525 -0.2336
 5802TIP3    H238822   4.159   5.073   1.628  0.9026 -1.4407 -3.9566
 5803TIP3   OH238823   1.936   5.619   3.615 -0.0417  0.3774 -0.1420
 5803TIP3    H138824   2.014   5.563   3.621  0.9594  1.7758  0.7139
 5803TIP3    H238825   1.925   5.654   3.703 -2.5560 -0.8753  0.1276
 5804TIP3   OH238826   6.692   1.453  15.141  0.2052 -0.3322 -0.2670
 5804TIP3    H138827   6.655   1.401  15.213 -1.6772 -0.8815 -1.5429
 5804TIP3    H238828   6.652   1.416  15.062  1.6680  0.7022 -1.5468
 5805TIP3   OH238829   1.555   6.255   2.783  0.8220 -0.7354  0.0531
 5805TIP3    H138830   1.626   6.200   2.817  1.6233  0.6962  0.7897
 5805TIP3    H238831   1.596   6.309   2.715 -0.1023 -1.4768 -1.1285
 5806TIP3   OH238832   2.777   2.898   5.532 -0.1046  0.0334  0.3112
 5806TIP3    H138833   2.852   2.914   5.589  0.1750 -1.4970  0.3930
 5806TIP3    H238834   2.735   2.820   5.568  0.5031 -1.4252 -1.9957
 5807TIP3   OH238835   3.320   0.055  12.330  0.0537  0.3212  0.2638
 5807TIP3    H138836   3.292   0.064  12.421 -0.7741 -0.2608  0.0821
 5807TIP3    H238837   3.358  -0.033  12.325  2.1015  1.1413  0.5346
 5808TIP3   OH238838   0.115   1.880   6.603  1.2389 -0.4687 -0.0891
 5808TIP3    H138839   0.206   1.857   6.623  2.5260  2.6853 -1.6357
 5808TIP3    H238840   0.106   1.970   6.634 -1.2022 -0.5016 -0.5234
 5809TIP3   OH238841   1.818   6.522  16.011  0.1489 -0.2322  0.5255
 5809TIP3    H138842   1.743   6.475  16.047 -0.1823 -0.4772 -0.4585
 5809TIP3    H238843   1.858   6.460  15.950  0.2451  0.4229 -0.0977
 5810TIP3   OH238844   5.608   0.677   3.411  0.3654  0.1153  0.6519
 5810TIP3    H138845   5.647   0.598   3.372 -0.7210 -0.3820  0.5157
 5810TIP3    H238846   5.528   0.690   3.360 -1.6089 -1.0815  3.2279
 5811TIP3   OH238847   0.519   5.306  10.791 -0.0408  0.3204 -0.5545
 5811TIP3    H138848   0.473   5.380  10.830  1.0420  0.4556  0.5463
 5811TIP3    H238849   0.475   5.229  10.827  0.8578  0.4432  0.9170
 5812TIP3   OH238850   0.243   2.707   2.863  0.1250  0.1845  0.7899
 5812TIP3    H138851   0.281   2.718   2.950 -0.3331 -1.1184  1.1657
 5812TIP3    H238852   0.208   2.794   2.841 -0.5629  0.3163  2.2949
 5813TIP3   OH238853   5.830   3.295   2.207  0.3637 -0.7919 -0.1390
 5813TIP3    H138854   5.877   3.303   2.125  0.2874  0.3576 -0.0901
 5813TIP3    H238855   5.743   3.331   2.189  0.5685  0.1104  0.6142
 5814TIP3   OH238856   1.933   1.140   1.086  0.3409 -0.1288 -0.1840
 5814TIP3    H138857   1.897   1.088   1.158  0.3747 -0.5844 -0.4910
 5814TIP3    H238858   1.875   1.217   1.081 -0.5890 -0.8345 -0.6462
 5815TIP3   OH238859   0.578   1.111  13.181 -0.3081  0.0008 -0.1152
 5815TIP3    H138860   0.558   1.204  13.172 -0.9464 -0.1595 -0.4179
 5815TIP3    H238861   0.590   1.097  13.275  1.2513  0.6745 -0.1806
 5816TIP3   OH238862   2.774   3.557  15.841  0.2672  0.3318 -0.1400
 5816TIP3    H138863   2.817   3.625  15.789  0.4095 -0.0571 -0.5427
 5816TIP3    H238864   2.681   3.578  15.836  0.2501  0.1102 -0.8342
 5817TIP3   OH238865   5.948   6.549  13.274  0.1148  0.4847  0.5756
 5817TIP3    H138866   5.999   6.535  13.354 -2.5821  0.5913  2.4500
 5817TIP3    H238867   5.963   6.642  13.253  0.9370  0.4346  0.8935
 5818TIP3   OH238868   6.531   5.809  16.018 -0.1435  0.5114 -0.0328
 5818TIP3    H138869   6.471   5.738  15.996  2.0392 -1.0509 -1.2882
 5818TIP3    H238870   6.574   5.781  16.099 -0.1276  0.9745  0.1245
 5819TIP3   OH238871   2.559   0.046   5.844  0.4521 -0.5021  0.6884
 5819TIP3    H138872   2.609   0.123   5.819  0.3979 -0.5451  0.4361
 5819TIP3    H238873   2.564   0.042   5.939 -0.5891  0.5148  0.8012
 5820TIP3   OH238874   0.607   0.132   4.158  0.5420 -0.1219  0.1572
 5820TIP3    H138875   0.666   0.135   4.083  0.0794 -1.5110 -0.2836
 5820TIP3    H238876   0.663   0.150   4.234  1.1699  0.4337 -0.4286
 5821TIP3   OH238877   4.492   4.321   2.840 -0.5508 -0.1048  0.6027
 5821TIP3    H138878   4.516   4.320   2.932  0.0931 -0.1885  0.4430
 5821TIP3    H238879   4.552   4.259   2.799 -1.8959 -1.2900  0.3613
 5822TIP3   OH238880   1.954   3.149  11.963 -0.5994  0.1304 -0.0375
 5822TIP3    H138881   1.971   3.174  12.054 -0.5308 -0.4235  0.1081
 5822TIP3    H238882   1.944   3.054  11.967  3.5083 -0.5413 -1.1706
 5823TIP3   OH238883   0.580   1.351   4.082 -0.1159 -0.1850  0.0360
 5823TIP3    H138884   0.486   1.342   4.065  0.1187  0.9177 -2.2196
 5823TIP3    H238885   0.621   1.285   4.026  0.4965 -1.0709  1.4445
 5824TIP3   OH238886   4.185   4.064   1.764  0.1617  0.2743 -0.4855
 5824TIP3    H138887   4.158   4.119   1.690  1.0224 -0.2096 -1.1807
 5824TIP3    H238888   4.106   4.015   1.787 -0.1497  0.5207 -0.9982
 5825TIP3   OH238889   4.803   1.216   4.762 -0.1809  0.4260 -0.1295
 5825TIP3    H138890   4.853   1.146   4.720  1.1271  1.7741 -0.9240
 5825TIP3    H238891   4.781   1.275   4.690 -0.1893  1.4560  0.7017
 5826TIP3   OH238892   2.069   4.349  12.690 -0.4364  0.2408  0.4967
 5826TIP3    H138893   2.063   4.415  12.621 -2.9643 -2.6334 -2.3349
 5826TIP3    H238894   2.136   4.288  12.659  1.3322  0.9422  2.6954
 5827TIP3   OH238895   2.624   4.100  15.398  0.3048  0.6527  0.0157
 5827TIP3    H138896   2.532   4.072  15.401  0.9746 -1.9138 -0.4305
 5827TIP3    H238897   2.674   4.018  15.398  2.6003  1.9510 -0.4099
 5828TIP3   OH238898   3.628   1.665  12.715 -0.2661 -0.1668 -0.4974
 5828TIP3    H138899   3.717   1.675  12.681 -0.0645 -0.3379 -0.0354
 5828TIP3    H238900   3.571   1.678  12.639  0.2282 -3.2506 -1.5270
 5829TIP3   OH238901   1.469   5.303  13.418  0.6191  0.2876 -0.7039
 5829TIP3    H138902   1.416   5.371  13.460  0.7478  0.4207 -0.7562
 5829TIP3    H238903   1.433   5.221  13.451  1.0172  0.4000  0.0391
 5830TIP3   OH238904   5.537   3.325   1.929 -0.0929 -0.0039  0.3401
 5830TIP3    H138905   5.504   3.409   1.895 -0.5345 -0.1411  0.4237
 5830TIP3    H238906   5.549   3.271   1.851  2.1986  0.8142  0.0653
 5831TIP3   OH238907   2.327   0.221   1.248  0.0969  0.1413  0.4630
 5831TIP3    H138908   2.360   0.310   1.237  1.5862 -0.3419  0.6552
 5831TIP3    H238909   2.333   0.205   1.343  0.3737 -0.3309  0.3709
 5832TIP3   OH238910   3.481   0.041  15.524 -0.1390 -0.4149 -0.4209
 5832TIP3    H138911   3.533   0.118  15.503 -0.9010  0.5560  1.1158
 5832TIP3    H238912   3.391   0.073  15.532 -0.1960 -1.0014  2.3114
 5833TIP3   OH238913   5.156   4.582  15.671  0.4347 -0.0618  0.3399
 5833TIP3    H138914   5.190   4.529  15.742 -2.1829 -0.9320  1.0663
 5833TIP3    H238915   5.097   4.645  15.714  1.5103  1.8134 -0.7574
 5834TIP3   OH238916   6.605   5.052   0.136 -0.1168  0.0495 -0.2906
 5834TIP3    H138917   6.675   5.117   0.129 -0.2523  0.1368 -0.8818
 5834TIP3    H238918   6.607   5.006   0.053 -1.2040  0.5027 -0.5835
 5835TIP3   OH238919   1.034   2.492  11.620 -0.0298  0.5974 -0.0503
 5835TIP3    H138920   1.009   2.544  11.697  2.2907  2.4756 -0.4320
 5835TIP3    H238921   1.114   2.446  11.648  0.8527  1.3210 -1.3210
 5836TIP3   OH238922   0.128   4.151   0.813 -0.5617  0.2740 -0.3687
 5836TIP3    H138923   0.158   4.230   0.859 -0.9393  0.0470  0.2848
 5836TIP3    H238924   0.087   4.099   0.881  0.6867 -1.0053 -0.5565
 5837TIP3   OH238925   0.297   6.711   3.515  0.3777  0.3275  0.3591
 5837TIP3    H138926   0.342   6.627   3.525 -1.0161 -0.6133 -0.8927
 5837TIP3    H238927   0.213   6.689   3.474 -0.0187  2.3336 -0.0148
 5838TIP3   OH238928   4.236   1.311  14.161 -0.0027 -0.4464 -0.1054
 5838TIP3    H138929   4.209   1.341  14.247 -1.2837 -0.9666 -0.3117
 5838TIP3    H238930   4.330   1.295  14.170  0.3028  1.5024  0.5896
 5839TIP3   OH238931   6.440   5.149   4.917  0.1978  0.3057 -0.4031
 5839TIP3    H138932   6.527   5.110   4.927  0.5008  0.6243 -1.5615
 5839TIP3    H238933   6.383   5.076   4.893  0.3911  0.2640 -0.7541
 5840TIP3   OH238934   5.762   1.553  11.678  0.5619 -0.0155 -0.2512
 5840TIP3    H138935   5.838   1.558  11.736 -0.6575  0.8384  1.3393
 5840TIP3    H238936   5.705   1.488  11.718 -0.1899  0.4009 -0.6249
 5841TIP3   OH238937   2.545   0.208   0.069 -0.3673  0.3093 -0.1425
 5841TIP3    H138938   2.488   0.170   0.136  1.0269  0.1983  1.0232
 5841TIP3    H238939   2.505   0.181  -0.014 -1.2409 -0.9272  0.6428
 5842TIP3   OH238940   1.533   4.669   1.953 -0.8906 -0.6172 -0.9889
 5842TIP3    H138941   1.495   4.582   1.941 -0.8223 -0.7914  0.0160
 5842TIP3    H238942   1.608   4.655   2.011 -2.0068  0.3564  0.7915
 5843TIP3   OH238943   3.770   5.866   1.280  0.4909 -0.4495  0.0588
 5843TIP3    H138944   3.831   5.911   1.338 -1.1620  1.0905  0.6771
 5843TIP3    H238945   3.706   5.825   1.338  0.7105 -1.7751 -0.5856
 5844TIP3   OH238946   0.330   2.182  11.857  0.0474 -0.2564  0.7195
 5844TIP3    H138947   0.318   2.088  11.840 -2.2280  0.2759 -1.0699
 5844TIP3    H238948   0.370   2.185  11.944 -3.4309 -2.8275  2.6890
 5845TIP3   OH238949   6.317   1.589   4.379 -0.4291  0.5641  0.1933
 5845TIP3    H138950   6.341   1.638   4.300 -0.2712 -0.3350 -0.3294
 5845TIP3    H238951   6.231   1.551   4.358  0.6518 -1.6550 -0.5076
 5846TIP3   OH238952   6.136   6.116   6.611 -0.4497 -0.1010 -0.7586
 5846TIP3    H138953   6.192   6.178   6.564 -1.1473  0.3661 -0.9906
 5846TIP3    H238954   6.174   6.111   6.699  0.8454 -0.9606 -1.3457
 5847TIP3   OH238955   2.473   5.675  11.825 -0.2513  0.0046 -0.2424
 5847TIP3    H138956   2.427   5.697  11.744 -0.2199  1.5735  0.1355
 5847TIP3    H238957   2.489   5.581  11.819 -1.0865 -0.0731 -1.6201
 5848TIP3   OH238958   6.781   0.541   4.456  0.2040  0.1419  0.0657
 5848TIP3    H138959   6.790   0.488   4.535 -1.5164 -2.6813 -1.4606
 5848TIP3    H238960   6.851   0.511   4.398  0.5699  1.1434 -0.0175
 5849TIP3   OH238961   5.534   2.649   3.802 -0.2011 -0.2271 -0.2915
 5849TIP3    H138962   5.595   2.580   3.777  0.2609  0.2539 -0.5114
 5849TIP3    H238963   5.461   2.641   3.741  1.4338  1.6735 -2.6728
 5850TIP3   OH238964   1.498   5.476   5.133  0.1259 -0.1729  0.3653
 5850TIP3    H138965   1.412   5.447   5.104  0.4186 -0.1032 -0.6139
 5850TIP3    H238966   1.482   5.520   5.216 -0.4584 -2.2051  1.3976
 5851TIP3   OH238967   0.640   6.035  16.058 -0.0969  0.2824  0.1579
 5851TIP3    H138968   0.704   6.092  16.101  0.5530  1.5988 -2.3197
 5851TIP3    H238969   0.564   6.092  16.045 -0.3815 -0.1693 -0.1662
 5852TIP3   OH238970   4.907   5.374  14.194 -0.3352  0.1296 -0.0732
 5852TIP3    H138971   4.899   5.283  14.222  1.6580  0.1683  0.7300
 5852TIP3    H238972   4.932   5.422  14.273 -0.0580  1.1700 -0.7657
 5853TIP3   OH238973   3.909   5.661  14.075  0.3156 -0.6001  0.1612
 5853TIP3    H138974   3.892   5.742  14.027 -2.7160 -1.0278  0.3403
 5853TIP3    H238975   3.906   5.592  14.009  1.0177 -0.7473  0.2757
 5854TIP3   OH238976   6.546   0.475   4.337  0.1216 -0.7069  0.9369
 5854TIP3    H138977   6.499   0.430   4.407 -2.1236 -0.9260 -0.5859
 5854TIP3    H238978   6.623   0.513   4.380 -1.0052 -1.0419  3.4528
 5855TIP3   OH238979   5.738   2.982   3.417  0.5889  0.2804 -0.3017
 5855TIP3    H138980   5.652   3.021   3.434  0.1235 -0.8749  0.0571
 5855TIP3    H238981   5.790   3.004   3.494 -0.0810 -0.9296  0.5169
 5856TIP3   OH238982   4.827   3.393   1.373 -0.3686 -0.0848 -0.4167
 5856TIP3    H138983   4.823   3.312   1.322 -0.8919 -1.3477  1.5604
 5856TIP3    H238984   4.763   3.450   1.331  0.4119 -0.4371 -2.1883
 5857TIP3   OH238985   3.247   5.327   2.368  0.1650 -0.4583  0.1582
 5857TIP3    H138986   3.224   5.326   2.461 -0.4133  0.4780  0.0349
 5857TIP3    H238987   3.342   5.328   2.367  0.1691  0.1936  0.7545
 5858TIP3   OH238988   4.363   5.166   0.292 -0.8365  0.1473  0.5463
 5858TIP3    H138989   4.350   5.230   0.223  2.2157 -0.6702 -0.9797
 5858TIP3    H238990   4.344   5.214   0.373 -1.3543  2.1308 -0.6793
 5859TIP3   OH238991   0.175   0.053   5.676  0.0087  0.3786 -0.3609
 5859TIP3    H138992   0.266   0.022   5.681  0.2326  1.1936  1.7192
 5859TIP3    H238993   0.180   0.144   5.705 -1.5369  0.2796  0.2933
 5860TIP3   OH238994   6.196   4.330  13.614  0.5869 -0.2396  0.3930
 5860TIP3    H138995   6.140   4.330  13.537  0.8703 -1.8484  0.1624
 5860TIP3    H238996   6.285   4.330  13.579  0.7503  0.8820  0.7529
 5861TIP3   OH238997   3.389   0.650  13.632  0.7705 -0.2415 -0.0470
 5861TIP3    H138998   3.428   0.713  13.572 -0.3539  1.1318  0.6000
 5861TIP3    H238999   3.436   0.662  13.714  1.0384 -0.7811 -0.1125
 5862TIP3   OH239000   5.460   1.957   0.127 -0.3273 -0.0680 -0.1285
 5862TIP3    H139001   5.501   1.884   0.174  0.7141 -0.2986 -1.3273
 5862TIP3    H239002   5.389   1.917   0.078  0.4285 -0.3560 -1.0176
 5863TIP3   OH239003   2.371   1.719  16.188  0.4728 -0.4273 -0.6511
 5863TIP3    H139004   2.379   1.687  16.098 -1.3744  1.0304 -1.3992
 5863TIP3    H239005   2.294   1.676  16.223  0.6806 -0.3263 -0.0540
 5864TIP3   OH239006   3.748   1.205   1.967 -0.3371 -0.7882  0.3177
 5864TIP3    H139007   3.752   1.186   2.060  1.4593  0.3762  0.5082
 5864TIP3    H239008   3.763   1.299   1.960 -2.1596 -0.5330 -1.0541
 5865TIP3   OH239009   4.018   1.499   5.054 -0.1828  0.2016  0.3467
 5865TIP3    H139010   3.968   1.558   5.110 -1.0548  0.0656 -0.2652
 5865TIP3    H239011   3.952   1.440   5.017  0.3403  0.4479 -1.0130
 5866TIP3   OH239012   1.748   6.085  14.893  0.6121  0.1025 -0.1697
 5866TIP3    H139013   1.806   6.086  14.969  1.8340 -0.2513 -1.0700
 5866TIP3    H239014   1.752   5.995  14.860  3.0821  1.0205 -2.8085
 5867TIP3   OH239015   2.457   0.400   5.842  0.2006 -0.0704 -0.0215
 5867TIP3    H139016   2.365   0.421   5.857 -0.0539 -1.1519  0.0565
 5867TIP3    H239017   2.469   0.406   5.747 -0.0056 -0.1370 -0.0512
 5868TIP3   OH239018   4.359   1.785  16.226 -0.3016  0.6203 -0.0178
 5868TIP3    H139019   4.368   1.823  16.314  0.7434  0.1106  0.1185
 5868TIP3    H239020   4.359   1.690  16.242 -0.6394  0.5332 -0.5317
 5869TIP3   OH239021   0.688   6.567  16.737  0.1078 -0.2052 -0.3394
 5869TIP3    H139022   0.683   6.501  16.668  0.7030 -0.5490 -0.0521
 5869TIP3    H239023   0.611   6.622  16.722 -0.7058 -1.2887 -0.2383
 5870TIP3   OH239024   4.114   0.413   2.029 -0.6626 -0.0540 -0.1591
 5870TIP3    H139025   4.157   0.474   1.969  0.8959 -0.1383  0.8265
 5870TIP3    H239026   4.033   0.457   2.055 -0.2759  0.9389 -0.6194
 5871TIP3   OH239027   5.492   1.551  16.622  0.0942  0.2806  0.3527
 5871TIP3    H139028   5.543   1.606  16.562  0.5062 -0.1532  0.3034
 5871TIP3    H239029   5.402   1.578  16.608  0.3590  1.5788  0.9623
 5872TIP3   OH239030   6.249   5.443  16.104 -0.0640 -0.4814  0.3705
 5872TIP3    H139031   6.282   5.363  16.063  3.1805  0.1030  1.5314
 5872TIP3    H239032   6.154   5.440  16.090  0.4058 -1.9481 -4.0900
 5873TIP3   OH239033   1.564   1.168   0.125  0.3848 -0.1400 -0.8609
 5873TIP3    H139034   1.602   1.236   0.180  0.5763 -0.3022 -0.7914
 5873TIP3    H239035   1.607   1.179   0.040 -1.0085  1.0851 -1.4388
 5874TIP3   OH239036   2.832   3.669  13.576  0.3886  0.2178  0.8695
 5874TIP3    H139037   2.840   3.705  13.488  1.9738 -0.6787  0.6194
 5874TIP3    H239038   2.773   3.594  13.566 -0.2198  0.6998  0.7737
 5875TIP3   OH239039   1.666   3.002  11.441 -0.3957 -0.6238 -0.1843
 5875TIP3    H139040   1.732   3.016  11.373  0.5460  0.6443  0.9319
 5875TIP3    H239041   1.584   3.031  11.401  0.3696  1.4652 -0.3618
 5876TIP3   OH239042   3.803   6.628  11.205  0.3631 -0.2884  0.5635
 5876TIP3    H139043   3.836   6.589  11.124 -1.0422  0.4922 -0.4205
 5876TIP3    H239044   3.861   6.593  11.274  0.7429 -2.0425 -0.5839
 5877TIP3   OH239045   6.243   6.349  15.465 -0.6121 -0.2943  0.0235
 5877TIP3    H139046   6.269   6.312  15.381  1.4044 -1.9056  1.2523
 5877TIP3    H239047   6.148   6.336  15.469 -1.1401  1.7526 -2.8100
 5878TIP3   OH239048   3.699   3.612  16.732  0.4324 -0.3653  0.6511
 5878TIP3    H139049   3.728   3.578  16.816  0.3677 -3.5743 -0.5043
 5878TIP3    H239050   3.621   3.664  16.753  1.9138  1.1395  2.7837
 5879TIP3   OH239051   3.163   4.929   4.282 -0.2092  0.1405 -0.2554
 5879TIP3    H139052   3.225   4.977   4.337 -0.4521  0.7379 -0.4899
 5879TIP3    H239053   3.085   4.918   4.337  0.6439 -2.0528  0.6284
 5880TIP3   OH239054   5.811   0.831  15.535  0.4304 -0.1558  0.3790
 5880TIP3    H139055   5.873   0.901  15.555  0.8903 -0.5169  0.2195
 5880TIP3    H239056   5.775   0.806  15.620 -0.8018  1.2329  0.3176
 5881TIP3   OH239057   5.389   2.234  17.123 -0.0606  0.3462 -0.4672
 5881TIP3    H139058   5.438   2.288  17.185  1.3117 -0.2003 -1.0327
 5881TIP3    H239059   5.384   2.148  17.166  0.6580  0.0415 -0.9688
 5882TIP3   OH239060   3.657   5.607   0.454  0.7266  0.0585 -0.7491
 5882TIP3    H139061   3.581   5.648   0.413 -0.9999 -2.2077 -0.0296
 5882TIP3    H239062   3.673   5.660   0.533 -0.9971 -0.1915 -0.1908
 5883TIP3   OH239063   5.780   1.932  13.871 -0.2429 -0.1392 -0.0625
 5883TIP3    H139064   5.687   1.942  13.849 -0.2018 -1.7455 -1.1109
 5883TIP3    H239065   5.818   2.018  13.853 -1.6739  0.8939  1.4150
 5884TIP3   OH239066   0.454   3.526  11.678 -0.0650 -0.2828 -0.8739
 5884TIP3    H139067   0.430   3.598  11.737 -0.3438  0.8061 -2.2477
 5884TIP3    H239068   0.467   3.451  11.735  0.4747  0.9188  0.6493
 5885TIP3   OH239069   0.497   2.649   3.035  0.0204 -0.3514 -0.3566
 5885TIP3    H139070   0.560   2.579   3.014  2.2444  1.4228  0.0086
 5885TIP3    H239071   0.473   2.633   3.126  1.4443 -0.0244  0.1067
 5886TIP3   OH239072   4.247   2.018   1.044 -0.5652 -0.0378 -0.3722
 5886TIP3    H139073   4.270   2.076   0.971 -2.2249  1.0713 -0.0794
 5886TIP3    H239074   4.320   2.027   1.105  0.9716 -1.1842 -1.9507
 5887TIP3   OH239075   4.745   3.773  15.648  0.1155 -0.1145  0.5744
 5887TIP3    H139076   4.839   3.779  15.629 -0.1383  0.2956 -0.6258
 5887TIP3    H239077   4.731   3.681  15.671  0.3869 -0.7894 -1.7421
 5888TIP3   OH239078   3.833   4.233   1.004 -0.2468  0.1281 -0.0190
 5888TIP3    H139079   3.836   4.164   0.938  1.2854 -0.2523  0.4040
 5888TIP3    H239080   3.881   4.197   1.079 -0.6809  1.0998  0.7505
 5889TIP3   OH239081   5.228   5.727   3.603  0.0990  0.3465  0.2969
 5889TIP3    H139082   5.168   5.801   3.614 -0.6003  0.3142 -2.5181
 5889TIP3    H239083   5.228   5.710   3.508  1.7190 -2.0421  0.6403
 5890TIP3   OH239084   4.163   0.082  16.239 -0.0324 -0.1074 -0.4817
 5890TIP3    H139085   4.250   0.079  16.278 -0.4450  0.0136  0.4953
 5890TIP3    H239086   4.145   0.176  16.229  0.0801 -0.1395 -0.9887
 5891TIP3   OH239087   2.480   3.750  13.150 -0.5107  0.8910  0.3444
 5891TIP3    H139088   2.387   3.751  13.124  0.1423 -0.3400 -2.4230
 5891TIP3    H239089   2.493   3.662  13.186 -0.3209  0.8792  0.2456
 5892TIP3   OH239090   3.781   2.531   5.847  0.2459 -0.2669 -0.2288
 5892TIP3    H139091   3.849   2.536   5.914 -0.4761 -0.9569  0.6024
 5892TIP3    H239092   3.704   2.498   5.895 -1.5722  3.1973 -0.4327
 5893TIP3   OH239093   6.352   1.133  12.986  0.4728 -0.1114  0.4245
 5893TIP3    H139094   6.445   1.149  12.968  0.5028 -0.4280  0.2812
 5893TIP3    H239095   6.346   1.038  12.999 -0.1439 -0.3920 -1.5266
 5894TIP3   OH239096   3.687   3.247  15.161 -0.1515 -0.0584  0.5520
 5894TIP3    H139097   3.643   3.196  15.228 -0.6444 -0.1151  0.1866
 5894TIP3    H239098   3.623   3.314  15.135  0.4528  0.7017  0.9669
 5895TIP3   OH239099   4.632   6.069   1.121  0.0800 -0.1862 -0.1491
 5895TIP3    H139100   4.574   6.141   1.097  2.2164  2.0784  0.9856
 5895TIP3    H239101   4.581   6.017   1.183 -1.8553 -0.2705 -1.7112
 5896TIP3   OH239102   2.863   2.798  11.366  0.0796 -0.3597 -0.5996
 5896TIP3    H139103   2.789   2.835  11.318  0.7235  1.0325 -0.5472
 5896TIP3    H239104   2.833   2.710  11.390 -2.0159  0.5673  0.4621
 5897TIP3   OH239105   2.481   6.546   3.491 -0.2613  0.5067 -0.3895
 5897TIP3    H139106   2.388   6.544   3.468 -0.2161  0.2673 -0.5486
 5897TIP3    H239107   2.499   6.460   3.528 -0.4912  1.0999  1.1955
 5898TIP3   OH239108   2.723   3.378  13.054 -0.0188 -0.0523 -0.4802
 5898TIP3    H139109   2.793   3.322  13.020 -0.7877 -0.6379 -1.1397
 5898TIP3    H239110   2.735   3.462  13.009  0.3426 -0.1104 -0.4907
 5899TIP3   OH239111   4.577   2.590   3.082  1.2191 -0.3966 -0.2624
 5899TIP3    H139112   4.657   2.634   3.054  1.6983 -1.3781 -0.4997
 5899TIP3    H239113   4.525   2.581   3.003  1.4194 -0.8413 -0.3478
 5900TIP3   OH239114   4.221   5.810  12.787 -0.4697  0.3209  0.0307
 5900TIP3    H139115   4.265   5.746  12.731  0.3685 -1.6965  2.7862
 5900TIP3    H239116   4.278   5.888  12.783  1.1961 -0.8170  0.2894
 5901TIP3   OH239117   6.075   1.835   0.925 -0.3308 -0.0891 -0.0492
 5901TIP3    H139118   6.162   1.812   0.959 -0.3599 -0.6858 -0.3532
 5901TIP3    H239119   6.024   1.754   0.934 -1.2177  0.5776  1.2271
 5902TIP3   OH239120   6.803   2.502  15.627 -0.1700 -0.0868  0.1585
 5902TIP3    H139121   6.805   2.411  15.598 -2.4836  0.2419 -1.2705
 5902TIP3    H239122   6.841   2.551  15.553  0.7794  0.1670  0.7968
 5903TIP3   OH239123   0.999   5.031   1.292  0.3600  0.4088  0.4395
 5903TIP3    H139124   0.968   4.959   1.347  0.4155  1.0131  1.2997
 5903TIP3    H239125   1.077   5.064   1.338  0.9830  0.3156 -0.5304
 5904TIP3   OH239126   4.160   0.020  11.694  0.4807 -0.1116 -0.3668
 5904TIP3    H139127   4.113  -0.061  11.677 -1.3474  0.8163  0.0303
 5904TIP3    H239128   4.131   0.047  11.781  2.5000  0.0377  0.3120
 5905TIP3   OH239129   6.467   1.005  14.106 -0.0818  0.0667 -0.1284
 5905TIP3    H139130   6.512   0.988  14.023  1.4917 -0.9458  0.8884
 5905TIP3    H239131   6.394   1.062  14.082  1.2077  1.0464 -1.9768
 5906TIP3   OH239132   2.963   2.169   2.473 -1.1761  1.0634 -0.2923
 5906TIP3    H139133   2.994   2.080   2.457  1.7410  1.6389  1.4503
 5906TIP3    H239134   2.897   2.160   2.541 -1.8221  0.1592 -1.0141
 5907TIP3   OH239135   3.526   1.553   0.181  0.2366  0.0576 -0.0105
 5907TIP3    H139136   3.589   1.558   0.109 -0.5623  3.4691 -0.6100
 5907TIP3    H239137   3.560   1.483   0.236  2.8031 -0.3594 -1.9030
 5908TIP3   OH239138   3.377   6.338   1.290 -0.1604 -0.5657 -0.5580
 5908TIP3    H139139   3.441   6.409   1.283  0.1651 -0.8051 -0.0379
 5908TIP3    H239140   3.408   6.271   1.229  0.2195 -0.7758 -0.1456
 5909TIP3   OH239141   2.831   5.696   4.483 -0.0100  0.6548  0.1102
 5909TIP3    H139142   2.916   5.700   4.527  0.3570  0.2625 -0.5416
 5909TIP3    H239143   2.811   5.787   4.460  0.5020  0.6888 -0.2154
 5910TIP3   OH239144   6.667   3.824   3.339 -0.5831 -0.4377 -0.2925
 5910TIP3    H139145   6.628   3.766   3.274 -1.1523 -0.3491 -0.0375
 5910TIP3    H239146   6.606   3.898   3.343  0.5450  0.5818 -1.2187
 5911TIP3   OH239147   4.235   6.236   2.573  0.6653 -0.2455  0.1632
 5911TIP3    H139148   4.315   6.288   2.568  0.8123 -0.2709  1.7999
 5911TIP3    H239149   4.241   6.177   2.497  1.2673  1.0090 -0.8035
 5912TIP3   OH239150   5.387   0.408  11.120 -0.1940 -0.2672 -0.2599
 5912TIP3    H139151   5.339   0.430  11.200 -2.2118  0.5967 -1.6283
 5912TIP3    H239152   5.392   0.312  11.120  0.1196 -0.2694  1.0160
 5913TIP3   OH239153   3.543   5.659  13.924  0.1048  0.1738 -0.4324
 5913TIP3    H139154   3.623   5.688  13.880  0.1085  0.1963 -0.4116
 5913TIP3    H239155   3.574   5.619  14.006  0.1572 -0.5799 -0.8107
 5914TIP3   OH239156   4.762   1.181   3.492 -0.2272 -0.3543 -0.5272
 5914TIP3    H139157   4.797   1.175   3.403 -1.7752 -2.2027 -1.0759
 5914TIP3    H239158   4.676   1.140   3.487 -0.8270  0.5124  1.6059
 5915TIP3   OH239159   0.672   1.222  12.025  0.1183  0.2368 -0.5350
 5915TIP3    H139160   0.596   1.278  12.043  0.0047 -0.1773  0.3189
 5915TIP3    H239161   0.651   1.179  11.942  0.4154  1.7965 -1.4652
 5916TIP3   OH239162   1.624   5.949  11.331  0.1993 -0.0184  0.0008
 5916TIP3    H139163   1.644   5.874  11.276 -2.2043 -0.6093 -0.1708
 5916TIP3    H239164   1.619   5.913  11.420  0.8237  0.3165  0.1831
 5917TIP3   OH239165   5.578   1.321   1.005  0.5320  0.0778 -0.7373
 5917TIP3    H139166   5.628   1.400   1.023  1.3591 -0.1036 -2.1308
 5917TIP3    H239167   5.641   1.250   1.013  0.7376 -0.0923 -3.2436
 5918TIP3   OH239168   0.650   1.152   2.983 -0.1942 -0.0604  0.2003
 5918TIP3    H139169   0.743   1.128   2.986  0.2295  1.5462  1.6473
 5918TIP3    H239170   0.633   1.193   3.067 -2.6009 -1.4625  0.4826
 5919TIP3   OH239171   6.150   6.313   1.418  0.0232  0.0624  0.1734
 5919TIP3    H139172   6.088   6.243   1.439  0.7969 -0.9428 -0.7484
 5919TIP3    H239173   6.236   6.271   1.423  0.5840  1.2390  0.6997
 5920TIP3   OH239174   2.625   4.769   3.742  0.3856 -1.0139 -0.8041
 5920TIP3    H139175   2.640   4.861   3.720  1.0105 -0.4908  1.5472
 5920TIP3    H239176   2.546   4.770   3.796 -1.2690 -2.2821 -2.9983
 5921TIP3   OH239177   6.631   5.432   5.934  0.1338  0.6724 -0.4633
 5921TIP3    H139178   6.712   5.383   5.945 -0.9485 -0.7399  1.8648
 5921TIP3    H239179   6.641   5.508   5.991 -0.8912 -0.5343  1.4021
 5922TIP3   OH239180   0.836   3.520   0.239 -0.1865 -0.4118 -0.3231
 5922TIP3    H139181   0.794   3.507   0.324 -0.9714 -0.6804 -0.7445
 5922TIP3    H239182   0.837   3.433   0.200 -0.7748 -0.1137 -1.0185
 5923TIP3   OH239183   3.562   0.720   3.564 -0.8907  0.1777 -0.0035
 5923TIP3    H139184   3.532   0.652   3.625 -0.5982 -0.2603 -0.3506
 5923TIP3    H239185   3.657   0.722   3.575 -0.7405 -0.4703 -1.0238
 5924TIP3   OH239186   0.848   5.000   4.088 -0.1551 -0.0100 -0.2423
 5924TIP3    H139187   0.879   4.936   4.152 -1.0989  0.3031  0.5511
 5924TIP3    H239188   0.770   4.960   4.049  0.1980 -0.0368 -0.9328
 5925TIP3   OH239189   6.398   0.643   3.722  0.2778 -0.1380 -0.3762
 5925TIP3    H139190   6.371   0.672   3.635 -2.4923 -0.7447  0.1638
 5925TIP3    H239191   6.393   0.722   3.777 -0.4252 -0.2154 -0.3103
 5926TIP3   OH239192   2.344   0.634  14.484  0.2547 -0.7204 -0.2757
 5926TIP3    H139193   2.250   0.641  14.505 -0.0209 -1.0227 -1.3290
 5926TIP3    H239194   2.346   0.616  14.390  1.3384 -1.6334 -0.1038
 5927TIP3   OH239195   0.732   1.780  12.307 -0.0092 -0.0821 -0.4534
 5927TIP3    H139196   0.808   1.722  12.303 -0.6344 -0.9282 -0.1042
 5927TIP3    H239197   0.681   1.749  12.381 -1.0320  0.0658 -1.0792
 5928TIP3   OH239198   6.142   6.166  11.088 -0.3150  0.0743 -0.2022
 5928TIP3    H139199   6.111   6.083  11.123  1.2757 -0.3036  0.4044
 5928TIP3    H239200   6.107   6.232  11.148 -2.8080  0.0618 -1.4876
 5929TIP3   OH239201   1.645   6.159   4.408 -0.5954  0.3326  0.1911
 5929TIP3    H139202   1.738   6.170   4.427 -0.0697 -1.9761 -0.7018
 5929TIP3    H239203   1.604   6.144   4.493  0.1030 -0.1246  0.4539
 5930TIP3   OH239204   1.856   0.493   0.977 -0.0148 -0.4689 -0.3448
 5930TIP3    H139205   1.928   0.540   0.936 -0.6447 -0.3087 -1.2937
 5930TIP3    H239206   1.779   0.548   0.962 -0.6408 -1.4598 -0.8579
 5931TIP3   OH239207   1.849   5.363  12.080  0.3188  0.9957  0.1316
 5931TIP3    H139208   1.879   5.440  12.030 -3.2515  2.3314 -0.2154
 5931TIP3    H239209   1.804   5.309  12.015 -0.0146  0.2291  0.9881
 5932TIP3   OH239210   2.466   3.126  13.956  0.2046  0.0485  0.1419
 5932TIP3    H139211   2.487   3.059  14.021  0.5262  0.3676  0.3641
 5932TIP3    H239212   2.419   3.193  14.005 -1.6401 -0.7728 -0.3808
 5933TIP3   OH239213   3.025   1.313   2.020  0.1630 -0.0849 -0.7098
 5933TIP3    H139214   2.955   1.262   2.061  1.3874  0.8702  2.8863
 5933TIP3    H239215   2.988   1.400   2.007  0.5072  0.3353  0.9138
 5934TIP3   OH239216   2.693   6.770   4.161  0.0790 -0.4314  0.1156
 5934TIP3    H139217   2.758   6.814   4.107 -0.9410  1.2385  0.1841
 5934TIP3    H239218   2.620   6.754   4.101 -0.6217  0.4370  0.7081
 5935TIP3   OH239219   4.422   6.787   2.530 -0.2302  0.3118 -0.3003
 5935TIP3    H139220   4.373   6.813   2.452 -1.7088  0.8993  0.7814
 5935TIP3    H239221   4.387   6.701   2.553  0.2143  0.1337 -0.2621
 5936TIP3   OH239222   4.028   0.985  16.401  0.4321 -0.0509 -0.4096
 5936TIP3    H139223   3.998   0.895  16.409 -1.0876  0.2497 -2.2375
 5936TIP3    H239224   4.023   1.020  16.491 -2.9678 -0.5966 -0.2842
 5937TIP3   OH239225   5.389   1.242   0.824  0.3861 -0.2505 -0.3791
 5937TIP3    H139226   5.476   1.258   0.861  0.4490 -0.4426 -0.4456
 5937TIP3    H239227   5.360   1.328   0.793  0.6799 -0.2430 -0.6363
 5938TIP3   OH239228   0.651   4.920   2.366  0.5066 -0.2967  0.1697
 5938TIP3    H139229   0.727   4.899   2.311 -0.0560  1.1703 -1.2463
 5938TIP3    H239230   0.581   4.863   2.333  0.2223  0.4455 -0.5573
 5939TIP3   OH239231   2.698   0.987  11.868 -0.4180 -0.6376 -0.3751
 5939TIP3    H139232   2.703   0.978  11.964  0.7349 -1.1405 -0.4648
 5939TIP3    H239233   2.654   0.907  11.839 -1.6041 -0.0646 -0.2111
 5940TIP3   OH239234   1.307   1.976  17.038 -0.0761 -0.3681 -0.1156
 5940TIP3    H139235   1.313   2.009  17.127  0.6476 -0.8379  0.0215
 5940TIP3    H239236   1.342   1.887  17.043  0.3401 -0.2611 -0.9294
 5941TIP3   OH239237   4.407   0.407  12.970  0.1316  0.0777  0.0398
 5941TIP3    H139238   4.465   0.353  13.024  0.1565 -0.1945 -0.2563
 5941TIP3    H239239   4.417   0.372  12.881 -0.6497 -0.1242  0.0203
 5942TIP3   OH239240   3.243   2.757  11.152 -0.3043 -0.4091  0.1233
 5942TIP3    H139241   3.304   2.697  11.195 -0.7590 -1.8926 -1.1569
 5942TIP3    H239242   3.211   2.707  11.076 -2.8164  0.4278  0.5308
 5943TIP3   OH239243   1.483   3.477   3.699  0.3152  0.3434 -0.3054
 5943TIP3    H139244   1.439   3.395   3.674  0.9024 -0.1877  0.3594
 5943TIP3    H239245   1.448   3.497   3.786  3.0843 -1.4267  1.3908
 5944TIP3   OH239246   0.930   1.551   2.600 -0.2068  0.0474  0.0344
 5944TIP3    H139247   0.909   1.578   2.689 -0.0386 -0.0561  0.1051
 5944TIP3    H239248   0.972   1.628   2.561  0.2520 -0.1052  0.2286
 5945TIP3   OH239249   4.934   0.474   0.326 -0.0916  0.1701  0.2062
 5945TIP3    H139250   5.008   0.482   0.266 -0.3511  0.2028 -0.1120
 5945TIP3    H239251   4.911   0.381   0.323  0.9240 -0.1505  1.4996
 5946TIP3   OH239252   5.560   6.218   6.338 -0.1701  0.7709 -0.0828
 5946TIP3    H139253   5.646   6.187   6.365 -0.2373  0.8226  0.1997
 5946TIP3    H239254   5.550   6.303   6.382  0.5181  1.7897 -1.7962
 5947TIP3   OH239255   2.851   6.083  16.371  0.6762 -0.6227 -0.3014
 5947TIP3    H139256   2.870   6.039  16.454 -1.1371 -1.9715 -0.5283
 5947TIP3    H239257   2.755   6.083  16.366  0.7382  0.0291 -2.0932
 5948TIP3   OH239258   5.350   6.288  10.968 -0.0490 -0.4144  0.0187
 5948TIP3    H139259   5.388   6.220  11.023 -3.1418 -1.2190  1.3498
 5948TIP3    H239260   5.340   6.364  11.026  0.8821  0.3404 -0.7489
 5949TIP3   OH239261   6.094   5.747  10.745  0.7090  0.3555  0.2620
 5949TIP3    H139262   6.187   5.728  10.735  0.5468 -0.0054 -0.6026
 5949TIP3    H239263   6.074   5.806  10.672  0.1728  0.1135  0.2105
 5950TIP3   OH239264   0.485   4.001   2.931  0.2005 -0.4938  0.5004
 5950TIP3    H139265   0.480   3.928   2.870 -0.0198 -1.7975  2.0276
 5950TIP3    H239266   0.404   4.050   2.917 -0.0753 -1.0603  0.0917
 5951TIP3   OH239267   5.706   6.195  14.454 -0.1360 -0.4266 -0.1780
 5951TIP3    H139268   5.621   6.231  14.477 -0.3253 -0.6850 -0.4614
 5951TIP3    H239269   5.728   6.136  14.526 -0.4101 -0.7134 -0.3286
 5952TIP3   OH239270   6.147   2.198   1.159  0.1508  0.0857 -0.2717
 5952TIP3    H139271   6.209   2.126   1.161  0.3566  0.2774  0.5317
 5952TIP3    H239272   6.172   2.255   1.232  0.5890  1.4709 -1.4419
 5953TIP3   OH239273   0.824   1.795  16.666 -0.8583 -0.0143  0.8965
 5953TIP3    H139274   0.870   1.728  16.615  0.0152  0.2078  1.3630
 5953TIP3    H239275   0.752   1.823  16.610  0.6189  0.8893 -0.6383
 5954TIP3   OH239276   4.518   4.217   5.852 -0.2225 -0.2053 -0.1602
 5954TIP3    H139277   4.423   4.209   5.844 -0.2963 -0.1485  0.5934
 5954TIP3    H239278   4.533   4.310   5.867  0.2555  0.4655 -3.9423
 5955TIP3   OH239279   3.618   0.778  14.272  0.0525 -0.5691  0.9057
 5955TIP3    H139280   3.697   0.748  14.318  0.9536 -0.0735 -0.2478
 5955TIP3    H239281   3.647   0.857  14.226 -0.8234 -0.9866 -0.4054
 5956TIP3   OH239282   0.841   4.441  13.607 -0.5723  0.5952  0.0429
 5956TIP3    H139283   0.794   4.522  13.624 -1.2339 -0.1206  1.8749
 5956TIP3    H239284   0.785   4.394  13.544 -0.6752  1.1322 -0.2702
 5957TIP3   OH239285   1.931   3.552  16.292 -0.2574  0.1698  0.6714
 5957TIP3    H139286   1.980   3.617  16.242 -0.9907  0.7395  0.6766
 5957TIP3    H239287   1.968   3.556  16.380 -0.5993  0.9070  0.7860
 5958TIP3   OH239288   1.517   2.828   5.904  0.2569  0.1586  0.0670
 5958TIP3    H139289   1.528   2.817   5.999 -1.7280 -1.6881  0.1529
 5958TIP3    H239290   1.442   2.887   5.896 -2.1633 -2.6896 -0.1828
 5959TIP3   OH239291   0.879   6.302   4.389 -0.3076  0.0920 -0.5836
 5959TIP3    H139292   0.876   6.321   4.295 -1.1798 -0.7957 -0.7554
 5959TIP3    H239293   0.798   6.338   4.424 -1.7644 -2.6096 -0.8372
 5960TIP3   OH239294   0.835   6.430  14.779  0.0570 -0.3517  0.5434
 5960TIP3    H139295   0.885   6.372  14.722  0.6045 -0.4715  1.1200
 5960TIP3    H239296   0.853   6.518  14.745 -0.1293 -0.4662  0.1503
 5961TIP3   OH239297   2.815   2.769   5.850 -0.3498  0.4469  0.3326
 5961TIP3    H139298   2.820   2.831   5.923 -1.6116 -0.2332  1.0305
 5961TIP3    H239299   2.905   2.739   5.837 -0.0422  0.9338  1.2928
 5962TIP3   OH239300   2.456   4.283   2.925  0.0986  0.3381 -0.2801
 5962TIP3    H139301   2.501   4.359   2.889  1.8094 -0.5141 -0.0184
 5962TIP3    H239302   2.526   4.222   2.948 -1.2181 -1.7319 -1.3915
 5963TIP3   OH239303   5.048   1.387   5.458 -0.4147  0.1797 -1.0631
 5963TIP3    H139304   4.980   1.438   5.415 -0.9823  0.2064 -0.1373
 5963TIP3    H239305   5.124   1.445   5.459 -0.1324 -0.0999 -2.7389
 5964TIP3   OH239306   1.098   2.623   1.343  0.9379  0.2485 -0.0008
 5964TIP3    H139307   1.130   2.627   1.434  0.5703  2.0533  0.0703
 5964TIP3    H239308   1.177   2.633   1.290  1.0897 -0.3157  0.1060
 5965TIP3   OH239309   6.542   2.953  14.006 -0.6715 -0.0099 -0.2421
 5965TIP3    H139310   6.503   2.866  14.018 -1.6563  0.3171 -0.9505
 5965TIP3    H239311   6.579   2.974  14.092 -2.7549 -0.0232  0.7329
 5966TIP3   OH239312   0.963   4.447  14.443 -0.2527 -0.3079 -0.2314
 5966TIP3    H139313   1.029   4.396  14.489  0.0861 -1.6564 -2.1069
 5966TIP3    H239314   0.994   4.453  14.353 -2.2342 -0.2033 -0.9724
 5967TIP3   OH239315   2.779   1.701   4.597 -0.3988 -0.6273 -0.2795
 5967TIP3    H139316   2.696   1.704   4.644  0.3149  1.1441  0.9693
 5967TIP3    H239317   2.768   1.630   4.534 -3.1406  0.0603 -0.7122
 5968TIP3   OH239318   0.264   6.499  15.743 -0.4867  0.3818  0.4278
 5968TIP3    H139319   0.298   6.542  15.664 -0.6978 -0.8362 -0.3600
 5968TIP3    H239320   0.339   6.494  15.802 -0.1684  0.7797  0.0606
 5969TIP3   OH239321   5.800   6.201  15.007 -0.6912  0.2336  0.2000
 5969TIP3    H139322   5.815   6.108  14.988  1.2590  0.1279  1.8291
 5969TIP3    H239323   5.765   6.237  14.926  0.4402 -1.5293 -1.1631
 5970TIP3   OH239324   2.284   4.671   2.080  0.2527 -0.3416 -0.3438
 5970TIP3    H139325   2.207   4.616   2.066  0.4647 -1.1529  1.3283
 5970TIP3    H239326   2.358   4.619   2.048  0.1844  0.2250 -1.4743
 5971TIP3   OH239327   3.646   2.966  13.564  0.8056  0.1121 -0.3976
 5971TIP3    H139328   3.677   2.951  13.654  2.2416 -1.2539 -1.0642
 5971TIP3    H239329   3.575   3.030  13.574  2.2323  1.5559  1.5004
 5972TIP3   OH239330   3.957   3.079   6.591  0.9526  0.7415  0.0609
 5972TIP3    H139331   3.904   3.153   6.564  1.7122  2.1777  2.2246
 5972TIP3    H239332   3.916   3.003   6.549 -1.6907  1.9942  0.1754
 5973TIP3   OH239333   5.304   3.484  13.170  0.3796  0.3195  0.6312
 5973TIP3    H139334   5.285   3.413  13.109  0.2296 -1.1150  2.2893
 5973TIP3    H239335   5.385   3.523  13.136  0.6009 -0.7901 -0.1718
 5974TIP3   OH239336   6.116   6.112  16.248 -0.0896 -0.2831 -0.1653
 5974TIP3    H139337   6.200   6.081  16.282  0.1038 -0.2790 -0.6323
 5974TIP3    H239338   6.140   6.167  16.173 -0.5478 -1.0613 -0.8993
 5975TIP3   OH239339   2.915   3.729  12.702 -0.0788 -0.0085 -0.0657
 5975TIP3    H139340   2.889   3.751  12.791  0.5195  0.1805  0.0698
 5975TIP3    H239341   2.889   3.638  12.690 -0.7454  0.1591  0.0770
 5976TIP3   OH239342   2.015   2.051   2.090 -0.2987 -0.3194 -0.5600
 5976TIP3    H139343   2.031   1.978   2.031  0.2532 -0.8533  0.2270
 5976TIP3    H239344   1.981   2.010   2.170  1.7332  0.0520  0.5702
 5977TIP3   OH239345   0.263   0.932  11.232  0.7120  0.6159 -0.6283
 5977TIP3    H139346   0.254   0.893  11.145  0.0512 -0.0787 -0.2671
 5977TIP3    H239347   0.316   0.869  11.281 -0.0628  0.3227 -0.1412
 5978TIP3   OH239348   5.761   6.392  13.392 -0.1560  0.1560  0.1885
 5978TIP3    H139349   5.748   6.471  13.445 -1.0919 -0.4531  0.8821
 5978TIP3    H239350   5.807   6.423  13.314  1.8280  0.9923  1.5915
 5979TIP3   OH239351   1.302   1.204  12.573 -0.5894 -0.6473  0.3012
 5979TIP3    H139352   1.276   1.207  12.481 -1.4103 -0.1035  0.5335
 5979TIP3    H239353   1.355   1.283  12.585 -0.2292 -0.8802  0.2154
 5980TIP3   OH239354   4.271   4.751   2.269 -0.0350  0.3603 -0.2807
 5980TIP3    H139355   4.313   4.738   2.354  0.1315 -0.3694 -0.4680
 5980TIP3    H239356   4.280   4.845   2.252 -0.1107  0.5239  0.5219
 5981TIP3   OH239357   0.373   0.635   5.441  0.2219 -0.3233 -0.0346
 5981TIP3    H139358   0.279   0.619   5.455  0.3305 -1.2861 -0.3171
 5981TIP3    H239359   0.406   0.661   5.527 -0.6769  2.1570 -0.3472
 5982TIP3   OH239360   4.260   3.620  14.915  0.0981  0.1633 -0.0579
 5982TIP3    H139361   4.267   3.713  14.938 -2.0428  0.6861 -1.2043
 5982TIP3    H239362   4.238   3.577  14.998  0.5649  0.7582  0.3818
 5983TIP3   OH239363   4.183   1.129   4.309  0.5692 -0.4194 -0.1545
 5983TIP3    H139364   4.277   1.142   4.314  0.9358 -2.4862 -0.8409
 5983TIP3    H239365   4.157   1.176   4.229  1.1341 -0.4634 -0.3695
 5984TIP3   OH239366   0.861   4.320   2.624 -0.2862 -0.2239 -0.1846
 5984TIP3    H139367   0.816   4.310   2.541  2.0964 -1.8119 -1.4138
 5984TIP3    H239368   0.792   4.335   2.688 -2.2720  0.0941 -2.2865
 5985TIP3   OH239369   4.957   6.110  11.542  0.1325  0.6440  0.8386
 5985TIP3    H139370   4.944   6.038  11.605  0.5876  1.1809  1.5663
 5985TIP3    H239371   5.010   6.071  11.473  1.4752  0.6026  1.8603
 5986TIP3   OH239372   2.788   6.485  10.895  0.8169 -0.5183  0.4999
 5986TIP3    H139373   2.836   6.403  10.886 -1.0071 -1.5861 -0.0195
 5986TIP3    H239374   2.754   6.483  10.985  0.8269 -0.2911  0.5109
 5987TIP3   OH239375   1.026   5.931  15.850  0.1872 -0.6280  0.3978
 5987TIP3    H139376   1.093   5.945  15.918 -1.1911 -0.5841  1.8036
 5987TIP3    H239377   1.028   6.012  15.798  0.5542 -0.2198  1.0282
 5988TIP3   OH239378   1.239   0.071   5.770  0.0338  0.2536  0.5278
 5988TIP3    H139379   1.192   0.065   5.853 -2.3629 -1.6544 -0.8209
 5988TIP3    H239380   1.233  -0.017   5.733  1.0693  1.0289 -1.6475
 5989TIP3   OH239381   3.547   4.620   5.110  0.0900  0.1354  0.7970
 5989TIP3    H139382   3.468   4.663   5.145 -1.3770 -1.5073 -0.3504
 5989TIP3    H239383   3.577   4.564   5.181 -0.5997 -0.2670  0.7782
 5990TIP3   OH239384   6.543   0.435  12.156  0.4151 -0.7497  0.1279
 5990TIP3    H139385   6.457   0.452  12.117  0.0711 -1.4500  0.5698
 5990TIP3    H239386   6.563   0.514  12.206 -0.3152 -0.8779  0.6319
 5991TIP3   OH239387   5.508   2.001  15.540 -0.3726  0.8160  1.1572
 5991TIP3    H139388   5.449   2.016  15.614  0.3861 -0.8894  2.1741
 5991TIP3    H239389   5.550   1.917  15.559  0.9285  1.0216 -0.5097
 5992TIP3   OH239390   3.424   4.979  16.796 -0.0026 -0.9973  0.2936
 5992TIP3    H139391   3.369   5.056  16.811  0.8895 -0.3180  0.0961
 5992TIP3    H239392   3.503   4.995  16.847  0.8094 -1.1015 -0.8870
 5993TIP3   OH239393   6.361   6.493  16.946  0.1219  0.5436 -0.1097
 5993TIP3    H139394   6.270   6.500  16.920 -0.2965 -1.2457  0.7032
 5993TIP3    H239395   6.410   6.535  16.875 -1.3011  1.3443 -0.6569
 5994TIP3   OH239396   5.623   3.332   5.068 -0.5068 -0.0424 -0.3814
 5994TIP3    H139397   5.619   3.252   5.120 -1.7706  0.2769  0.0461
 5994TIP3    H239398   5.629   3.402   5.132  0.0173  0.2421 -0.7370
 5995TIP3   OH239399   3.736   0.428   4.123 -0.0223  0.8080  0.0050
 5995TIP3    H139400   3.752   0.451   4.031 -0.6951 -0.5865 -0.4913
 5995TIP3    H239401   3.706   0.337   4.120 -0.6506  0.9356  1.5629
 5996TIP3   OH239402   4.461   4.943  12.656 -0.4174  0.3904  0.3069
 5996TIP3    H139403   4.428   4.946  12.746  1.4422 -0.4644  1.0819
 5996TIP3    H239404   4.548   4.904  12.664 -0.5221 -0.4620 -1.9760
 5997TIP3   OH239405   4.273   2.123   1.491  0.5116 -0.3755 -0.4029
 5997TIP3    H139406   4.250   2.107   1.400  0.6983  3.5267 -1.3225
 5997TIP3    H239407   4.368   2.129   1.491  0.5295 -0.5735  0.1131
 5998TIP3   OH239408   1.169   1.795   5.135 -0.0126  0.1695 -0.1219
 5998TIP3    H139409   1.250   1.837   5.107  0.5987 -1.0395 -0.2122
 5998TIP3    H239410   1.167   1.808   5.229  0.6595 -0.4055 -0.0180
 5999TIP3   OH239411   6.375   5.587  10.653 -0.6105  0.0204 -0.6002
 5999TIP3    H139412   6.399   5.498  10.677 -1.4548  0.0608  0.4962
 5999TIP3    H239413   6.457   5.636  10.658 -0.7631  0.1862  3.2031
 6000TIP3   OH239414   0.945   6.696   0.956  0.0152  0.9726 -0.3306
 6000TIP3    H139415   1.001   6.689   1.034  0.1260  0.6606 -0.4404
 6000TIP3    H239416   0.873   6.635   0.973 -0.0552  1.0386 -0.3927
 6001TIP3   OH239417   4.606   6.718   5.340 -0.0459 -0.0457  0.6093
 6001TIP3    H139418   4.630   6.700   5.250 -3.0094  0.1490 -0.3384
 6001TIP3    H239419   4.662   6.790   5.367  1.2852 -0.4916 -0.8541
 6002TIP3   OH239420   3.123   0.476  14.318 -0.0813  0.1741 -0.1447
 6002TIP3    H139421   3.058   0.406  14.313 -0.6788  0.6572  0.6126
 6002TIP3    H239422   3.193   0.440  14.372  0.3148 -0.3629 -0.9965
 6003TIP3   OH239423   0.936   5.860  14.023  0.6702 -0.1727  0.2053
 6003TIP3    H139424   0.984   5.855  13.940 -0.3970  0.7325 -0.5074
 6003TIP3    H239425   0.903   5.771  14.037 -0.0163 -0.1139 -0.9129
 6004TIP3   OH239426   4.561   6.303   0.440  0.3976 -0.5202 -0.1918
 6004TIP3    H139427   4.606   6.358   0.504  0.0414 -1.0698  0.5516
 6004TIP3    H239428   4.558   6.356   0.360 -0.8876  1.0061  0.7913
 6005TIP3   OH239429   6.055   5.833   0.444  0.6804 -0.4107  0.7264
 6005TIP3    H139430   6.130   5.773   0.447  2.0261  0.9927 -1.6386
 6005TIP3    H239431   5.990   5.787   0.391  0.6627 -0.7969  1.0719
 6006TIP3   OH239432   4.953   1.728   4.425 -0.4159  0.2228 -0.2387
 6006TIP3    H139433   5.028   1.737   4.485  0.6341  1.0137 -1.6173
 6006TIP3    H239434   4.934   1.817   4.397 -3.0994  0.2808  1.4454
 6007TIP3   OH239435   3.247   5.214   1.064 -0.3012  0.7904 -0.3358
 6007TIP3    H139436   3.181   5.190   0.998 -0.3855  0.1628 -0.0356
 6007TIP3    H239437   3.224   5.161   1.140 -1.1858  2.6692  0.7840
 6008TIP3   OH239438   2.822   3.870   1.819 -0.0272 -0.0374  0.4647
 6008TIP3    H139439   2.740   3.907   1.786 -0.3266  1.1324  2.3376
 6008TIP3    H239440   2.796   3.787   1.859  0.4443 -1.8108 -2.6178
 6009TIP3   OH239441   5.005   3.506  13.498  0.4271  0.4440  0.5229
 6009TIP3    H139442   4.962   3.543  13.421  0.7236  0.4823  0.3770
 6009TIP3    H239443   5.084   3.464  13.464  0.8217  0.8957  0.8691
 6010TIP3   OH239444   0.255   5.725  15.343  0.0532 -0.7890 -0.1163
 6010TIP3    H139445   0.200   5.647  15.350  0.3149 -1.0180 -0.5449
 6010TIP3    H239446   0.216   5.775  15.271  0.1373 -0.7324 -0.1220
 6011TIP3   OH239447   4.845   3.598   5.572  0.2767 -0.1847 -0.2640
 6011TIP3    H139448   4.819   3.617   5.662 -0.1445  0.5205 -0.5262
 6011TIP3    H239449   4.786   3.527   5.546 -0.3662  0.3601 -0.3393
 6012TIP3   OH239450   0.216   0.184   2.047  0.3050 -0.5430 -0.6871
 6012TIP3    H139451   0.227   0.180   1.952 -2.5622  1.6105 -1.2230
 6012TIP3    H239452   0.141   0.242   2.061  0.9000 -0.4019  2.9386
 6013TIP3   OH239453   5.589   1.469  17.021 -0.5425 -0.1389 -0.5001
 6013TIP3    H139454   5.611   1.556  16.985 -2.2097  0.0417 -1.1543
 6013TIP3    H239455   5.498   1.477  17.048 -0.4550 -1.4549  0.2392
 6014TIP3   OH239456   5.134   4.377   4.473  0.6216 -0.0886  0.9187
 6014TIP3    H139457   5.166   4.318   4.541  0.8167 -0.0101  0.8960
 6014TIP3    H239458   5.132   4.463   4.515  0.3044 -0.1161  0.9627
 6015TIP3   OH239459   1.205   3.279  14.606  0.1659  0.3939  0.4619
 6015TIP3    H139460   1.245   3.363  14.586  0.1603  0.3692  0.3447
 6015TIP3    H239461   1.113   3.289  14.582  0.0960  0.4580  0.7536
 6016TIP3   OH239462   3.249   0.996  13.265  0.1894 -0.5065 -0.1008
 6016TIP3    H139463   3.306   1.062  13.304 -0.7295  0.6465 -0.6516
 6016TIP3    H239464   3.165   1.007  13.309  0.0352 -1.3394 -0.1774
 6017TIP3   OH239465   6.619   5.255  15.245  0.8823  0.3420  0.0098
 6017TIP3    H139466   6.705   5.238  15.208  1.8468  0.9181  1.8834
 6017TIP3    H239467   6.564   5.278  15.169  2.3405 -0.0633 -1.2094
 6018TIP3   OH239468   6.080   0.931   0.313 -0.2424  0.3740  0.0218
 6018TIP3    H139469   6.026   0.966   0.384 -0.0093 -1.1794  1.0203
 6018TIP3    H239470   6.139   0.868   0.356  1.9813  1.5417 -1.1065
 6019TIP3   OH239471   5.148   1.153   5.382  0.2860  0.2054  0.4990
 6019TIP3    H139472   5.095   1.226   5.414  1.9110  1.0275  1.4485
 6019TIP3    H239473   5.086   1.081   5.372 -1.0993  1.2702  1.0108
 6020TIP3   OH239474   5.027   3.030  12.073 -0.4616  0.8252  0.3380
 6020TIP3    H139475   4.953   3.085  12.045 -0.8324  0.4553  0.5841
 6020TIP3    H239476   5.073   3.083  12.138  0.5075  1.7708 -1.0589
 6021TIP3   OH239477   0.902   2.596  12.109 -0.3384 -0.0897 -0.0246
 6021TIP3    H139478   0.822   2.574  12.156 -0.0650 -1.0485  0.0196
 6021TIP3    H239479   0.972   2.565  12.165  0.1385  1.8948  0.5307
 6022TIP3   OH239480   4.029   5.882   0.078 -0.7335  0.1639  0.3557
 6022TIP3    H139481   3.966   5.835   0.023 -0.8659 -1.1168  1.5460
 6022TIP3    H239482   4.077   5.937   0.017 -0.6613 -1.4456 -1.1259
 6023TIP3   OH239483   4.839   1.835   3.955 -0.9292 -0.1835  0.7751
 6023TIP3    H139484   4.835   1.754   4.005 -0.5362 -1.4310 -1.1137
 6023TIP3    H239485   4.759   1.834   3.902  0.1199 -0.5069 -0.8897
 6024TIP3   OH239486   5.647   1.472  12.318 -0.4499  0.1754  0.7938
 6024TIP3    H139487   5.642   1.384  12.281  2.3489 -0.7510  2.3226
 6024TIP3    H239488   5.735   1.503  12.294 -1.7749  3.1738 -0.7909
 6025TIP3   OH239489   1.455   1.777  15.715  0.4483 -0.3024  0.0638
 6025TIP3    H139490   1.446   1.842  15.784 -0.7308  0.4447 -0.7635
 6025TIP3    H239491   1.549   1.760  15.710  0.5352 -0.5727  1.9992
 6026TIP3   OH239492   4.556   3.101   5.383  0.7877 -0.4239 -0.1887
 6026TIP3    H139493   4.550   3.178   5.326  0.6247 -1.2156 -1.2627
 6026TIP3    H239494   4.608   3.038   5.333  1.5646 -0.7491  0.9881
 6027TIP3   OH239495   1.784   4.539  13.196  0.5187 -0.4936 -0.0459
 6027TIP3    H139496   1.857   4.595  13.224 -1.3149  2.1524 -0.1884
 6027TIP3    H239497   1.816   4.497  13.116  1.7511  0.9686 -0.3799
 6028TIP3   OH239498   0.123   6.340  13.818  0.0126  0.3763  0.2482
 6028TIP3    H139499   0.056   6.409  13.819  1.0312  1.4111 -0.1139
 6028TIP3    H239500   0.177   6.358  13.895 -0.2729 -0.6305  0.7033
 6029TIP3   OH239501   4.081   3.036  11.503 -0.0969 -0.2118  0.6709
 6029TIP3    H139502   4.007   3.034  11.564  0.9356 -1.2973  1.9511
 6029TIP3    H239503   4.149   2.984  11.546  1.4687  0.8555 -0.4005
 6030TIP3   OH239504   2.447   5.515   5.416 -0.0414  0.2730 -0.0378
 6030TIP3    H139505   2.443   5.520   5.512 -1.2039  1.8855 -0.1308
 6030TIP3    H239506   2.358   5.491   5.390 -0.2820  1.8478 -0.7713
 6031TIP3   OH239507   6.453   1.957  11.796  0.0434  0.0003 -0.3209
 6031TIP3    H139508   6.490   2.034  11.751  0.7067 -1.2313 -1.9824
 6031TIP3    H239509   6.525   1.895  11.801 -0.3762 -0.3816  1.3996
 6032TIP3   OH239510   1.733   2.479   2.392 -0.5804 -0.1007 -0.0731
 6032TIP3    H139511   1.638   2.466   2.390 -0.5579 -0.2890  0.0521
 6032TIP3    H239512   1.744   2.568   2.424 -0.7524  0.4672 -1.5575
 6033TIP3   OH239513   0.987   3.316  12.756  0.2032 -0.9177  0.4914
 6033TIP3    H139514   0.923   3.256  12.717 -0.9557  0.6607 -0.1631
 6033TIP3    H239515   0.984   3.297  12.850 -2.2387 -0.0419  0.6632
 6034TIP3   OH239516   6.765   6.698   4.544  0.3728 -0.2650  0.3168
 6034TIP3    H139517   6.727   6.774   4.588  0.3603 -0.7723  1.2176
 6034TIP3    H239518   6.845   6.732   4.503  0.1342  0.3258  0.3267
 6035TIP3   OH239519   6.574   0.922   1.338  0.0361  0.4859  0.5793
 6035TIP3    H139520   6.596   0.835   1.305  0.4868  0.8817 -0.1906
 6035TIP3    H239521   6.551   0.972   1.260  2.7650  1.9277  0.5710
 6036TIP3   OH239522   5.476   1.701  16.885  0.2251  0.1908  0.5139
 6036TIP3    H139523   5.504   1.764  16.819  1.1514  0.2606  0.9586
 6036TIP3    H239524   5.431   1.633  16.835  2.7801 -0.8576 -0.5276
 6037TIP3   OH239525   2.115   2.952   2.453 -0.3679  0.5706  0.1843
 6037TIP3    H139526   2.167   2.932   2.531 -1.7088 -1.5273  0.6054
 6037TIP3    H239527   2.064   2.873   2.436 -0.8895  1.3332 -2.2404
 6038TIP3   OH239528   5.049   0.748   0.095 -0.2442  0.0188 -0.4189
 6038TIP3    H139529   5.050   0.835   0.054  0.8170  0.0538 -0.3343
 6038TIP3    H239530   4.963   0.742   0.136 -0.4237  0.9298 -0.6410
 6039TIP3   OH239531   6.504   4.612  14.061 -0.3557  0.3082  0.2334
 6039TIP3    H139532   6.479   4.702  14.083 -0.3956  0.8079 -1.6781
 6039TIP3    H239533   6.485   4.562  14.140 -3.4868  1.3859  0.2960
 6040TIP3   OH239534   6.119   4.357   5.337 -0.1039 -0.3304 -0.3337
 6040TIP3    H139535   6.139   4.321   5.424 -0.2875  0.9544  0.2782
 6040TIP3    H239536   6.024   4.362   5.335 -0.1484  3.5945  1.2314
 6041TIP3   OH239537   6.059   0.970  14.713 -0.2671 -0.2899  0.3170
 6041TIP3    H139538   6.048   1.060  14.681  1.0131  0.3236  1.4941
 6041TIP3    H239539   6.151   0.965  14.739 -0.3374 -1.9394  0.3280
 6042TIP3   OH239540   5.870   5.677   0.046  0.2903 -0.6490 -0.3365
 6042TIP3    H139541   5.962   5.701   0.060  0.4355 -0.5004 -1.4548
 6042TIP3    H239542   5.833   5.752   0.000 -0.1433 -1.1140 -0.7542
 6043TIP3   OH239543   4.869   2.509   5.034  0.7895 -0.1149  0.3055
 6043TIP3    H139544   4.941   2.458   5.072  2.1620  1.7931  0.3636
 6043TIP3    H239545   4.895   2.600   5.045 -1.2736  0.6215 -0.4316
 6044TIP3   OH239546   0.066   4.235  16.814  0.1664 -0.4336 -0.1059
 6044TIP3    H139547   0.015   4.190  16.882 -0.2477  1.3881  0.8497
 6044TIP3    H239548   0.005   4.247  16.742 -0.2214  0.0609  0.2970
 6045TIP3   OH239549   1.735   5.925   5.250 -0.3994 -0.0032 -0.2264
 6045TIP3    H139550   1.684   5.978   5.312 -1.3624 -0.0476 -0.9569
 6045TIP3    H239551   1.721   5.835   5.278 -0.0904  0.0294  0.0363
 6046TIP3   OH239552   4.645   3.297  12.542 -0.1253 -1.1965  0.2670
 6046TIP3    H139553   4.704   3.350  12.488 -1.2509 -1.6084 -1.4436
 6046TIP3    H239554   4.698   3.270  12.617  1.3242 -0.1173 -0.3300
 6047TIP3   OH239555   4.095   3.943  11.099  0.1244 -0.5595  0.2665
 6047TIP3    H139556   4.134   3.885  11.164 -1.1114 -0.6238  0.9849
 6047TIP3    H239557   4.002   3.946  11.122 -0.1882  0.1077 -0.9822
 6048TIP3   OH239558   0.493   4.121   1.922  0.0998  0.4043  0.6477
 6048TIP3    H139559   0.411   4.118   1.873  0.3086  0.9822  0.2610
 6048TIP3    H239560   0.541   4.195   1.886  0.5453  0.4323  1.2740
 6049TIP3   OH239561   4.110   3.354  16.194 -0.0089 -0.4071  0.7795
 6049TIP3    H139562   4.103   3.262  16.218 -0.1367 -0.7128 -0.4085
 6049TIP3    H239563   4.022   3.389  16.209  0.0544 -0.4474  1.2905
 6050TIP3   OH239564   3.293   1.967  11.759  0.0315 -0.0147 -0.6040
 6050TIP3    H139565   3.385   1.943  11.746 -0.1589 -0.2160 -1.5901
 6050TIP3    H239566   3.244   1.892  11.728 -0.4864  0.2093 -0.3431
 6051TIP3   OH239567   6.710   0.370  12.441 -0.6233  0.0893  0.1757
 6051TIP3    H139568   6.733   0.288  12.484  0.4590  0.3618  0.1235
 6051TIP3    H239569   6.614   0.366  12.433 -0.5008 -1.7446 -0.9682
 6052TIP3   OH239570   5.245   3.643  16.477 -0.4036 -0.0554 -0.0942
 6052TIP3    H139571   5.161   3.675  16.512 -1.2679 -0.1474 -1.9283
 6052TIP3    H239572   5.268   3.569  16.533 -0.7129  0.9485  1.4207
 6053TIP3   OH239573   1.816   3.146  11.011  0.1237 -0.3379 -0.3203
 6053TIP3    H139574   1.900   3.155  10.966 -0.4842  2.6131 -1.0854
 6053TIP3    H239575   1.754   3.120  10.943  0.2167 -1.7334  0.0901
 6054TIP3   OH239576   1.558   0.228   2.413 -0.4139  0.1097 -0.0628
 6054TIP3    H139577   1.574   0.309   2.365  1.9920  0.7244  1.5967
 6054TIP3    H239578   1.493   0.251   2.480 -1.5839 -0.0091 -1.1324
 6055TIP3   OH239579   0.678   2.158  12.648 -0.2244  0.1101  0.3911
 6055TIP3    H139580   0.727   2.097  12.593  0.0370  0.0552  0.6819
 6055TIP3    H239581   0.603   2.107  12.678  0.9121 -0.6502  2.0708
 6056TIP3   OH239582   4.567   2.089   1.477  0.6931 -0.3783 -0.1027
 6056TIP3    H139583   4.630   2.161   1.472  0.7193 -0.4291 -0.5438
 6056TIP3    H239584   4.617   2.016   1.514  0.8585 -0.3788 -0.3235
 6057TIP3   OH239585   5.126   3.272  12.218 -0.5969 -0.5542  0.8128
 6057TIP3    H139586   5.106   3.340  12.153 -0.9719  1.9932  3.3487
 6057TIP3    H239587   5.221   3.264  12.217 -0.5626 -0.1310  0.3240
 6058TIP3   OH239588   6.672   5.354   0.857 -0.8669  0.1113  0.2506
 6058TIP3    H139589   6.690   5.393   0.772 -2.5883 -1.1526 -0.7673
 6058TIP3    H239590   6.759   5.335   0.894 -0.0625 -0.5696 -1.8412
 6059TIP3   OH239591   5.948   1.578   0.920 -0.3683 -0.0808  0.4624
 6059TIP3    H139592   5.939   1.536   0.834  0.6798 -0.4709  0.5321
 6059TIP3    H239593   5.924   1.509   0.982 -1.5292  0.3236  0.4805
 6060TIP3   OH239594   3.610   5.272   2.651 -0.5877 -0.3229 -0.1070
 6060TIP3    H139595   3.668   5.208   2.692 -1.1871  0.0643  1.4389
 6060TIP3    H239596   3.657   5.355   2.659 -2.0724  0.3497  2.9584
 6061TIP3   OH239597   6.649   5.230   0.413  0.1152 -0.0460  0.9381
 6061TIP3    H139598   6.576   5.265   0.362 -0.1983  0.1058  1.4804
 6061TIP3    H239599   6.690   5.166   0.355 -0.7999 -0.5603  0.8287
 6062TIP3   OH239600   6.179   4.215  14.396 -0.2113 -0.0648  0.3383
 6062TIP3    H139601   6.154   4.128  14.367  1.1245 -0.2035 -0.4833
 6062TIP3    H239602   6.138   4.225  14.482  0.1585 -1.7601  0.7420
 6063TIP3   OH239603   5.916   3.404  15.889 -0.6302 -0.0715  0.2385
 6063TIP3    H139604   5.886   3.356  15.812 -2.0006 -0.3505  0.9116
 6063TIP3    H239605   5.900   3.345  15.962  0.5256  0.2384  0.7758
 6064TIP3   OH239606   5.656   4.482  12.980  0.1676 -0.7320  0.4626
 6064TIP3    H139607   5.562   4.490  12.962  0.1238  1.7324  1.4137
 6064TIP3    H239608   5.697   4.475  12.894 -0.7453  0.4324 -0.0948
 6065TIP3   OH239609   4.312   1.232   2.113 -0.6535 -0.2022 -0.0312
 6065TIP3    H139610   4.322   1.278   2.029 -1.1150 -1.0147 -0.5518
 6065TIP3    H239611   4.219   1.236   2.132 -0.8667 -1.6772 -0.5662
 6066TIP3   OH239612   5.494   0.538  12.348 -0.2382 -0.1675 -0.8840
 6066TIP3    H139613   5.507   0.562  12.256 -0.5052  0.7431 -0.6945
 6066TIP3    H239614   5.480   0.622  12.393  0.5370 -0.5463  0.0960
 6067TIP3   OH239615   5.775   3.918   0.992 -0.6011 -0.1389 -0.6378
 6067TIP3    H139616   5.754   3.906   1.084  0.0208  0.2438 -0.4451
 6067TIP3    H239617   5.864   3.885   0.982 -0.8286 -0.6118 -1.2023
 6068TIP3   OH239618   1.775   2.486  15.447 -0.6079 -0.3468  0.3171
 6068TIP3    H139619   1.706   2.422  15.467 -1.5123  0.8251  1.0598
 6068TIP3    H239620   1.730   2.557  15.402  0.5579 -0.6104 -1.3766
 6069TIP3   OH239621   5.690   3.095   5.171 -0.0028 -0.0995 -0.5747
 6069TIP3    H139622   5.675   3.010   5.131  0.6701 -1.2822  1.5658
 6069TIP3    H239623   5.709   3.076   5.263 -0.0917  2.3803  0.0310
 6070TIP3   OH239624   0.693   2.924   1.385  0.0510 -0.3505  0.2431
 6070TIP3    H139625   0.705   2.970   1.302  0.7729  0.1219  0.6045
 6070TIP3    H239626   0.601   2.937   1.407 -0.0922 -0.3051 -0.3760
 6071TIP3   OH239627   1.338   1.345  16.159 -0.0992  0.5685 -0.1190
 6071TIP3    H139628   1.413   1.371  16.213 -0.7386  1.3683  0.4200
 6071TIP3    H239629   1.376   1.325  16.074  0.7051  1.1945  0.0710
 6072TIP3   OH239630   4.424   1.957   3.709  0.5609 -0.4552 -0.2987
 6072TIP3    H139631   4.455   2.040   3.747  0.6777 -0.1947 -0.9567
 6072TIP3    H239632   4.329   1.966   3.707  0.6342  0.2081 -1.5787
 6073TIP3   OH239633   0.719   4.574   1.075  0.2338 -0.1853 -0.2425
 6073TIP3    H139634   0.719   4.509   1.146 -0.6750  0.6895  0.6072
 6073TIP3    H239635   0.788   4.636   1.099  2.2250 -1.6626 -1.9030
 6074TIP3   OH239636   3.910   1.461  12.420  0.5566 -0.0509  0.3993
 6074TIP3    H139637   3.963   1.529  12.381  2.4897 -1.0533  1.1412
 6074TIP3    H239638   3.963   1.381  12.412 -1.8470 -1.6487 -0.9951
 6075TIP3   OH239639   2.083   1.434   3.246 -0.5119  0.0619 -0.0491
 6075TIP3    H139640   2.094   1.373   3.173 -0.4180  1.8851 -1.6057
 6075TIP3    H239641   2.114   1.518   3.213  0.6108  0.7365  2.4760
 6076TIP3   OH239642   2.834   4.159   4.658 -0.3986 -0.2336  0.8598
 6076TIP3    H139643   2.871   4.105   4.727  1.6408 -0.9928 -0.7317
 6076TIP3    H239644   2.852   4.249   4.686 -0.0875 -0.5057  1.5473
 6077TIP3   OH239645   4.706   3.428   0.856  0.7139 -0.2361 -0.0059
 6077TIP3    H139646   4.746   3.377   0.785  0.9892  0.1282 -0.1185
 6077TIP3    H239647   4.776   3.487   0.885  0.4668 -0.0760  0.2717
 6078TIP3   OH239648   1.645   1.365   1.907  0.1102 -0.5242  0.4157
 6078TIP3    H139649   1.621   1.405   1.823  1.8540  0.3792  0.2984
 6078TIP3    H239650   1.600   1.281   1.908  0.8028 -0.9830 -1.8683
 6079TIP3   OH239651   3.391   6.746  10.508  0.8607 -0.3477  0.0930
 6079TIP3    H139652   3.423   6.836  10.509 -0.6748  0.2473 -0.8581
 6079TIP3    H239653   3.342   6.737  10.590  1.3777 -0.4723  0.3935
 6080TIP3   OH239654   6.722   3.927   2.658  0.7270  0.0856 -0.7170
 6080TIP3    H139655   6.642   3.978   2.665  0.2080 -0.5122 -1.9598
 6080TIP3    H239656   6.693   3.836   2.663  1.5702 -0.1223  0.8554
 6081TIP3   OH239657   4.656   5.918  15.190  0.5997  0.2779  0.1604
 6081TIP3    H139658   4.648   5.826  15.164  0.4185 -0.4952  2.6224
 6081TIP3    H239659   4.622   5.967  15.116 -0.5836 -1.7067 -0.6978
 6082TIP3   OH239660   1.242   1.661  13.712 -0.0858  0.2668 -0.3561
 6082TIP3    H139661   1.247   1.739  13.767 -0.4165 -0.4617  0.7300
 6082TIP3    H239662   1.330   1.653  13.674  1.0804 -0.7881  2.3037
 6083TIP3   OH239663   2.261   2.915   3.750 -0.3546 -0.0697  0.0318
 6083TIP3    H139664   2.210   2.965   3.814  0.5934  1.7833 -0.5845
 6083TIP3    H239665   2.206   2.916   3.671 -0.7370 -0.8087  0.2838
 6084TIP3   OH239666   3.183   3.625   3.552  0.4603 -0.0335 -0.1622
 6084TIP3    H139667   3.142   3.590   3.473  1.7109 -1.7836 -0.0971
 6084TIP3    H239668   3.256   3.566   3.569  1.1848  1.2402  1.4103
 6085TIP3   OH239669   6.776   2.803  16.287 -0.2226  0.4896  0.0803
 6085TIP3    H139670   6.833   2.873  16.254 -0.9616  2.3782  2.4739
 6085TIP3    H239671   6.697   2.849  16.316 -0.7134 -1.3457  1.8266
 6086TIP3   OH239672   4.880   1.373  13.399  0.7447 -0.1574  0.3010
 6086TIP3    H139673   4.841   1.329  13.323  1.2774 -0.1643  0.0323
 6086TIP3    H239674   4.930   1.446  13.362  2.1911 -1.0112  0.5228
 6087TIP3   OH239675   5.021   6.241  15.155  0.0637  0.0466 -0.4772
 6087TIP3    H139676   4.929   6.229  15.131 -0.5398  0.3062  1.5139
 6087TIP3    H239677   5.039   6.333  15.135  0.1579 -0.1998 -1.6105
 6088TIP3   OH239678   2.260   2.842  15.882 -0.3481  0.0393 -0.2358
 6088TIP3    H139679   2.275   2.751  15.909 -0.8024  0.0939  0.2224
 6088TIP3    H239680   2.173   2.842  15.844  0.1509  0.0388 -1.4173
 6089TIP3   OH239681   6.168   3.785   3.166  0.3821  0.0304  0.4176
 6089TIP3    H139682   6.124   3.776   3.251 -0.2747 -1.2764 -0.0399
 6089TIP3    H239683   6.163   3.698   3.127  1.2603  0.4563 -0.6927
 6090TIP3   OH239684   2.679   4.403  12.102 -0.3035 -0.8231  0.1300
 6090TIP3    H139685   2.682   4.308  12.101  0.7141 -0.8772  2.1560
 6090TIP3    H239686   2.597   4.424  12.147 -0.0796 -0.7746  0.5205
 6091TIP3   OH239687   4.010   3.184  11.271 -0.8300  0.0801 -0.2640
 6091TIP3    H139688   4.042   3.120  11.335  1.3423  0.4411 -0.8795
 6091TIP3    H239689   4.053   3.159  11.189  1.1455  2.9816 -0.2614
 6092TIP3   OH239690   2.548   5.015  11.429 -0.0902 -0.2768 -0.3034
 6092TIP3    H139691   2.608   4.947  11.397 -1.8110 -1.2720 -1.6371
 6092TIP3    H239692   2.540   5.076  11.356 -1.2734 -0.5990 -0.4697
 6093TIP3   OH239693   4.479   0.390  11.346 -0.2845  0.3491 -0.3127
 6093TIP3    H139694   4.463   0.298  11.325 -0.6483 -0.1470  1.9023
 6093TIP3    H239695   4.570   0.406  11.320 -0.4825 -0.3561 -1.5238
 6094TIP3   OH239696   1.162   6.637  11.255  0.1520  0.1958  0.2195
 6094TIP3    H139697   1.178   6.679  11.170 -0.6332 -0.9772 -0.5483
 6094TIP3    H239698   1.079   6.591  11.243  0.5630 -0.8686  1.2958
 6095TIP3   OH239699   0.489   3.146   2.656  0.3743 -0.2063  0.3537
 6095TIP3    H139700   0.564   3.159   2.598 -0.5343 -0.4762 -0.9164
 6095TIP3    H239701   0.427   3.096   2.604 -0.4719 -0.4686  1.5802
 6096TIP3   OH239702   1.200   0.979   5.773 -0.2417  0.0428 -0.7565
 6096TIP3    H139703   1.222   0.976   5.866  1.7357  1.1229 -1.1287
 6096TIP3    H239704   1.238   0.900   5.736 -1.3249 -0.5621 -0.6303
 6097TIP3   OH239705   1.328   2.732   1.164  0.0329  0.0141 -0.6316
 6097TIP3    H139706   1.259   2.714   1.101 -0.4722 -2.5497  0.5316
 6097TIP3    H239707   1.375   2.807   1.127 -2.2500  0.7440 -2.3335
 6098TIP3   OH239708   6.237   1.900   3.926 -0.6004  0.2154  0.0976
 6098TIP3    H139709   6.179   1.842   3.976  0.9591 -1.3639  0.2107
 6098TIP3    H239710   6.227   1.986   3.967  0.1737 -0.8787  2.8256
 6099TIP3   OH239711   1.229   3.462  16.801  0.0655 -0.4191  0.1261
 6099TIP3    H139712   1.171   3.466  16.878  0.0289  2.6246  0.0545
 6099TIP3    H239713   1.202   3.536  16.747  2.1349 -0.6620 -1.3576
 6100TIP3   OH239714   5.619   3.507  16.074  0.2249  0.0660 -0.1630
 6100TIP3    H139715   5.595   3.493  16.166  1.4916  0.1661  0.2115
 6100TIP3    H239716   5.627   3.419  16.037  1.2871 -0.0528  0.2854
 6101TIP3   OH239717   3.827   1.408   0.935 -0.4605 -0.2402  0.6133
 6101TIP3    H139718   3.802   1.395   1.027 -1.7815 -1.0298  0.1629
 6101TIP3    H239719   3.779   1.340   0.888 -0.6275  0.8368 -0.8052
 6102TIP3   OH239720   5.973   0.373   2.988  0.1190 -0.2101 -0.0876
 6102TIP3    H139721   5.981   0.388   2.893  0.5138  0.8743  0.0959
 6102TIP3    H239722   6.047   0.316   3.009  0.0923 -0.3711 -0.4217
 6103TIP3   OH239723   5.604   5.194  14.847  0.5128  0.1456 -0.0344
 6103TIP3    H139724   5.540   5.179  14.917  0.0040  0.3421 -0.4489
 6103TIP3    H239725   5.609   5.110  14.801  1.3133 -0.1751  0.5988
 6104TIP3   OH239726   6.379   4.753   5.162  0.0173 -0.3496  0.2404
 6104TIP3    H139727   6.453   4.725   5.216 -1.2512  1.4095  3.1299
 6104TIP3    H239728   6.335   4.672   5.138  1.3729 -1.2712  0.7437
 6105TIP3   OH239729   4.887   3.652  11.368 -0.1398 -0.6717  0.5453
 6105TIP3    H139730   4.843   3.571  11.343  0.3731 -1.0951  1.0122
 6105TIP3    H239731   4.936   3.678  11.290 -1.8568  0.2791 -0.3045
 6106TIP3   OH239732   0.211   4.462  16.920  0.4049  0.0006  0.3388
 6106TIP3    H139733   0.157   4.384  16.909  0.0478  0.4327 -1.1441
 6106TIP3    H239734   0.290   4.444  16.869  0.9349  0.0704  1.1090
 6107TIP3   OH239735   3.501   5.378   6.150 -0.2585 -0.5875 -0.3154
 6107TIP3    H139736   3.438   5.366   6.221 -0.0321 -0.6911 -0.1343
 6107TIP3    H239737   3.447   5.377   6.070 -0.4468 -0.9989 -0.1846
 6108TIP3   OH239738   0.603   2.292   4.670  0.0018 -0.1997  0.0661
 6108TIP3    H139739   0.513   2.299   4.637 -0.4310 -1.2356  0.9799
 6108TIP3    H239740   0.647   2.369   4.634 -1.5046  0.8796  0.4029
 6109TIP3   OH239741   0.896   0.015   1.244  0.2669 -0.2154  0.2166
 6109TIP3    H139742   0.854  -0.071   1.239  0.5427 -0.3420  0.0583
 6109TIP3    H239743   0.862   0.062   1.168 -0.0263 -0.1184  0.4055
 6110TIP3   OH239744   1.463   5.087   2.392 -0.1002  0.0936 -1.0282
 6110TIP3    H139745   1.471   5.050   2.480 -0.2879  1.0182 -0.6107
 6110TIP3    H239746   1.553   5.109   2.366 -0.0641 -0.0224 -1.0017
 6111TIP3   OH239747   2.596   5.919   5.729  0.2496 -0.1875 -0.3305
 6111TIP3    H139748   2.559   5.944   5.813  0.2197  0.0851 -0.4245
 6111TIP3    H239749   2.529   5.865   5.688  0.3061 -0.4042 -0.1358
 6112TIP3   OH239750   5.516   6.132  13.970 -0.0053 -0.1949 -0.1566
 6112TIP3    H139751   5.566   6.114  14.049  0.7537  1.2348 -0.2737
 6112TIP3    H239752   5.424   6.117  13.995  0.3434 -1.2655  0.5264
 6113TIP3   OH239753   0.035   3.951   0.166 -0.2789 -0.2914  0.3057
 6113TIP3    H139754   0.086   3.904   0.232 -1.0713 -1.1275  0.3325
 6113TIP3    H239755   0.098   4.012   0.126  0.5297 -0.7203  0.9028
 6114TIP3   OH239756   3.292   6.690  16.315  0.7134  0.3372  0.3842
 6114TIP3    H139757   3.352   6.723  16.382  1.0748  0.5209 -0.0205
 6114TIP3    H239758   3.296   6.755  16.245 -0.0625  0.4170  0.4048
 6115TIP3   OH239759   3.994   6.316   2.080  0.0096 -0.1094  0.2177
 6115TIP3    H139760   3.932   6.273   2.138 -1.2258  0.2913 -0.7752
 6115TIP3    H239761   3.940   6.359   2.014  1.2463  1.8346  0.3876
 6116TIP3   OH239762   0.053   5.909   5.624  0.0443  0.4444 -0.3369
 6116TIP3    H139763   0.026   5.998   5.646  1.5662  1.4771 -2.2965
 6116TIP3    H239764  -0.008   5.882   5.555  1.1319  1.0275 -1.5718
 6117TIP3   OH239765   2.847   6.133   3.474  0.4916 -0.0167 -0.0998
 6117TIP3    H139766   2.930   6.178   3.460 -0.1196  1.4987  0.9263
 6117TIP3    H239767   2.873   6.048   3.511  1.5932  1.3564  2.6270
 6118TIP3   OH239768   5.744   5.914   3.763  0.3181 -0.5093  0.0222
 6118TIP3    H139769   5.756   5.995   3.813  0.2373 -1.1563  1.1087
 6118TIP3    H239770   5.650   5.909   3.748  0.0862 -1.3245  1.5714
 6119TIP3   OH239771   6.580   2.322  12.769 -0.0836  0.6094  0.1971
 6119TIP3    H139772   6.636   2.263  12.819  0.6776  0.1465 -1.1510
 6119TIP3    H239773   6.638   2.393  12.741  0.3540 -0.6888 -2.5932
 6120TIP3   OH239774   4.991   6.493   0.528 -0.2592 -0.1388  0.0463
 6120TIP3    H139775   4.909   6.443   0.531  0.2982 -1.0897 -0.0202
 6120TIP3    H239776   4.994   6.539   0.612 -1.1279  0.3481 -0.1844
 6121TIP3   OH239777   3.163   0.938  15.348  0.5273 -0.0138 -1.0360
 6121TIP3    H139778   3.145   0.965  15.258 -1.9812  1.3845 -0.2232
 6121TIP3    H239779   3.130   1.011  15.401  2.7726 -0.3663  1.0286
 6122TIP3   OH239780   0.295   4.584  16.569 -0.4612 -0.2475 -0.0614
 6122TIP3    H139781   0.306   4.607  16.477  1.6130  0.7342  0.3964
 6122TIP3    H239782   0.273   4.490  16.567  3.2066 -1.2568 -1.4781
 6123TIP3   OH239783   3.588   4.273   3.942  0.2532  0.3529 -0.0800
 6123TIP3    H139784   3.666   4.279   3.997  0.9462  1.9293 -1.1609
 6123TIP3    H239785   3.609   4.324   3.864 -1.4153 -0.2098 -0.9635
 6124TIP3   OH239786   3.859   6.130  15.794 -0.0068  0.2359  0.2953
 6124TIP3    H139787   3.947   6.151  15.825 -1.0117  0.5707  3.3603
 6124TIP3    H239788   3.847   6.038  15.815 -0.8925  0.5859  1.4512
 6125TIP3   OH239789   5.938   2.691   3.824  0.3418 -0.6220  0.1247
 6125TIP3    H139790   5.906   2.697   3.734 -2.3244 -1.8494  0.8937
 6125TIP3    H239791   5.913   2.603   3.853  0.0386  0.1593  2.4536
 6126TIP3   OH239792   2.162   5.475   4.708  0.4269 -0.0858  0.1983
 6126TIP3    H139793   2.144   5.420   4.631 -0.0444  0.3207  0.0169
 6126TIP3    H239794   2.257   5.467   4.721  0.2953 -1.3713  0.5030
 6127TIP3   OH239795   4.531   3.137   4.098  0.1025 -0.5374  0.3183
 6127TIP3    H139796   4.550   3.216   4.048 -2.5435 -0.6682 -1.0647
 6127TIP3    H239797   4.448   3.156   4.142  0.7828 -1.5996  2.2019
 6128TIP3   OH239798   2.528   4.377   1.167 -0.3972  0.1530 -0.0565
 6128TIP3    H139799   2.583   4.381   1.089  0.3346 -0.6692  0.4002
 6128TIP3    H239800   2.531   4.285   1.193  0.8060  0.7115  1.9651
 6129TIP3   OH239801   4.609   4.012   3.565  0.4422  0.5785  0.4008
 6129TIP3    H139802   4.580   4.098   3.533  0.5215  0.2939 -0.4572
 6129TIP3    H239803   4.601   3.954   3.489 -0.5873 -0.4207  1.2239
 6130TIP3   OH239804   4.709   0.471   4.997  0.4122  0.7148  0.0226
 6130TIP3    H139805   4.640   0.515   4.946  0.7645  0.5674 -0.5953
 6130TIP3    H239806   4.749   0.411   4.935  0.4887  0.1269  0.6373
 6131TIP3   OH239807   2.676   2.741  15.159 -0.0125  0.3412 -0.2476
 6131TIP3    H139808   2.675   2.831  15.190  0.4401 -0.4667  2.2923
 6131TIP3    H239809   2.583   2.717  15.152 -0.1432  0.4239  0.9759
 6132TIP3   OH239810   0.037   1.878  11.867 -0.3805 -0.0404  0.4032
 6132TIP3    H139811   0.053   1.919  11.781 -0.8290 -0.5357  0.0754
 6132TIP3    H239812   0.033   1.952  11.928  0.2203  0.3002  0.0445
 6133TIP3   OH239813   3.010   2.623  14.780 -0.1222 -0.0817  0.6303
 6133TIP3    H139814   2.959   2.678  14.840 -2.8330 -0.4435 -1.1921
 6133TIP3    H239815   2.998   2.534  14.812  0.7938 -0.0349  1.1444
 6134TIP3   OH239816   6.039   1.600   4.422  0.1888 -0.4739 -1.1335
 6134TIP3    H139817   6.012   1.508   4.413 -0.4889 -0.2455 -1.5405
 6134TIP3    H239818   5.967   1.650   4.382  0.4734  0.2421 -0.7712
 6135TIP3   OH239819   5.095   2.681   2.441 -0.4321 -0.2598  0.3558
 6135TIP3    H139820   5.131   2.770   2.445 -0.5991 -0.1867  0.2860
 6135TIP3    H239821   5.053   2.669   2.525 -1.8342  0.3542 -0.2194
 6136TIP3   OH239822   1.929   2.011  10.835 -0.8360 -0.2460  0.1082
 6136TIP3    H139823   1.859   1.998  10.771 -0.7052 -0.3877 -0.0062
 6136TIP3    H239824   1.991   2.070  10.793  0.6921 -2.5211 -1.0558
 6137TIP3   OH239825   6.483   6.237  11.481  0.3698 -0.1164 -0.3787
 6137TIP3    H139826   6.425   6.260  11.554  0.8810  2.9861 -0.7935
 6137TIP3    H239827   6.554   6.187  11.522 -1.0079 -1.3596  0.6232
 6138TIP3   OH239828   1.724   5.647   3.016 -0.3080  0.2467  0.1124
 6138TIP3    H139829   1.687   5.728   3.051 -0.6919 -0.0544  0.4072
 6138TIP3    H239830   1.657   5.581   3.032  0.0139 -0.1382 -0.1056
 6139TIP3   OH239831   4.163   3.777  12.894 -0.0129 -0.2153  0.4089
 6139TIP3    H139832   4.143   3.861  12.853  1.9118 -1.1634 -2.7879
 6139TIP3    H239833   4.106   3.714  12.849 -0.3979 -0.8733  1.7578
 6140TIP3   OH239834   1.123   4.762  10.712 -0.0123 -0.0000 -0.0435
 6140TIP3    H139835   1.183   4.729  10.778 -0.2559  2.0780  1.3418
 6140TIP3    H239836   1.169   4.836  10.673 -0.9361  0.5021 -0.2206
 6141TIP3   OH239837   3.488   4.090  13.340 -0.2565  0.1257 -0.2549
 6141TIP3    H139838   3.513   4.177  13.372  2.1919 -0.9754  1.1065
 6141TIP3    H239839   3.436   4.053  13.411 -0.3422  0.0621 -0.3512
 6142TIP3   OH239840   5.039   3.526   0.621 -0.0797  0.1827  0.1138
 6142TIP3    H139841   5.111   3.470   0.592 -0.1139  0.2979 -0.2067
 6142TIP3    H239842   4.985   3.537   0.542 -0.2296  0.4269  0.2495
 6143TIP3   OH239843   3.253   1.224  14.417  0.1321 -0.0088  0.1253
 6143TIP3    H139844   3.307   1.229  14.496  0.0540  4.8658  0.1561
 6143TIP3    H239845   3.315   1.199  14.348  1.1702  0.0306  1.0062
 6144TIP3   OH239846   1.502   0.768  15.952  0.4081  0.4151 -0.1282
 6144TIP3    H139847   1.487   0.752  16.045 -2.3065  0.9547 -0.3964
 6144TIP3    H239848   1.500   0.681  15.912  0.1991  0.2838  0.1650
 6145TIP3   OH239849   4.753   2.441   4.778 -0.4045 -0.0330 -0.2599
 6145TIP3    H139850   4.838   2.404   4.757  0.1913  0.8401  0.5293
 6145TIP3    H239851   4.737   2.417   4.869 -1.1181 -0.3915 -0.4706
 6146TIP3   OH239852   5.881   5.383   4.501  0.3870  0.3202 -0.2139
 6146TIP3    H139853   5.910   5.299   4.535  1.1253  0.0149 -1.5304
 6146TIP3    H239854   5.929   5.447   4.554 -0.1116 -0.0605  0.7323
 6147TIP3   OH239855   5.713   1.478   2.327 -0.5108  0.2289  0.0377
 6147TIP3    H139856   5.721   1.473   2.422 -1.2337 -0.4045  0.0693
 6147TIP3    H239857   5.619   1.482   2.310 -0.3773  0.7290 -0.6375
 6148TIP3   OH239858   6.639   3.150   2.809 -0.0187 -0.6863 -0.1459
 6148TIP3    H139859   6.685   3.099   2.876 -0.0027  0.6710  0.9280
 6148TIP3    H239860   6.699   3.221   2.787 -0.8735  0.1170  0.0154
 6149TIP3   OH239861   4.081   2.004   1.258  0.3025  0.0371  0.1207
 6149TIP3    H139862   4.139   2.009   1.182  0.8479 -0.6468  0.4717
 6149TIP3    H239863   3.996   1.980   1.222  0.7784 -1.2522 -0.1967
 6150TIP3   OH239864   0.372   6.023   5.013  0.5530  0.1599  0.2314
 6150TIP3    H139865   0.361   5.958   4.943  1.4220  1.8556 -1.6010
 6150TIP3    H239866   0.467   6.034   5.019  0.4410  0.6337  1.1305
 6151TIP3   OH239867   2.744   5.811   6.228 -0.0038 -0.0044  0.1173
 6151TIP3    H139868   2.793   5.733   6.254 -0.6757 -1.7088 -3.1795
 6151TIP3    H239869   2.670   5.815   6.289 -0.3467 -2.4420 -0.0556
 6152TIP3   OH239870   0.566   0.902   1.766  0.2727  0.4345 -0.3450
 6152TIP3    H139871   0.576   0.995   1.787  0.9163  0.1921  0.4453
 6152TIP3    H239872   0.475   0.882   1.790  0.8999  0.2259  2.1180
 6153TIP3   OH239873   1.279   4.527  14.291  0.2525 -0.2253 -0.2687
 6153TIP3    H139874   1.284   4.459  14.358 -1.6189 -0.8159 -0.6704
 6153TIP3    H239875   1.306   4.484  14.210 -1.5808 -0.7410 -0.6527
 6154TIP3   OH239876   4.464   4.771  13.953 -0.7203  0.5142  0.3106
 6154TIP3    H139877   4.557   4.766  13.930 -0.7183  0.1801  0.3886
 6154TIP3    H239878   4.418   4.760  13.870 -0.6897  0.7958  0.2544
 6155TIP3   OH239879   3.169   3.452   4.445 -0.4526 -0.2861  0.0824
 6155TIP3    H139880   3.231   3.425   4.378 -1.6502 -1.0184 -0.7756
 6155TIP3    H239881   3.088   3.406   4.423 -0.4894 -1.8341  2.9194
 6156TIP3   OH239882   2.115   1.665   4.261  0.7572  0.0223 -0.1368
 6156TIP3    H139883   2.074   1.593   4.212 -0.6955  1.1243 -0.6193
 6156TIP3    H239884   2.099   1.643   4.353 -0.3372  0.0581 -0.2980
 6157TIP3   OH239885   5.799   6.079   6.195 -0.5022 -0.1264 -0.0469
 6157TIP3    H139886   5.805   6.174   6.207 -0.7720 -0.1171  0.0073
 6157TIP3    H239887   5.838   6.043   6.275  1.0490 -0.0666 -0.7409
 6158TIP3   OH239888   2.173   1.937  11.761  0.6474 -0.6404 -0.0932
 6158TIP3    H139889   2.167   1.843  11.742  0.7176 -0.6136 -0.2462
 6158TIP3    H239890   2.259   1.948  11.801 -0.0398 -0.9291  1.5660
 6159TIP3   OH239891   0.746   2.797  11.097  0.2514 -0.3542 -0.7542
 6159TIP3    H139892   0.667   2.801  11.150  0.0059  1.3599 -1.1765
 6159TIP3    H239893   0.722   2.745  11.020 -0.8268  1.0336 -1.3972
 6160TIP3   OH239894   1.756   5.266  12.524 -0.2043 -0.0971 -0.3661
 6160TIP3    H139895   1.693   5.226  12.465  0.2298 -1.1710 -0.1273
 6160TIP3    H239896   1.802   5.330  12.470 -0.1691 -0.6925 -1.0531
 6161TIP3   OH239897   3.574   2.360   2.828 -0.0690 -0.5389 -0.3861
 6161TIP3    H139898   3.512   2.420   2.786  0.0277 -0.7490 -0.8272
 6161TIP3    H239899   3.519   2.304   2.883 -0.2615 -0.6755 -0.7173
 6162TIP3   OH239900   0.772   1.997  11.703  0.0023 -0.2040  0.1516
 6162TIP3    H139901   0.718   1.936  11.754  1.8988 -2.8334 -0.7550
 6162TIP3    H239902   0.790   1.950  11.621  1.7212  1.5237 -0.5302
 6163TIP3   OH239903   2.705   5.081   2.998  0.3905  0.2315 -0.0919
 6163TIP3    H139904   2.766   5.153   3.016 -0.0355  0.6935 -0.4488
 6163TIP3    H239905   2.685   5.090   2.904  1.0043 -0.8830 -0.3420
 6164TIP3   OH239906   1.456   1.058   3.798 -0.4020  0.0276 -0.1731
 6164TIP3    H139907   1.538   1.096   3.829  0.0417 -0.9639 -0.1177
 6164TIP3    H239908   1.389   1.099   3.852  0.1470  0.1131  0.4544
 6165TIP3   OH239909   3.086   2.334  14.859 -0.0354  0.7851 -0.5686
 6165TIP3    H139910   3.089   2.244  14.827  0.3288  0.8738 -0.7803
 6165TIP3    H239911   3.154   2.380  14.810 -1.3022  1.5717 -1.6892
 6166TIP3   OH239912   2.010   1.262   0.622 -0.1490  0.8747 -0.5336
 6166TIP3    H139913   1.983   1.230   0.536  1.7199 -2.8914  0.0373
 6166TIP3    H239914   1.966   1.203   0.684  0.6174  1.7828  0.9312
 6167TIP3   OH239915   1.879   2.993  17.122  0.6832 -0.5858 -0.2617
 6167TIP3    H139916   1.820   3.068  17.127  1.2905 -0.1472  0.4867
 6167TIP3    H239917   1.919   2.988  17.208  2.0029 -0.6545 -0.8588
 6168TIP3   OH239918   2.216   3.755  13.122  0.2141  0.3110 -0.5995
 6168TIP3    H139919   2.174   3.829  13.165 -3.0859 -1.6118 -0.2456
 6168TIP3    H239920   2.203   3.771  13.028 -0.2042  0.3544 -0.5361
 6169TIP3   OH239921   1.497   5.299   1.911  0.2151 -0.2383  0.2096
 6169TIP3    H139922   1.578   5.307   1.861  0.3156 -0.2167  0.3757
 6169TIP3    H239923   1.436   5.256   1.851  0.5641 -0.9099  0.3256
 6170TIP3   OH239924   3.459   2.682   2.600  0.0454 -0.4576 -0.0359
 6170TIP3    H139925   3.530   2.617   2.598  1.1436  0.6607  0.5972
 6170TIP3    H239926   3.482   2.739   2.674 -1.0875  0.4183 -0.3328
 6171TIP3   OH239927   1.583   3.215  14.278 -0.3265  0.1874 -0.2009
 6171TIP3    H139928   1.548   3.204  14.190 -1.2306 -0.1156  0.1822
 6171TIP3    H239929   1.507   3.204  14.335  0.8259 -3.6796  0.8933
 6172TIP3   OH239930   4.700   4.938   0.501  0.3130  0.1171  0.5301
 6172TIP3    H139931   4.624   4.951   0.445  0.3038  2.1415  0.9458
 6172TIP3    H239932   4.706   5.019   0.552  2.0173 -0.5132  1.3900
 6173TIP3   OH239933   3.163   0.420  12.885  0.2731  0.4803 -0.0489
 6173TIP3    H139934   3.218   0.489  12.921  2.2225 -0.5762 -0.8363
 6173TIP3    H239935   3.111   0.463  12.817 -1.2746  1.8746  1.9075
 6174TIP3   OH239936   5.317   3.903  16.001  0.0406  0.3480  0.1689
 6174TIP3    H139937   5.314   3.943  15.915 -0.7593 -0.6349 -0.2852
 6174TIP3    H239938   5.348   3.814  15.986  0.5096  0.3597  0.9802
 6175TIP3   OH239939   3.351   1.284  14.826  0.1768  0.0916  0.4835
 6175TIP3    H139940   3.328   1.273  14.918 -0.5998  0.9533  0.4112
 6175TIP3    H239941   3.269   1.308  14.783  0.1583 -1.9595 -0.7646
 6176TIP3   OH239942   6.343   5.364  15.820 -0.9797  0.0088  0.2577
 6176TIP3    H139943   6.326   5.344  15.728 -1.0506 -0.2356  0.3230
 6176TIP3    H239944   6.320   5.283  15.866 -0.0136 -0.2044  0.3882
 6177TIP3   OH239945   5.464   5.866   3.736 -0.1129 -0.6236  0.1107
 6177TIP3    H139946   5.453   5.925   3.810 -0.6367 -0.7930  0.1698
 6177TIP3    H239947   5.385   5.812   3.736 -0.2760 -0.3948 -0.7811
 6178TIP3   OH239948   0.748   2.009   0.546 -0.2866  0.9700 -0.3447
 6178TIP3    H139949   0.660   1.979   0.526 -0.5688  1.2463  0.4243
 6178TIP3    H239950   0.776   1.955   0.620  0.4666  0.4063 -1.0336
 6179TIP3   OH239951   4.910   0.947   1.877 -0.1454 -0.4990  0.0445
 6179TIP3    H139952   4.878   0.881   1.815  0.2686 -1.8580  1.2211
 6179TIP3    H239953   4.868   0.924   1.960  1.3401 -0.3536  0.8739
 6180TIP3   OH239954   6.777   1.696   5.275  0.8935  0.1653 -0.2033
 6180TIP3    H139955   6.777   1.616   5.327 -1.0947  1.0820  1.3261
 6180TIP3    H239956   6.771   1.666   5.184 -1.2509 -1.4363  0.4074
 6181TIP3   OH239957   0.622   1.014  11.487  0.1646  0.1931  0.1527
 6181TIP3    H139958   0.568   0.948  11.444 -0.3984  1.2083 -0.7445
 6181TIP3    H239959   0.609   1.093  11.435  0.9248  0.9839  1.1293
 6182TIP3   OH239960   3.000   4.711  16.409 -0.1194 -0.1794  0.5353
 6182TIP3    H139961   2.909   4.709  16.378 -0.1544 -0.8442  0.6686
 6182TIP3    H239962   3.025   4.619  16.416  0.2454 -0.0215  1.4494
 6183TIP3   OH239963   0.864   4.468   5.352 -0.1153  0.5687  0.1330
 6183TIP3    H139964   0.849   4.498   5.442  0.0416  0.5881  0.1535
 6183TIP3    H239965   0.781   4.483   5.308  0.4072  2.6162 -0.3009
 6184TIP3   OH239966   3.940   2.714  16.060  0.8294  0.2163  0.3401
 6184TIP3    H139967   3.936   2.792  16.005  1.7072 -0.1151 -0.2252
 6184TIP3    H239968   3.880   2.732  16.132 -0.8106  0.4382 -1.0159
 6185TIP3   OH239969   1.900   0.637   3.005 -0.5367 -0.2609 -0.2141
 6185TIP3    H139970   1.974   0.698   2.996 -0.9737  0.5865  1.5031
 6185TIP3    H239971   1.925   0.561   2.953  0.8100  0.6789 -1.0002
 6186TIP3   OH239972   0.100   5.468   3.763 -1.1233  0.4651  0.3178
 6186TIP3    H139973   0.122   5.500   3.850  0.3975 -0.9189  0.4990
 6186TIP3    H239974   0.029   5.405   3.778 -2.5367  1.9729  0.2238
 6187TIP3   OH239975   0.972   3.348  11.434  0.1868  0.0333 -0.2197
 6187TIP3    H139976   1.037   3.407  11.472 -0.1908  0.2742  0.0664
 6187TIP3    H239977   0.890   3.372  11.478 -0.2719  0.3350 -1.2022
 6188TIP3   OH239978   0.705   2.879   0.698 -0.6579 -0.0360  0.4577
 6188TIP3    H139979   0.732   2.807   0.755  0.8061  0.3439  0.2774
 6188TIP3    H239980   0.641   2.839   0.639  0.7821 -1.4500 -0.2362
 6189TIP3   OH239981   3.407   4.606  14.763 -0.3928 -0.0118 -0.8657
 6189TIP3    H139982   3.489   4.556  14.757 -1.0597 -1.1989 -0.2242
 6189TIP3    H239983   3.392   4.616  14.857  0.2016  2.2398 -0.9546
 6190TIP3   OH239984   2.903   1.994   2.168  0.1715 -0.2421 -0.4107
 6190TIP3    H139985   2.928   1.935   2.239 -3.6829 -3.0595 -1.0902
 6190TIP3    H239986   2.871   2.073   2.212  0.1788 -0.9221  0.8560
 6191TIP3   OH239987   3.188   1.343  15.030  0.3593  0.4445 -0.4872
 6191TIP3    H139988   3.176   1.362  15.123  0.8106  0.2818 -0.3983
 6191TIP3    H239989   3.161   1.424  14.986 -0.9559  0.1480 -0.2873
 6192TIP3   OH239990   0.936   3.651   1.290  0.2782 -0.4495  0.2834
 6192TIP3    H139991   0.971   3.726   1.337  0.7492 -1.2037  1.1580
 6192TIP3    H239992   0.951   3.577   1.348  0.0001 -1.2550 -0.6481
 6193TIP3   OH239993   5.506   2.805   6.082  0.1411 -0.4916  0.4020
 6193TIP3    H139994   5.525   2.735   6.019  1.2719  0.9506 -0.9361
 6193TIP3    H239995   5.414   2.791   6.105  0.3964 -2.5506  0.3813
 6194TIP3   OH239996   5.062   1.012   5.013  0.1172  0.1317 -0.1746
 6194TIP3    H139997   5.001   0.944   4.987 -1.5371  2.1040 -1.8238
 6194TIP3    H239998   5.014   1.065   5.076 -0.4721  2.4126 -2.3837
 6195TIP3   OH239999   5.699   4.620   0.544  0.9282 -0.0398  0.3021
 6195TIP3    H140000   5.794   4.614   0.550  0.9369 -0.1184  0.0938
 6195TIP3    H240001   5.684   4.693   0.483  0.8428  1.0743  1.5984
 6196TIP3   OH240002   4.175   3.571  14.458 -0.5226 -0.4509  0.1404
 6196TIP3    H140003   4.242   3.620  14.410 -0.7170 -1.0997 -0.7992
 6196TIP3    H240004   4.208   3.482  14.462 -1.3376 -0.7753 -0.3299
 6197TIP3   OH240005   6.696   4.149  16.619 -0.3465 -0.0279  0.3247
 6197TIP3    H140006   6.780   4.105  16.632  0.8179  1.4245 -1.7329
 6197TIP3    H240007   6.712   4.213  16.550 -3.3122 -0.0970 -0.6067
 6198TIP3   OH240008   3.222   4.356  11.636  0.3101 -0.3745  0.1782
 6198TIP3    H140009   3.181   4.302  11.704 -0.3757  0.7475  0.6772
 6198TIP3    H240010   3.183   4.443  11.647  2.0250  0.4698 -0.0300
 6199TIP3   OH240011   5.185   4.734  15.431 -0.0685 -0.2825 -0.6428
 6199TIP3    H140012   5.184   4.693  15.518  0.6956 -0.7819 -0.8599
 6199TIP3    H240013   5.122   4.805  15.437 -0.1985 -0.4662  0.2530
 6200TIP3   OH240014   3.120   1.707  12.299 -0.2681  0.2814  0.3948
 6200TIP3    H140015   3.128   1.798  12.272  0.5170 -0.2955 -1.5011
 6200TIP3    H240016   3.188   1.695  12.365  0.0854  0.8975  0.1443
 6201TIP3   OH240017   5.348   5.078   5.228  0.2168  0.5554 -0.0585
 6201TIP3    H140018   5.343   5.169   5.257  0.7644  0.6404 -0.2222
 6201TIP3    H240019   5.284   5.071   5.158 -2.1898 -0.0023  2.0178
 6202TIP3   OH240020   3.545   6.256   5.767  0.0411 -0.1314  0.0858
 6202TIP3    H140021   3.635   6.223   5.772  1.4600  3.3029 -0.3849
 6202TIP3    H240022   3.547   6.338   5.815 -2.2967  1.1011 -1.7300
 6203TIP3   OH240023   0.994   5.178  15.226 -0.7282 -0.1472  0.1576
 6203TIP3    H140024   0.948   5.261  15.234 -2.7438 -1.1353 -0.4902
 6203TIP3    H240025   0.975   5.148  15.136  0.2306 -1.1443  0.2610
 6204TIP3   OH240026   0.966   4.978   5.344  1.1675  0.0077 -0.0145
 6204TIP3    H140027   0.977   5.027   5.263 -1.1013 -0.7906 -0.8843
 6204TIP3    H240028   0.946   4.888   5.315  1.2009 -0.4870  1.4332
 6205TIP3   OH240029   5.011   6.155  14.226  0.0471  0.4715  0.5472
 6205TIP3    H140030   5.071   6.122  14.159  1.0403  0.7214  1.2961
 6205TIP3    H240031   4.925   6.153  14.184  0.4350 -0.7457 -0.2508
 6206TIP3   OH240032   0.686   5.101   4.435  0.2295 -0.3088  0.1181
 6206TIP3    H140033   0.629   5.174   4.413  0.7640  0.0818  0.0049
 6206TIP3    H240034   0.646   5.025   4.394  0.2566  0.1074 -0.6923
 6207TIP3   OH240035   2.821   4.607   1.646  1.0283 -0.6163  0.4289
 6207TIP3    H140036   2.833   4.662   1.724  0.9470 -0.2837  0.2088
 6207TIP3    H240037   2.845   4.664   1.573  1.0819 -0.9224  0.2102
 6208TIP3   OH240038   0.244   1.810   1.596  0.0496 -0.2445 -0.5478
 6208TIP3    H140039   0.241   1.737   1.533  0.3265  0.6748 -1.6460
 6208TIP3    H240040   0.173   1.790   1.658  0.7805 -1.9828 -0.1967
 6209TIP3   OH240041   6.523   6.062   0.534  0.4134  0.7125  0.0233
 6209TIP3    H140042   6.555   6.126   0.470  0.8918  0.6339  0.1785
 6209TIP3    H240043   6.602   6.031   0.578  0.3514 -0.9776 -0.9600
 6210TIP3   OH240044   2.454   3.697   1.675  0.5204  0.2437  0.3757
 6210TIP3    H140045   2.437   3.697   1.769 -0.0826 -0.9614  0.2933
 6210TIP3    H240046   2.370   3.671   1.636  0.6360  1.1758 -0.5276
 6211TIP3   OH240047   5.889   2.751   4.967 -0.1538  0.0524 -0.0956
 6211TIP3    H140048   5.937   2.741   4.884  0.8718 -0.8793  0.5799
 6211TIP3    H240049   5.907   2.841   4.994  0.3444  0.0463 -0.3882
 6212TIP3   OH240050   1.091   0.474  13.477  0.1372 -0.1044 -0.3868
 6212TIP3    H140051   1.108   0.499  13.568  0.6272 -0.5661 -0.3415
 6212TIP3    H240052   1.040   0.393  13.484 -1.5825  0.9377 -0.5275
 6213TIP3   OH240053   3.292   0.933  16.732 -0.1038 -0.2249  0.3517
 6213TIP3    H140054   3.338   0.914  16.650 -1.4922  0.2301 -0.5741
 6213TIP3    H240055   3.221   0.992  16.706  0.6051  1.5679  2.1998
 6214TIP3   OH240056   3.142   1.985   1.104 -0.1674 -0.3830  0.1119
 6214TIP3    H140057   3.111   2.075   1.106  0.5039 -0.0621 -1.7080
 6214TIP3    H240058   3.225   1.987   1.151 -0.2151 -0.0679  0.1814
 6215TIP3   OH240059   6.330   2.906   1.414  0.3740  0.1219  0.0147
 6215TIP3    H140060   6.423   2.924   1.402  0.4587  0.1581  0.6878
 6215TIP3    H240061   6.287   2.992   1.403  0.3704  0.0394 -0.6876
 6216TIP3   OH240062   0.601   0.840  15.072  0.1026 -0.1341  0.2444
 6216TIP3    H140063   0.581   0.888  15.152 -2.1433  1.2743 -1.0695
 6216TIP3    H240064   0.644   0.904  15.016  1.6654 -1.1165  0.2499
 6217TIP3   OH240065   6.036   4.506  10.629  0.2338 -0.1415  0.0236
 6217TIP3    H140066   6.047   4.438  10.696  1.2028  1.2968  1.4161
 6217TIP3    H240067   5.968   4.473  10.571 -0.0625 -1.8178  1.2655
 6218TIP3   OH240068   6.115   3.482   0.439  0.7182 -0.5566 -0.0606
 6218TIP3    H140069   6.097   3.513   0.350  1.2843  1.5884  0.5089
 6218TIP3    H240070   6.028   3.471   0.478  0.4264  1.7269  0.1017
 6219TIP3   OH240071   5.906   1.016  12.647 -0.3319 -0.2255 -0.2501
 6219TIP3    H140072   5.972   1.062  12.700  0.6472 -0.3220 -1.3363
 6219TIP3    H240073   5.913   0.925  12.674  0.5070 -0.3548 -0.8562
 6220TIP3   OH240074   6.336   0.375   6.314 -0.2188  0.2719 -0.1174
 6220TIP3    H140075   6.379   0.429   6.248  1.7282 -0.5347  0.4306
 6220TIP3    H240076   6.352   0.285   6.286  0.1877 -0.0751  1.1474
 6221TIP3   OH240077   3.867   3.911  15.672 -0.2655  0.5424  0.0802
 6221TIP3    H140078   3.813   3.832  15.678 -0.6732  0.7981 -0.2253
 6221TIP3    H240079   3.886   3.920  15.578  0.2932  0.4672  0.1798
 6222TIP3   OH240080   2.800   6.731  15.515 -0.1439  0.0805  0.2262
 6222TIP3    H140081   2.709   6.716  15.491  0.0596 -0.5001 -0.2032
 6222TIP3    H240082   2.831   6.645  15.544  0.4158  0.1639 -0.1236
 6223TIP3   OH240083   1.196   4.297   4.309 -0.3214 -0.0763  0.1765
 6223TIP3    H140084   1.250   4.314   4.386  0.8998 -2.1730 -0.1626
 6223TIP3    H240085   1.190   4.382   4.265 -0.7046  1.0824  2.3129
 6224TIP3   OH240086   6.087   3.183  16.620 -0.2434 -0.3436 -0.1475
 6224TIP3    H140087   6.172   3.226  16.612  0.5243 -1.7004  0.3090
 6224TIP3    H240088   6.067   3.187  16.714  0.1874 -1.5836  0.0131
 6225TIP3   OH240089   4.401   2.446   1.006 -0.0899  0.0373 -0.2021
 6225TIP3    H140090   4.358   2.531   1.014 -2.5911 -1.1896  0.2298
 6225TIP3    H240091   4.439   2.446   0.919  1.0556  2.0364  0.2457
 6226TIP3   OH240092   2.618   5.083   2.744  0.0061  0.8642  0.1645
 6226TIP3    H140093   2.604   5.014   2.680  0.8761  1.4588 -0.7006
 6226TIP3    H240094   2.542   5.140   2.735 -0.6375  0.1355  0.7723
 6227TIP3   OH240095   6.357   5.087   1.166  0.4754 -0.1336  0.3330
 6227TIP3    H140096   6.371   5.007   1.116  0.7791  0.7420 -1.0383
 6227TIP3    H240097   6.418   5.081   1.239  2.1954 -0.1187 -1.0285
 6228TIP3   OH240098   2.306   4.418  13.206 -0.3275  0.0024  0.4668
 6228TIP3    H140099   2.226   4.408  13.155 -1.3883  1.2027  1.8300
 6228TIP3    H240100   2.320   4.512  13.213  0.3110 -0.1474  1.5633
 6229TIP3   OH240101   5.541   6.219   4.765  0.3734 -0.4519 -0.2352
 6229TIP3    H140102   5.602   6.260   4.827  1.7956 -2.8021  0.0650
 6229TIP3    H240103   5.573   6.245   4.679  0.3514  0.2611 -0.0291
 6230TIP3   OH240104   2.368   1.060  14.873 -0.3396 -0.0255  0.1258
 6230TIP3    H140105   2.416   1.132  14.832 -0.3941 -0.2666 -0.3658
 6230TIP3    H240106   2.436   1.006  14.913  0.1176 -1.7448 -2.6928
 6231TIP3   OH240107   1.368   2.674   3.667 -0.0415  0.2651  0.4516
 6231TIP3    H140108   1.428   2.695   3.739  0.7557 -0.0136 -0.1070
 6231TIP3    H240109   1.339   2.585   3.685  0.8914 -0.1541 -0.0425
 6232TIP3   OH240110   0.665   1.032   0.986  0.2600 -0.3406  0.5794
 6232TIP3    H140111   0.751   1.047   1.025  0.2335 -0.8431  0.8379
 6232TIP3    H240112   0.623   1.118   0.985  1.0877  0.0712 -0.3212
 6233TIP3   OH240113   3.226   0.824   5.604 -0.1866 -0.7165 -0.1654
 6233TIP3    H140114   3.175   0.743   5.604 -1.2654 -0.0538 -0.5502
 6233TIP3    H240115   3.317   0.795   5.599 -0.4224 -1.9702  1.6209
 6234TIP3   OH240116   0.142   1.282   3.446  0.0206 -0.0674 -0.2394
 6234TIP3    H140117   0.152   1.323   3.532 -0.5821 -0.7864  0.1927
 6234TIP3    H240118   0.118   1.191   3.466  2.3663 -0.9540 -1.1559
 6235TIP3   OH240119   4.955   6.724  14.143 -0.0777 -0.5387  0.3930
 6235TIP3    H140120   4.867   6.756  14.163  0.2296  0.6931 -0.1849
 6235TIP3    H240121   4.994   6.791  14.088  1.2979 -0.9894  0.7734
 6236TIP3   OH240122   3.989   4.883   0.732  0.4220  0.0794  0.0094
 6236TIP3    H140123   4.081   4.891   0.757  0.2876  0.4776  0.3965
 6236TIP3    H240124   3.953   4.819   0.793  1.0776 -2.2869 -1.9420
 6237TIP3   OH240125   2.799   0.461  14.405  0.0647 -0.4467 -0.1939
 6237TIP3    H140126   2.708   0.480  14.427 -0.0787  0.0810 -1.2193
 6237TIP3    H240127   2.846   0.474  14.488 -0.5107  1.2083 -0.0969
 6238TIP3   OH240128   5.486   3.835  13.713 -0.5228  0.1536  0.1923
 6238TIP3    H140129   5.444   3.790  13.786 -1.7800  0.1915 -0.4782
 6238TIP3    H240130   5.445   3.797  13.635  0.1928  0.7074 -0.4718
 6239TIP3   OH240131   6.755   4.082  14.624  0.0466 -0.0304  0.7693
 6239TIP3    H140132   6.824   4.115  14.682  0.2552 -0.7708  0.9572
 6239TIP3    H240133   6.801   4.050  14.547 -0.4174  3.8762 -1.3861
 6240TIP3   OH240134   6.249   2.825  15.112 -0.6762  0.4317 -0.6409
 6240TIP3    H140135   6.260   2.733  15.134 -1.9483  0.2679 -0.6578
 6240TIP3    H240136   6.244   2.827  15.017  0.1192  0.6161 -0.6865
 6241TIP3   OH240137   2.689   6.549   4.897  0.3779 -0.2893 -0.0799
 6241TIP3    H140138   2.680   6.519   4.987 -0.3987  0.6076  0.1597
 6241TIP3    H240139   2.688   6.645   4.904  0.7394 -0.2113 -0.9989
 6242TIP3   OH240140   3.335   6.385  12.373 -0.4335  0.1984 -0.1147
 6242TIP3    H140141   3.375   6.325  12.436  0.3571  0.8162 -0.0163
 6242TIP3    H240142   3.251   6.345  12.352  0.7372 -1.7584 -1.2808
 6243TIP3   OH240143   6.757   4.607   3.949 -0.0631 -0.9099  0.0579
 6243TIP3    H140144   6.811   4.610   4.028  0.7972 -0.1484 -0.5272
 6243TIP3    H240145   6.769   4.518   3.916 -1.1969 -1.5464  1.2759
 6244TIP3   OH240146   5.860   6.369   6.214  0.5137  0.4698  0.5984
 6244TIP3    H140147   5.897   6.392   6.299 -0.2290  0.2033  1.0147
 6244TIP3    H240148   5.766   6.385   6.225  0.1577 -1.3201  0.4482
 6245TIP3   OH240149   4.675   5.236   3.455 -0.2272  0.5404 -0.0300
 6245TIP3    H140150   4.632   5.284   3.526 -1.4143  0.6783 -0.8213
 6245TIP3    H240151   4.649   5.145   3.469  1.3511  0.1936  0.9819
 6246TIP3   OH240152   4.138   6.146  16.406  0.2709  0.1024  0.3403
 6246TIP3    H140153   4.157   6.239  16.416 -0.0643  0.2901 -0.7548
 6246TIP3    H240154   4.162   6.126  16.316  0.1949 -0.8436  0.5222
 6247TIP3   OH240155   5.574   6.649   5.085  0.1233 -0.1710 -0.2093
 6247TIP3    H140156   5.595   6.605   5.167  0.0564  0.7602  0.3249
 6247TIP3    H240157   5.485   6.620   5.064 -0.3008  0.4388  0.6547
 6248TIP3   OH240158   0.321   4.849   1.458 -0.4352  0.1802  0.7279
 6248TIP3    H140159   0.319   4.898   1.540 -0.7567 -1.0913  1.4969
 6248TIP3    H240160   0.229   4.829   1.440 -0.2699 -0.6222  0.7279
 6249TIP3   OH240161   4.559   6.440   5.419  0.6454 -0.2113 -0.1516
 6249TIP3    H140162   4.601   6.524   5.440 -1.5710  0.7388  0.9178
 6249TIP3    H240163   4.580   6.424   5.328  2.3154  0.7588  0.0239
 6250TIP3   OH240164   6.477   2.053  12.726  0.2286  0.4100 -0.1585
 6250TIP3    H140165   6.512   1.964  12.729 -0.1145  0.2481 -0.6854
 6250TIP3    H240166   6.554   2.109  12.735  0.2514  0.1009  2.3717
 6251TIP3   OH240167   1.626   6.783  15.263  0.7698  0.2700  0.5204
 6251TIP3    H140168   1.640   6.781  15.168 -0.2640 -2.6011  0.3471
 6251TIP3    H240169   1.567   6.858  15.277  0.9580  0.7523 -1.0925
 6252TIP3   OH240170   4.242   0.885   5.624 -0.2507 -0.0640  0.3552
 6252TIP3    H140171   4.197   0.807   5.657 -3.0168  0.7011 -1.3476
 6252TIP3    H240172   4.301   0.851   5.557 -0.1926 -0.8316  0.7755
 6253TIP3   OH240173   4.108   0.871   4.258 -0.5014  0.7336  0.2847
 6253TIP3    H140174   4.142   0.956   4.287  2.6393 -0.5999  0.8547
 6253TIP3    H240175   4.083   0.885   4.167  2.0974  1.7876 -0.3440
 6254TIP3   OH240176   1.889   4.116   5.471 -0.5094  0.0094  0.1759
 6254TIP3    H140177   1.978   4.136   5.499 -1.1292  1.5034  1.1864
 6254TIP3    H240178   1.858   4.051   5.534 -0.5098  0.3336  0.5151
 6255TIP3   OH240179   4.799   5.683   4.859  0.4689  0.8601  0.5887
 6255TIP3    H140180   4.740   5.615   4.827  1.0258  0.9909 -0.7717
 6255TIP3    H240181   4.805   5.667   4.953 -0.8273  0.1558  0.5776
 6256TIP3   OH240182   1.929   1.489  16.166  0.0021 -0.2524  0.0591
 6256TIP3    H140183   1.961   1.432  16.097  1.0058  0.2876  0.0559
 6256TIP3    H240184   1.912   1.573  16.122 -0.1708 -0.1612  0.2988
 6257TIP3   OH240185   5.381   5.761  17.100  0.0912  0.0868 -0.1038
 6257TIP3    H140186   5.389   5.843  17.149  1.2132 -0.1537  0.1466
 6257TIP3    H240187   5.292   5.762  17.065 -0.6618  0.4206  1.6868
 6258TIP3   OH240188   5.411   3.673  12.507 -0.4089  0.1077 -0.4950
 6258TIP3    H140189   5.493   3.704  12.545  0.0348 -1.7583  0.2137
 6258TIP3    H240190   5.358   3.751  12.497  0.7096  1.1071  0.9058
 6259TIP3   OH240191   3.346   0.175   4.711 -0.3707  0.4801 -0.0251
 6259TIP3    H140192   3.426   0.146   4.668 -1.4413  0.3506 -2.0239
 6259TIP3    H240193   3.359   0.269   4.724 -0.0501  0.5440 -0.7436
 6260TIP3   OH240194   6.679   2.378   0.504 -0.0032  0.6304  0.3389
 6260TIP3    H140195   6.772   2.362   0.517 -0.3085 -1.9812 -0.1446
 6260TIP3    H240196   6.644   2.390   0.593  0.5757  0.1543  0.6392
 6261TIP3   OH240197   6.370   0.207  13.887  0.0369  0.2325 -0.7112
 6261TIP3    H140198   6.364   0.294  13.848 -0.1506  0.1578 -0.8534
 6261TIP3    H240199   6.302   0.156  13.842 -1.1548  0.5058  0.6957
 6262TIP3   OH240200   0.149   3.614   0.847 -0.3313  0.8165 -0.3892
 6262TIP3    H140201   0.061   3.651   0.860 -0.7356  1.1568 -3.3050
 6262TIP3    H240202   0.160   3.612   0.752  1.2913 -2.9321 -0.2891
 6263TIP3   OH240203   5.189   4.406   1.118  0.7822  0.2106  0.1532
 6263TIP3    H140204   5.231   4.401   1.032 -0.0624 -0.0641 -0.2471
 6263TIP3    H240205   5.100   4.375   1.104 -0.3108  2.9610  0.5110
 6264TIP3   OH240206   3.226   6.771  13.361  1.1536 -0.0746  0.3255
 6264TIP3    H140207   3.222   6.837  13.430  0.5002  1.1684 -0.8484
 6264TIP3    H240208   3.308   6.725  13.376  1.1945  0.4074  1.6963
 6265TIP3   OH240209   0.214   3.648  14.071  0.6519  0.1086 -0.0470
 6265TIP3    H140210   0.292   3.601  14.041  0.6755  1.2584 -1.9764
 6265TIP3    H240211   0.152   3.640  13.999 -0.4757  0.4635  0.8503
 6266TIP3   OH240212   3.794   0.037   5.862 -0.4506  0.5892  0.0784
 6266TIP3    H140213   3.784   0.012   5.770 -0.2889  1.0144 -0.0528
 6266TIP3    H240214   3.744  -0.030   5.910  0.1583 -0.1208 -0.2570
 6267TIP3   OH240215   5.362   2.106   5.240 -0.2955 -0.1211 -0.5355
 6267TIP3    H140216   5.366   2.062   5.326 -0.9551 -0.3936 -0.6411
 6267TIP3    H240217   5.453   2.112   5.213 -0.1793 -1.3744 -0.4835
 6268TIP3   OH240218   2.680   0.341   4.967 -0.5619  0.0617 -0.4308
 6268TIP3    H140219   2.695   0.323   4.874  1.4368 -1.1590  0.0605
 6268TIP3    H240220   2.760   0.385   4.996  1.0629 -3.7859  1.6762
 6269TIP3   OH240221   2.292   0.672   3.660 -0.0661  0.9012 -0.7681
 6269TIP3    H140222   2.376   0.716   3.652  0.1269  0.7244  0.1380
 6269TIP3    H240223   2.300   0.593   3.607  1.5515 -0.8327  1.8021
 6270TIP3   OH240224   2.961   4.602   1.053  0.3699  0.1371  0.1199
 6270TIP3    H140225   2.883   4.655   1.067 -0.6942 -1.0652 -0.9658
 6270TIP3    H240226   2.968   4.594   0.958  2.6783  1.4081  0.1264
 6271TIP3   OH240227   3.897   2.550  11.355  0.3260  0.2091  0.4802
 6271TIP3    H140228   3.831   2.618  11.370 -0.3454  0.0186 -1.2924
 6271TIP3    H240229   3.875   2.481  11.418  0.4874  1.2553  1.7072
 6272TIP3   OH240230   0.129   3.205   1.499  0.1083 -0.3329  0.0824
 6272TIP3    H140231   0.152   3.150   1.425  2.9416  1.1669 -0.2899
 6272TIP3    H240232   0.138   3.295   1.466 -1.9251  0.4157  1.3393
 6273TIP3   OH240233   6.135   1.846   5.338 -0.1913 -0.2644 -0.2327
 6273TIP3    H140234   6.183   1.792   5.402 -1.3312 -1.2789 -0.2140
 6273TIP3    H240235   6.151   1.803   5.254 -1.7327 -1.1272 -0.1174
 6274TIP3   OH240236   1.098   5.412  12.921  0.4450 -0.1498 -0.0920
 6274TIP3    H140237   1.093   5.473  12.847 -1.7956 -0.0026  0.1122
 6274TIP3    H240238   1.158   5.454  12.982  0.8363  0.6666 -1.0008
 6275TIP3   OH240239   1.276   1.227   2.953  0.2372 -0.4059  0.4664
 6275TIP3    H140240   1.216   1.291   2.914 -0.5389 -0.5990  1.3047
 6275TIP3    H240241   1.362   1.254   2.924 -0.3058 -0.5804 -1.4412
 6276TIP3   OH240242   3.061   5.737   0.121  0.0967  0.5242  0.1489
 6276TIP3    H140243   3.098   5.810   0.171  2.1332  0.6535 -1.4391
 6276TIP3    H240244   2.983   5.711   0.171  0.5679  2.3143  1.9407
 6277TIP3   OH240245   5.536   0.485  10.440 -0.6517 -0.2691 -0.0334
 6277TIP3    H140246   5.470   0.503  10.508 -0.7849 -2.3163  0.4346
 6277TIP3    H240247   5.602   0.554  10.453 -1.7758  0.7228  0.6852
 6278TIP3   OH240248   0.698   5.079   3.126 -0.5395 -0.3723  0.0031
 6278TIP3    H140249   0.698   5.123   3.211 -1.0690  0.4334 -0.4011
 6278TIP3    H240250   0.607   5.081   3.098 -0.3488 -0.5036 -0.6453
 6279TIP3   OH240251   0.622   3.798   1.783 -0.0731  0.0557 -0.0378
 6279TIP3    H140252   0.537   3.797   1.738  0.0879  0.1799 -0.3450
 6279TIP3    H240253   0.685   3.772   1.716  0.1261 -0.0717  0.2012
 6280TIP3   OH240254   0.638   2.220  14.607 -0.3846  0.3338 -0.3534
 6280TIP3    H140255   0.604   2.301  14.645 -0.5032 -0.5544  1.5250
 6280TIP3    H240256   0.731   2.219  14.630 -0.0742  0.5505 -1.5289
 6281TIP3   OH240257   1.841   5.823  13.537  0.3528  0.0398  0.5712
 6281TIP3    H140258   1.856   5.900  13.483 -0.6030 -0.2300 -0.1134
 6281TIP3    H240259   1.848   5.749  13.477  2.5737 -0.5464  1.4661
 6282TIP3   OH240260   3.360   5.031   5.657 -0.1581  0.4121 -0.0371
 6282TIP3    H140261   3.287   5.093   5.659 -0.7261 -0.2208 -0.5958
 6282TIP3    H240262   3.352   4.987   5.572 -0.0315 -0.7419  0.5272
 6283TIP3   OH240263   1.781   1.715   3.351  0.2332  0.2886 -0.1452
 6283TIP3    H140264   1.809   1.660   3.278 -0.2676 -0.7298  0.4142
 6283TIP3    H240265   1.860   1.730   3.402  0.5400  0.8134 -0.7609
 6284TIP3   OH240266   0.695   4.384  15.415 -0.3561  0.0332 -0.0163
 6284TIP3    H140267   0.679   4.341  15.331 -0.3720 -0.0380  0.0226
 6284TIP3    H240268   0.625   4.352  15.472 -1.3280  1.3287 -0.4282
 6285TIP3   OH240269   4.460   6.503   5.932  0.1531 -0.7531 -0.1561
 6285TIP3    H140270   4.379   6.543   5.961 -1.8784 -3.3810 -1.7266
 6285TIP3    H240271   4.496   6.460   6.010  0.1889  0.5956  0.5868
 6286TIP3   OH240272   4.419   0.964  13.141  0.8873 -0.5619  0.3736
 6286TIP3    H140273   4.490   0.904  13.164  2.0925  0.6288 -0.0908
 6286TIP3    H240274   4.456   1.021  13.074 -0.6433 -0.1365 -0.1589
 6287TIP3   OH240275   2.844   4.731  15.164 -0.3648 -0.1026  0.7951
 6287TIP3    H140276   2.791   4.787  15.107 -0.0529 -1.2913 -0.7394
 6287TIP3    H240277   2.793   4.650  15.171  0.6174 -0.7806  0.3679
 6288TIP3   OH240278   3.004   6.772  16.478  0.3078  0.2221 -0.3708
 6288TIP3    H140279   3.045   6.856  16.457  1.0258  0.5743  2.1497
 6288TIP3    H240280   3.015   6.762  16.573 -2.4541 -1.2876 -0.0855
 6289TIP3   OH240281   0.659   1.043  12.309 -0.5678 -0.2194 -0.3259
 6289TIP3    H140282   0.746   1.002  12.317  0.2176  1.1918 -1.2076
 6289TIP3    H240283   0.619   0.999  12.234 -1.2444 -1.8921  0.9605
 6290TIP3   OH240284   3.003   5.948  16.990  0.9456  0.0935 -0.4351
 6290TIP3    H140285   2.934   6.011  16.967  0.1200 -0.5091  0.3422
 6290TIP3    H240286   3.015   5.959  17.084  1.0283 -0.6884 -0.3491
 6291TIP3   OH240287   3.710   0.045  16.629  0.3061 -0.6198 -0.0541
 6291TIP3    H140288   3.752   0.041  16.543  1.3509  2.3260  0.1909
 6291TIP3    H240289   3.771   0.001  16.688  0.2398 -1.4571 -0.6028
 6292TIP3   OH240290   5.571   4.510   0.315  0.0282  0.4199 -0.4866
 6292TIP3    H140291   5.609   4.501   0.402 -0.4115  1.6379 -0.1521
 6292TIP3    H240292   5.618   4.583   0.275 -1.0701  1.1321 -0.5299
 6293TIP3   OH240293   3.405   4.235   0.539 -0.4812  0.1728 -0.2510
 6293TIP3    H140294   3.374   4.270   0.456  0.0449  1.3174  0.0129
 6293TIP3    H240295   3.409   4.311   0.597  1.0111 -0.2627  0.2554
 6294TIP3   OH240296   4.508   1.719   1.190  0.1684  0.0594 -0.3826
 6294TIP3    H140297   4.466   1.646   1.145 -1.4523  0.2768  0.6797
 6294TIP3    H240298   4.563   1.677   1.257 -1.4922 -0.2257  0.8565
 6295TIP3   OH240299   2.635   2.269  16.656  0.0005 -0.0305  0.1412
 6295TIP3    H140300   2.648   2.282  16.562  1.9392  0.7325  0.4626
 6295TIP3    H240301   2.540   2.274  16.669 -0.2775  0.0971 -1.7246
 6296TIP3   OH240302   2.366   3.141  14.503  0.0553 -0.0041 -0.0763
 6296TIP3    H140303   2.312   3.113  14.577  0.0795 -0.4801 -0.2356
 6296TIP3    H240304   2.303   3.176  14.440  0.0229  0.2840  0.1120
 6297TIP3   OH240305   6.767   5.209   6.254 -0.0742 -0.0130 -0.2314
 6297TIP3    H140306   6.724   5.176   6.175 -0.2903  0.4313 -0.3056
 6297TIP3    H240307   6.807   5.132   6.294  0.3763 -0.1719 -0.9861
 6298TIP3   OH240308   4.777   1.129   2.193 -0.2420 -0.6090  0.6373
 6298TIP3    H140309   4.700   1.075   2.213 -1.5436  0.3274 -1.4728
 6298TIP3    H240310   4.741   1.205   2.148  1.8804  0.2916  0.3799
 6299TIP3   OH240311   2.510   5.362   3.058  0.6778 -0.6533  0.4685
 6299TIP3    H140312   2.545   5.273   3.052  0.1996 -0.8551  0.5866
 6299TIP3    H240313   2.553   5.400   3.134  0.8939 -0.7816  0.4099
 6300TIP3   OH240314   4.302   3.886  15.855 -0.4494 -0.1861  0.0784
 6300TIP3    H140315   4.265   3.963  15.899 -2.3669 -0.9702 -0.0741
 6300TIP3    H240316   4.229   3.824  15.851  0.6753 -1.4748 -1.0610
 6301TIP3   OH240317   0.866   4.294  15.689  0.2488  0.2076 -0.1434
 6301TIP3    H140318   0.782   4.335  15.667  0.2197  0.5710  0.6014
 6301TIP3    H240319   0.860   4.206  15.652 -1.1203 -0.3409  1.2554
 6302TIP3   OH240320   5.825   6.590  12.367  0.1348 -0.0625  0.1675
 6302TIP3    H140321   5.820   6.520  12.432  0.2165  0.5471  0.8377
 6302TIP3    H240322   5.763   6.656  12.399 -0.4068 -0.0981 -0.7882
 6303TIP3   OH240323   5.791   2.226  14.669  0.6453  0.4771 -0.3113
 6303TIP3    H140324   5.707   2.191  14.641  0.7087 -1.0941  1.2497
 6303TIP3    H240325   5.770   2.292  14.735  0.6259  0.7869 -0.6236
 6304TIP3   OH240326   1.811   6.247   2.016  0.0659 -0.2634  0.1931
 6304TIP3    H140327   1.868   6.171   2.029  1.3911  1.0143  2.5683
 6304TIP3    H240328   1.870   6.316   1.986 -0.5118  0.6118  0.9982
 6305TIP3   OH240329   3.359   4.006   4.728 -0.3265  0.0981  0.1981
 6305TIP3    H140330   3.297   3.940   4.758  0.0119  0.2263  1.2524
 6305TIP3    H240331   3.316   4.050   4.655  0.1407 -2.4352 -1.7001
 6306TIP3   OH240332   1.608   2.763   4.685 -0.0355 -0.2920 -0.4842
 6306TIP3    H140333   1.668   2.703   4.640 -0.8060 -1.8413  0.4692
 6306TIP3    H240334   1.640   2.765   4.775 -1.3348 -1.0703  0.0204
 6307TIP3   OH240335   4.788   1.252   5.561 -0.8135 -0.1381  0.1498
 6307TIP3    H140336   4.866   1.288   5.518  0.5117 -0.3879  2.2466
 6307TIP3    H240337   4.745   1.327   5.601 -0.0327 -0.3498  1.4397
 6308TIP3   OH240338   4.792   1.851  16.309  0.2719 -0.1766 -0.3961
 6308TIP3    H140339   4.762   1.930  16.355 -1.1612 -1.3226  0.7506
 6308TIP3    H240340   4.742   1.850  16.227 -1.7516 -1.2008  0.7644
 6309TIP3   OH240341   4.594   0.987  15.222 -0.0317  0.2575 -0.1179
 6309TIP3    H140342   4.612   1.015  15.312  1.4567 -0.5513 -0.1354
 6309TIP3    H240343   4.666   0.927  15.201 -2.7323 -3.2026 -0.2775
 6310TIP3   OH240344   5.043   4.688  13.105  0.2047  0.7984  0.0776
 6310TIP3    H140345   5.056   4.594  13.119 -1.7268 -0.0069 -2.6564
 6310TIP3    H240346   5.131   4.724  13.097  1.0299 -1.4490 -2.3274
 6311TIP3   OH240347   5.947   5.194  11.328 -0.4808  0.0037 -0.1924
 6311TIP3    H140348   5.900   5.122  11.288 -1.2107  0.1713  0.3484
 6311TIP3    H240349   5.901   5.211  11.410 -0.5063  1.2753 -0.4494
 6312TIP3   OH240350   4.414   0.018  12.953 -0.3309  0.7829  0.2179
 6312TIP3    H140351   4.327   0.010  12.992 -1.4525  1.5778 -1.9319
 6312TIP3    H240352   4.452   0.095  12.996 -0.4936  0.1846  1.4699
 6313TIP3   OH240353   1.756   5.009   1.497  0.2717 -0.1328 -0.3483
 6313TIP3    H140354   1.761   4.960   1.579  0.0387  1.0159  0.3634
 6313TIP3    H240355   1.683   5.069   1.509 -0.8547 -1.0609 -2.0266
 6314TIP3   OH240356   2.617   4.174   6.204 -0.2244  0.1719  0.9338
 6314TIP3    H140357   2.672   4.220   6.267 -0.5765  1.1889  0.5164
 6314TIP3    H240358   2.667   4.095   6.181  0.6380  0.6199  1.2454
 6315TIP3   OH240359   0.566   0.049  15.997 -0.7908  0.2041 -0.4723
 6315TIP3    H140360   0.543   0.014  16.083 -1.3008  2.5308  0.4074
 6315TIP3    H240361   0.495   0.022  15.940 -1.3568  0.1058  0.2654
 6316TIP3   OH240362   0.836   0.683   5.190  0.0764  0.3375 -0.5991
 6316TIP3    H140363   0.751   0.700   5.231  0.0505  0.5074 -0.7202
 6316TIP3    H240364   0.862   0.597   5.221 -0.3734  0.0719 -0.9506
 6317TIP3   OH240365   1.830   2.561   3.040  0.1377 -0.0669  0.1960
 6317TIP3    H140366   1.775   2.638   3.049  0.4879  0.1026  0.9625
 6317TIP3    H240367   1.909   2.582   3.090  1.1654 -0.0700 -1.3644
 6318TIP3   OH240368   4.747   5.773  11.946  0.2828 -0.6707  0.0123
 6318TIP3    H140369   4.772   5.682  11.960 -0.2962 -0.9785 -0.8648
 6318TIP3    H240370   4.652   5.774  11.961  0.0912 -0.4723 -1.1419
 6319TIP3   OH240371   1.193   5.170   0.545  0.0878  0.2468 -0.5944
 6319TIP3    H140372   1.129   5.240   0.555 -1.6697 -1.3887  0.5371
 6319TIP3    H240373   1.150   5.106   0.487  1.2554 -0.3126 -0.8880
 6320TIP3   OH240374   4.066   3.213  14.077 -0.4633 -0.7263  0.4229
 6320TIP3    H140375   4.007   3.271  14.029 -1.6474 -2.0100  0.2333
 6320TIP3    H240376   4.081   3.140  14.017  3.2844  0.5849 -0.4878
 6321TIP3   OH240377   2.500   0.199   6.335 -0.2411  0.1250 -0.2003
 6321TIP3    H140378   2.502   0.261   6.262  0.8636  0.9842  0.5076
 6321TIP3    H240379   2.453   0.245   6.404  2.0876  0.9812  0.9411
 6322TIP3   OH240380   5.286   6.137  14.569 -0.2444 -0.1778 -0.6826
 6322TIP3    H140381   5.275   6.042  14.565  0.9037 -0.5043  2.0579
 6322TIP3    H240382   5.197   6.172  14.560 -0.6538 -1.4479 -1.9920
 6323TIP3   OH240383   0.976   2.312  14.450 -0.3413 -0.8909  0.7927
 6323TIP3    H140384   1.035   2.293  14.377  0.8769  0.0270  1.5020
 6323TIP3    H240385   0.899   2.258  14.433 -0.1847 -0.5547 -1.2873
 6324TIP3   OH240386   2.957   4.088   4.402 -1.1073  0.2455  0.0467
 6324TIP3    H140387   2.963   4.176   4.438 -0.7537  0.4134 -0.4142
 6324TIP3    H240388   2.915   4.037   4.471 -1.9567  0.9223  0.0510
 6325TIP3   OH240389   3.965   5.838  14.757  0.3398 -0.0254 -0.1142
 6325TIP3    H140390   4.013   5.900  14.812 -1.2098  1.7340 -0.6325
 6325TIP3    H240391   3.909   5.790  14.818 -0.1699  0.7633  0.0497
 6326TIP3   OH240392   1.824   2.787  13.744  0.0770 -0.2614 -0.1353
 6326TIP3    H140393   1.802   2.772  13.836  0.4113  0.2748  0.0388
 6326TIP3    H240394   1.876   2.868  13.745 -0.0579 -0.1635 -0.8135
 6327TIP3   OH240395   1.802   3.257   4.729  0.2821  0.2735  0.1784
 6327TIP3    H140396   1.716   3.295   4.748 -0.0258 -0.6072  0.5981
 6327TIP3    H240397   1.829   3.300   4.648 -0.0804  1.3223  0.5973
 6328TIP3   OH240398   3.175   5.414   0.796 -0.5036  0.3005  0.0917
 6328TIP3    H140399   3.207   5.502   0.777 -1.0160  0.4819  0.0504
 6328TIP3    H240400   3.163   5.412   0.891 -2.4988  1.0011 -0.0807
 6329TIP3   OH240401   4.102   1.556  16.011  0.0843  0.0837 -0.5470
 6329TIP3    H140402   4.126   1.643  16.044 -0.8071  0.6242 -1.2407
 6329TIP3    H240403   4.101   1.500  16.089  2.3089  0.2795 -0.3215
 6330TIP3   OH240404   0.659   1.316  13.688 -0.1179  0.0065 -0.0464
 6330TIP3    H140405   0.603   1.238  13.689 -1.3511  0.8242  2.3935
 6330TIP3    H240406   0.640   1.358  13.604 -0.8566 -1.2991 -0.5653
 6331TIP3   OH240407   0.507   0.697  14.523 -0.1071  0.0800  0.3667
 6331TIP3    H140408   0.417   0.680  14.550 -0.0071 -2.0468 -0.4216
 6331TIP3    H240409   0.553   0.615  14.539  1.3931  0.7264 -0.4084
 6332TIP3   OH240410   5.472   2.735   5.591  0.3381 -0.6246 -0.2638
 6332TIP3    H140411   5.442   2.826   5.599 -0.1835 -0.6906 -1.3346
 6332TIP3    H240412   5.536   2.738   5.520 -0.3058 -1.2259 -0.8890
 6333TIP3   OH240413   2.358   4.340  15.815 -0.0520  0.0880 -0.2246
 6333TIP3    H140414   2.443   4.298  15.802  0.2109  0.5513 -0.0327
 6333TIP3    H240415   2.364   4.378  15.903 -1.2026 -1.6081  0.6502
 6334TIP3   OH240416   1.519   4.103  12.015  0.0391  0.4624  0.5969
 6334TIP3    H140417   1.556   4.134  12.097  2.0452  0.4157 -0.2361
 6334TIP3    H240418   1.525   4.178  11.955  0.9946 -0.2462 -0.2227
 6335TIP3   OH240419   4.690   5.407  17.121 -0.3345 -0.7941  0.3623
 6335TIP3    H140420   4.669   5.493  17.085 -1.8242 -0.7095  1.3419
 6335TIP3    H240421   4.772   5.382  17.078 -0.9071  0.2292 -1.4260
 6336TIP3   OH240422   6.657   4.602  16.545 -0.6551  0.0023  0.6468
 6336TIP3    H140423   6.569   4.613  16.580 -0.2922 -1.9274  2.3428
 6336TIP3    H240424   6.659   4.513  16.511 -0.3614  1.1225 -2.6947
 6337TIP3   OH240425   1.351   4.866   0.464 -0.3669 -0.5370 -0.9091
 6337TIP3    H140426   1.390   4.825   0.386  1.1174 -2.0944  0.5490
 6337TIP3    H240427   1.399   4.948   0.474  0.0924 -0.7711 -1.1306
 6338TIP3   OH240428   6.689   3.166  15.832  0.3833 -0.3605  0.2297
 6338TIP3    H140429   6.758   3.143  15.770 -1.3635 -0.6427 -1.7534
 6338TIP3    H240430   6.668   3.085  15.876 -0.1343 -0.7794 -0.7516
 6339TIP3   OH240431   1.358   2.852   3.986 -0.0789 -0.5572  0.2483
 6339TIP3    H140432   1.415   2.786   3.946 -1.2698 -0.7237 -1.2625
 6339TIP3    H240433   1.419   2.914   4.027  1.2496 -0.4572 -1.7202
 6340TIP3   OH240434   2.525   4.316  14.649 -0.0985  0.4928  0.0603
 6340TIP3    H140435   2.463   4.362  14.592 -2.4084 -0.8437  1.3734
 6340TIP3    H240436   2.546   4.380  14.717 -3.1678 -0.2103  1.7904
 6341TIP3   OH240437   5.421   5.165  15.406 -0.0745 -0.1736  0.3744
 6341TIP3    H140438   5.326   5.173  15.393 -0.0025  1.0575  0.5153
 6341TIP3    H240439   5.438   5.211  15.488  0.7649  0.4455 -0.1287
 6342TIP3   OH240440   2.175   1.464   6.124 -0.2535 -0.2757 -0.3765
 6342TIP3    H140441   2.261   1.442   6.160 -0.7529 -1.1514  0.3358
 6342TIP3    H240442   2.151   1.388   6.072  0.1627  0.7075 -2.0898
 6343TIP3   OH240443   2.428   3.956   3.834 -0.3343 -0.1587  0.1508
 6343TIP3    H140444   2.502   3.977   3.777  1.5315  2.4350  3.1929
 6343TIP3    H240445   2.363   3.918   3.775  1.8025  1.2528 -3.4725
 6344TIP3   OH240446   0.863   1.545   3.857 -0.3549  0.2642 -0.3644
 6344TIP3    H140447   0.868   1.451   3.876  0.0739  0.1641 -0.9519
 6344TIP3    H240448   0.949   1.566   3.821 -0.7339  0.7070 -1.0163
 6345TIP3   OH240449   5.962   1.129  16.975  0.0871  0.3701  0.1926
 6345TIP3    H140450   5.961   1.090  16.888  2.1003  1.3185 -0.3199
 6345TIP3    H240451   5.871   1.126  17.004 -0.5549 -0.3968 -1.7328
 6346TIP3   OH240452   6.616   5.749  17.067 -0.3713  0.4223 -0.0947
 6346TIP3    H140453   6.652   5.838  17.072  1.1723 -0.1562 -0.5292
 6346TIP3    H240454   6.542   5.751  17.129  0.1835  1.7520  0.5881
 6347TIP3   OH240455   1.562   6.477  11.439 -0.4445  0.5226  0.5413
 6347TIP3    H140456   1.498   6.547  11.425  1.9171  2.3805 -1.9380
 6347TIP3    H240457   1.589   6.487  11.531 -3.7626 -0.5499  1.7872
 6348TIP3   OH240458   6.282   4.898  15.105 -0.6111  0.5759 -0.2084
 6348TIP3    H140459   6.292   4.942  15.189 -0.1973  0.7526 -0.3441
 6348TIP3    H240460   6.281   4.805  15.126  1.5811  0.5058 -0.1641
 6349TIP3   OH240461   2.721   1.878  15.277 -0.2236  0.1831  0.1663
 6349TIP3    H140462   2.746   1.966  15.308 -1.8400  0.6378  0.2589
 6349TIP3    H240463   2.804   1.831  15.270  0.5672  1.3086  1.3891
 6350TIP3   OH240464   0.155   2.850  14.730 -0.1957  0.2729 -0.2014
 6350TIP3    H140465   0.061   2.863  14.739 -0.2155 -0.7880  1.3436
 6350TIP3    H240466   0.177   2.893  14.647 -2.0244  0.5343 -0.5862
 6351TIP3   OH240467   5.783   4.325  16.225  0.3361 -0.2585 -0.0801
 6351TIP3    H140468   5.751   4.235  16.233  0.9602 -0.7048 -2.0334
 6351TIP3    H240469   5.779   4.360  16.314 -0.2518 -2.0976  0.6646
 6352TIP3   OH240470   0.022   6.457  15.101  0.3084  0.6738 -0.2165
 6352TIP3    H140471   0.001   6.372  15.062 -0.9639  1.0946 -0.4893
 6352TIP3    H240472  -0.010   6.451  15.191 -0.6680  1.1776 -0.5143
 6353TIP3   OH240473   2.459   3.848  14.904 -0.1435 -0.2271  0.0034
 6353TIP3    H140474   2.371   3.833  14.936 -0.0430 -0.6379  0.0938
 6353TIP3    H240475   2.516   3.829  14.979  0.0338 -0.2147 -0.1255
 6354TIP3   OH240476   1.329   2.156   0.554  0.6577  0.1356  0.3687
 6354TIP3    H140477   1.354   2.172   0.463  0.9126 -1.1656  0.1863
 6354TIP3    H240478   1.255   2.095   0.548  0.8759 -0.2085  1.0281
 6355TIP3   OH240479   5.568   6.571  15.813  0.0241  0.7921  0.0153
 6355TIP3    H140480   5.625   6.644  15.786  0.4331  0.2230 -0.7259
 6355TIP3    H240481   5.557   6.583  15.907  0.4434  1.5630 -0.0189
 6356TIP3   OH240482   6.386   0.914   3.531 -0.4663 -0.0846  0.1893
 6356TIP3    H140483   6.417   0.901   3.441  1.3258 -2.9991  1.0771
 6356TIP3    H240484   6.308   0.859   3.538  0.2708 -1.0878  0.7819
 6357TIP3   OH240485   3.789   0.178  15.957  0.2080  0.4591  0.4790
 6357TIP3    H140486   3.840   0.129  16.022 -1.4590 -1.7307  0.2495
 6357TIP3    H240487   3.773   0.115  15.887 -1.9984  1.3223  0.1371
 6358TIP3   OH240488   5.662   0.283   1.071 -0.1686 -0.0067  0.5370
 6358TIP3    H140489   5.596   0.348   1.096  0.8662  0.8430  1.1229
 6358TIP3    H240490   5.728   0.332   1.024 -0.1483 -0.9360 -0.4370
 6359TIP3   OH240491   1.973   5.120  12.170  0.2272 -0.2236 -0.0967
 6359TIP3    H140492   1.909   5.179  12.132  1.8976  2.2157  0.6693
 6359TIP3    H240493   2.055   5.169  12.171  1.6245 -2.3896  1.0112
 6360TIP3   OH240494   2.482   2.983   6.107 -0.1655 -0.2990  0.2585
 6360TIP3    H140495   2.408   2.922   6.105 -1.3167  0.9925  1.1312
 6360TIP3    H240496   2.523   2.966   6.192 -1.4379  1.1339  1.2200
 6361TIP3   OH240497   5.937   4.131  11.877  0.2454 -0.1276 -0.5711
 6361TIP3    H140498   5.844   4.134  11.899  0.5466  3.2905  0.7790
 6361TIP3    H240499   5.982   4.120  11.961  1.1117  0.3799 -0.9514
 6362TIP3   OH240500   1.479   0.103  14.095  0.7507  0.0937  0.0505
 6362TIP3    H140501   1.488   0.027  14.153  1.6892  1.0643  1.2138
 6362TIP3    H240502   1.401   0.084  14.043  0.3857 -1.2066  1.0233
 6363TIP3   OH240503   1.244   3.565  12.516  0.2441 -0.1949  0.4091
 6363TIP3    H140504   1.201   3.485  12.485 -0.4153  0.0443  0.7018
 6363TIP3    H240505   1.253   3.553  12.610 -0.6294  0.4383  0.5787
 6364TIP3   OH240506   5.636   1.291   4.703 -0.0727 -0.0998  0.0569
 6364TIP3    H140507   5.666   1.231   4.635  0.8264  0.1440  0.2299
 6364TIP3    H240508   5.565   1.244   4.746 -0.1529 -0.5613 -0.5640
 6365TIP3   OH240509   2.226   4.578   2.849 -0.0597  0.4546 -0.2082
 6365TIP3    H140510   2.246   4.564   2.756 -1.5280 -0.2692 -0.4557
 6365TIP3    H240511   2.265   4.663   2.870  1.5063 -0.0126 -1.0992
 6366TIP3   OH240512   5.932   0.224   0.276 -0.1047  0.4346  0.2171
 6366TIP3    H140513   5.977   0.175   0.345  2.1936 -0.8899 -2.0417
 6366TIP3    H240514   6.003   0.268   0.228 -1.3976 -0.0352 -2.2696
 6367TIP3   OH240515   6.257   2.737  12.996 -0.5073 -0.0013  0.0177
 6367TIP3    H140516   6.308   2.666  12.956 -0.7881 -0.7331  0.9078
 6367TIP3    H240517   6.168   2.703  13.000 -1.0161  1.1225 -1.1894
 6368TIP3   OH240518   2.251   4.316   1.158  0.0077  0.6994 -0.1219
 6368TIP3    H140519   2.290   4.352   1.079  0.9122  0.1077  0.0358
 6368TIP3    H240520   2.304   4.351   1.230  0.4090 -0.2833  0.0816
 6369TIP3   OH240521   2.650   1.139  15.461  0.0339 -0.0804  0.3719
 6369TIP3    H140522   2.705   1.067  15.432 -0.1837  0.1283 -0.5736
 6369TIP3    H240523   2.697   1.177  15.535  0.0483 -1.3090  1.0165
 6370TIP3   OH240524   3.600   2.977  12.398 -1.0130 -0.5401  0.3173
 6370TIP3    H140525   3.690   2.964  12.369 -0.7346 -0.3955  1.0917
 6370TIP3    H240526   3.579   3.067  12.372 -1.5742 -1.1632 -1.4911
 6371TIP3   OH240527   5.354   0.970   0.927  0.2785 -0.3406 -0.1263
 6371TIP3    H140528   5.290   0.996   0.993 -0.1304 -0.3605 -0.5166
 6371TIP3    H240529   5.403   1.051   0.909  1.2014 -0.5981  1.0756
 6372TIP3   OH240530   2.948   5.651  13.121 -0.1280  0.2633  0.0291
 6372TIP3    H140531   2.948   5.730  13.175  2.0340 -0.7529  1.6531
 6372TIP3    H240532   2.985   5.583  13.178 -4.0715 -2.6341 -0.4063
 6373TIP3   OH240533   4.497   5.187   2.998 -0.2698  0.3572  0.0437
 6373TIP3    H140534   4.524   5.096   2.986  0.1000  0.3511  0.8462
 6373TIP3    H240535   4.523   5.231   2.917 -1.7800 -0.5350 -0.9748
 6374TIP3   OH240536   6.001   6.614  10.716 -0.9148 -0.7757  0.2060
 6374TIP3    H140537   5.994   6.620  10.621  0.3970 -0.8580  0.0938
 6374TIP3    H240538   6.054   6.690  10.742  0.1428 -1.6459  0.6813
 6375TIP3   OH240539   5.323   4.304   2.448  0.2268 -0.2381  0.7364
 6375TIP3    H140540   5.253   4.298   2.512  0.6126  0.9038  1.2974
 6375TIP3    H240541   5.399   4.335   2.498  0.7401 -0.0714 -0.1204
 6376TIP3   OH240542   5.412   0.547   4.222 -0.0314  0.4004 -0.0961
 6376TIP3    H140543   5.361   0.549   4.303  0.8528 -0.5797  0.5053
 6376TIP3    H240544   5.371   0.614   4.167 -0.8614  0.8500  1.0184
 6377TIP3   OH240545   1.795   3.137   3.140  0.3063  0.0636  0.1753
 6377TIP3    H140546   1.750   3.176   3.066  2.1797  0.9763 -0.5370
 6377TIP3    H240547   1.726   3.124   3.205 -1.1753  0.3099 -1.2721
 6378TIP3   OH240548   0.120   4.739  15.108 -0.4848  0.2067  0.5769
 6378TIP3    H140549   0.161   4.752  15.193  1.5855 -1.1558 -0.1313
 6378TIP3    H240550   0.058   4.667  15.121  0.9828 -1.1017  0.6497
 6379TIP3   OH240551   0.177   3.513  10.397  0.4880 -0.2589  0.2516
 6379TIP3    H140552   0.182   3.492  10.490 -0.8186  1.9832  0.9007
 6379TIP3    H240553   0.093   3.477  10.368  0.4837 -0.1752  0.1594
 6380TIP3   OH240554   0.216   2.889   4.096  0.3678  0.4119 -0.0704
 6380TIP3    H140555   0.225   2.806   4.144 -1.0595  0.4477  0.2793
 6380TIP3    H240556   0.263   2.873   4.014  1.6428 -0.1221  0.7131
 6381TIP3   OH240557   2.495   6.694  13.482 -0.9165 -0.2177 -0.2055
 6381TIP3    H140558   2.476   6.694  13.576 -1.3390 -0.6845 -0.2897
 6381TIP3    H240559   2.409   6.695  13.440 -0.7484 -1.2166 -0.5929
 6382TIP3   OH240560   1.087   4.653  14.788  0.0719 -0.4183  0.2560
 6382TIP3    H140561   1.147   4.668  14.715  0.1520  3.0731  0.9146
 6382TIP3    H240562   1.140   4.609  14.854  1.3504  0.6641 -0.0059
 6383TIP3   OH240563   0.342   5.354  13.809  0.3548  0.1568 -0.5873
 6383TIP3    H140564   0.279   5.286  13.785 -1.3977  0.7120  2.0223
 6383TIP3    H240565   0.288   5.428  13.836  2.1973  1.6074 -0.6758
 6384TIP3   OH240566   1.428   4.078   0.333 -0.5665 -0.0553 -0.4138
 6384TIP3    H140567   1.479   4.006   0.371 -0.5016 -0.1950 -0.7644
 6384TIP3    H240568   1.429   4.146   0.401 -0.0606 -0.1229 -0.3463
 6385TIP3   OH240569   4.435   2.013   2.996  0.1244 -0.4463 -0.7722
 6385TIP3    H140570   4.428   1.918   3.006  1.4979 -0.5982 -1.0111
 6385TIP3    H240571   4.517   2.026   2.948 -0.1218  0.8563 -0.8810
 6386TIP3   OH240572   2.600   1.275   4.062 -0.2394 -0.6304 -0.1540
 6386TIP3    H140573   2.563   1.285   3.974 -1.7718  2.9595  0.7102
 6386TIP3    H240574   2.528   1.238   4.113 -0.0804 -0.7424 -0.0149
 6387TIP3   OH240575   3.466   2.806  15.210 -0.3533 -0.0366  0.3935
 6387TIP3    H140576   3.511   2.769  15.286  0.3969 -1.2165 -0.5946
 6387TIP3    H240577   3.398   2.861  15.248 -0.7082 -1.4482  1.9430
 6388TIP3   OH240578   0.686   4.318   1.838  0.2672 -0.4385 -0.5834
 6388TIP3    H140579   0.752   4.377   1.874 -0.8684  1.9661 -2.1997
 6388TIP3    H240580   0.669   4.352   1.750 -2.6112 -1.3904 -0.4949
 6389TIP3   OH240581   5.691   4.320  13.301  0.1118 -0.0786  0.1656
 6389TIP3    H140582   5.678   4.274  13.218 -0.8959  0.7598 -0.1607
 6389TIP3    H240583   5.733   4.256  13.358  0.2163 -0.8751 -0.7796
 6390TIP3   OH240584   2.201   3.531   2.726  0.3471  0.1769  0.1704
 6390TIP3    H140585   2.181   3.605   2.783 -0.9248 -0.7821  1.0299
 6390TIP3    H240586   2.203   3.456   2.785  1.7753 -0.4834 -0.6516
 6391TIP3   OH240587   5.367   1.152   5.578 -0.9497  0.4424  0.2592
 6391TIP3    H140588   5.298   1.137   5.513 -0.8305  0.5774  0.1010
 6391TIP3    H240589   5.429   1.081   5.563  0.7442  2.2287 -1.9743
 6392TIP3   OH240590   5.583   4.757  16.829  0.1340 -0.0017  0.9099
 6392TIP3    H140591   5.643   4.774  16.757 -0.6199 -2.0228 -0.2932
 6392TIP3    H240592   5.639   4.735  16.903  0.9502 -1.9540 -0.2081
 6393TIP3   OH240593   4.302   4.701  17.107 -0.6168 -0.0981 -0.5931
 6393TIP3    H140594   4.292   4.716  17.013  1.5471  1.7716 -0.6375
 6393TIP3    H240595   4.381   4.647  17.114 -2.0509 -2.2153  0.1234
 6394TIP3   OH240596   6.463   5.947  11.827  0.4556  0.8213 -0.5558
 6394TIP3    H140597   6.526   5.987  11.767 -1.5019  0.8723 -2.6865
 6394TIP3    H240598   6.502   5.960  11.914  4.1004 -0.4818 -1.7813
 6395TIP3   OH240599   3.528   4.845  16.317 -0.3226  0.0439 -0.5812
 6395TIP3    H140600   3.479   4.765  16.337 -0.1890 -0.4493 -2.0380
 6395TIP3    H240601   3.479   4.884  16.244  0.6284  0.3248 -1.0783
 6396TIP3   OH240602   6.541   4.005  11.975  0.1887 -0.4381  0.4588
 6396TIP3    H140603   6.554   4.098  11.995  0.9686 -0.6525  1.0105
 6396TIP3    H240604   6.618   3.980  11.924 -0.5226 -0.5415 -0.5944
 6397TIP3   OH240605   5.099   5.849   2.240 -1.2387 -0.2190  0.0148
 6397TIP3    H140606   5.018   5.899   2.242 -3.0304 -2.9126 -0.0753
 6397TIP3    H240607   5.083   5.780   2.176  0.9736 -1.1083  0.3288
 6398TIP3   OH240608   5.393   5.944   0.968 -0.2940 -0.7085 -0.0723
 6398TIP3    H140609   5.299   5.938   0.951 -0.0747 -1.5822 -1.0374
 6398TIP3    H240610   5.426   6.006   0.902 -0.0811 -0.9972 -0.2434
 6399TIP3   OH240611   4.662   2.063  16.435  0.5063 -0.2030  0.0256
 6399TIP3    H140612   4.610   2.092  16.360  1.8079  1.0935 -0.4196
 6399TIP3    H240613   4.660   2.136  16.497  2.1844  0.1049 -0.2304
 6400TIP3   OH240614   2.752   2.821   1.804  0.1351 -0.5397 -0.3675
 6400TIP3    H140615   2.681   2.807   1.742  0.2006 -0.4216 -0.4687
 6400TIP3    H240616   2.767   2.735   1.843 -2.3536 -0.0124  2.1460
 6401TIP3   OH240617   6.413   3.307  13.098 -0.1836 -0.0766  0.3029
 6401TIP3    H140618   6.487   3.367  13.085  0.2995 -0.4244  1.3531
 6401TIP3    H240619   6.395   3.310  13.192  0.0921 -1.8401  0.4547
 6402TIP3   OH240620   2.005   2.494   5.627 -0.1204  0.1965  0.3851
 6402TIP3    H140621   2.082   2.534   5.667 -0.6060  1.7206 -0.1004
 6402TIP3    H240622   2.033   2.407   5.599  0.4126 -0.7292  3.4423
 6403TIP3   OH240623   0.494   2.582  12.636 -0.3587  0.4900  0.2295
 6403TIP3    H140624   0.439   2.641  12.585 -0.7308  1.1851  1.4198
 6403TIP3    H240625   0.544   2.639  12.694  2.0091 -0.0550 -1.1051
 6404TIP3   OH240626   0.980   5.040  16.366 -0.5810  0.0614  0.4225
 6404TIP3    H140627   0.944   5.098  16.299  2.8145  0.6197 -1.1236
 6404TIP3    H240628   1.014   4.965  16.316 -1.0173 -1.2176  1.9542
 6405TIP3   OH240629   3.903   1.258   5.193 -0.1955 -0.0541 -0.0408
 6405TIP3    H140630   3.898   1.162   5.197  1.2887 -0.1058  2.3779
 6405TIP3    H240631   3.838   1.287   5.257 -0.4975  0.5792 -0.6231
 6406TIP3   OH240632   4.480   0.665  14.936  0.1131  0.0371  0.0921
 6406TIP3    H140633   4.544   0.721  14.893 -0.2043  0.3200 -0.0110
 6406TIP3    H240634   4.533   0.601  14.984  0.4620 -0.3629 -0.8187
 6407TIP3   OH240635   4.270   5.636  12.307  0.9233 -1.0137 -0.6015
 6407TIP3    H140636   4.195   5.578  12.321  1.4009 -1.4876  0.0021
 6407TIP3    H240637   4.322   5.628  12.386  0.5772  0.8917 -0.1152
 6408TIP3   OH240638   5.506   4.095   5.430  0.2812  0.1677  0.0416
 6408TIP3    H140639   5.537   4.159   5.494 -1.1321  1.3039 -0.3515
 6408TIP3    H240640   5.531   4.131   5.345 -0.7672  0.3841 -0.1977
 6409TIP3   OH240641   1.238   2.167   3.619  0.4068  0.8605 -0.5885
 6409TIP3    H140642   1.177   2.148   3.690 -0.5258  0.9376 -1.3458
 6409TIP3    H240643   1.306   2.101   3.627 -1.0702 -0.8341 -1.1950
 6410TIP3   OH240644   1.290   2.183  15.069 -0.8001 -0.5006  0.1146
 6410TIP3    H140645   1.285   2.241  14.993 -1.5308 -0.2791  0.3166
 6410TIP3    H240646   1.370   2.133  15.056 -0.9206 -0.4767 -0.8121
 6411TIP3   OH240647   1.746   2.810  16.791 -0.2736  0.2555  0.4125
 6411TIP3    H140648   1.657   2.796  16.758 -0.6975 -1.3168  2.0236
 6411TIP3    H240649   1.784   2.875  16.732 -2.6170  1.2927 -0.0741
 6412TIP3   OH240650   5.351   4.278  16.088  0.1074 -0.1191 -0.1336
 6412TIP3    H140651   5.297   4.249  16.161  0.3916  0.2447  0.2248
 6412TIP3    H240652   5.420   4.213  16.080  1.1423  0.7761  1.1030
 6413TIP3   OH240653   6.488   3.147  11.862 -0.1365  0.1144  0.2896
 6413TIP3    H140654   6.423   3.140  11.932 -0.3275  0.1705  0.1175
 6413TIP3    H240655   6.521   3.058  11.851  1.8407  0.5301  2.2941
 6414TIP3   OH240656   6.251   4.285   2.417  0.0413  0.1482  0.0730
 6414TIP3    H140657   6.319   4.295   2.483 -1.3032 -0.2704  1.5818
 6414TIP3    H240658   6.244   4.190   2.404 -0.8974  0.1361  0.6368
 6415TIP3   OH240659   6.068   6.683  16.984 -0.1853  0.4684 -0.2394
 6415TIP3    H140660   6.025   6.702  16.901  0.6020  0.8788 -0.5616
 6415TIP3    H240661   6.037   6.595  17.007  1.0387 -0.4730 -1.9312
 6416TIP3   OH240662   5.026   3.172  12.694  0.0400  0.2088 -0.2038
 6416TIP3    H140663   4.972   3.248  12.674 -1.0026 -0.2747  0.6163
 6416TIP3    H240664   5.115   3.199  12.674 -0.5005  1.0281 -1.6572
 6417TIP3   OH240665   0.031   2.261  16.551  0.2797 -0.0127  0.1648
 6417TIP3    H140666   0.126   2.264  16.564  0.4855 -0.8435 -1.0635
 6417TIP3    H240667   0.017   2.189  16.490 -1.0329  0.9042 -0.6643
 6418TIP3   OH240668   4.561   1.657   1.737 -0.2807 -0.5748 -0.4115
 6418TIP3    H140669   4.495   1.685   1.674  0.0345  1.5661  0.1283
 6418TIP3    H240670   4.599   1.577   1.699 -0.8584  0.0343 -2.3610
 6419TIP3   OH240671   4.831   3.832   1.005  0.1015  0.6946  0.5749
 6419TIP3    H140672   4.912   3.852   1.052 -0.2041  0.1721  1.3467
 6419TIP3    H240673   4.855   3.760   0.947  0.2991  0.8425  0.4704
 6420TIP3   OH240674   6.056   6.580  15.023 -0.3747 -0.6486 -0.1515
 6420TIP3    H140675   6.069   6.530  14.942  0.0359  0.0748 -0.5426
 6420TIP3    H240676   6.038   6.669  14.994 -1.4078 -0.6224  0.5334
 6421TIP3   OH240677   2.035   3.858   3.935  0.0103 -0.1837 -0.8786
 6421TIP3    H140678   1.963   3.800   3.912 -0.2524 -0.1953 -0.0530
 6421TIP3    H240679   2.032   3.927   3.868 -0.1024 -0.7490 -1.4599
 6422TIP3   OH240680   4.064   3.699   4.056 -0.5140  0.1937 -0.2533
 6422TIP3    H140681   4.072   3.604   4.058 -0.5863  0.1685 -0.8884
 6422TIP3    H240682   4.012   3.717   3.977 -1.8205  0.6651  0.6787
 6423TIP3   OH240683   4.385   0.856   1.461 -0.1819 -0.0721  0.3235
 6423TIP3    H140684   4.303   0.884   1.422 -0.1463  0.2516  0.4776
 6423TIP3    H240685   4.430   0.937   1.484  0.7922 -0.2198 -0.9990
 6424TIP3   OH240686   3.106   6.079  13.270 -0.6196 -0.1580 -0.2000
 6424TIP3    H140687   3.077   5.994  13.300  0.5836 -0.5592 -0.1175
 6424TIP3    H240688   3.177   6.060  13.208  0.4718  0.8017  0.7126
 6425TIP3   OH240689   0.582   4.140  15.576 -0.2331  0.1750  0.3945
 6425TIP3    H140690   0.593   4.062  15.522 -0.6393 -0.3757  1.0894
 6425TIP3    H240691   0.490   4.164  15.567 -0.0645  0.7000  0.0235
 6426TIP3   OH240692   0.319   5.528  11.888 -0.0311  0.2784  0.2500
 6426TIP3    H140693   0.298   5.465  11.957  1.1543  0.0793  0.4372
 6426TIP3    H240694   0.406   5.562  11.911  1.6618 -1.7746 -2.5446
 6427TIP3   OH240695   3.917   0.745  12.541 -0.1703  0.1557 -0.4648
 6427TIP3    H140696   3.964   0.683  12.485  0.6495 -0.9727  1.3611
 6427TIP3    H240697   3.835   0.700  12.562 -0.2046  0.3083 -0.2724
 6428TIP3   OH240698   3.390   6.318   4.766  0.4670 -0.1228 -0.4228
 6428TIP3    H140699   3.377   6.400   4.814  1.3369  0.4624 -1.1644
 6428TIP3    H240700   3.471   6.281   4.802  0.7177 -0.0598 -0.9156
 6429TIP3   OH240701   1.639   4.803   1.331 -0.0128 -0.5133  0.3317
 6429TIP3    H140702   1.630   4.843   1.244  0.6494 -2.7140 -0.8173
 6429TIP3    H240703   1.683   4.870   1.383  0.1140  0.6550 -1.1864
 6430TIP3   OH240704   0.957   0.342  15.206  0.4352 -0.0209  0.4339
 6430TIP3    H140705   1.051   0.360  15.203  0.4050  0.0571 -0.3040
 6430TIP3    H240706   0.922   0.406  15.269  0.6609  1.0309 -0.4656
 6431TIP3   OH240707   1.698   6.549   5.333  0.2080  1.0246  0.1812
 6431TIP3    H140708   1.629   6.574   5.271  0.6289  0.6828 -0.4382
 6431TIP3    H240709   1.711   6.455   5.318  2.3062  1.4817 -1.2859
 6432TIP3   OH240710   4.901   0.929  13.259  0.1435  0.2068  0.0390
 6432TIP3    H140711   4.877   1.021  13.253  2.2301  0.8210  0.4301
 6432TIP3    H240712   4.987   0.924  13.217 -0.9747 -2.0511 -2.2696
 6433TIP3   OH240713   3.857   4.478   2.381 -0.0795 -0.1083 -0.1824
 6433TIP3    H140714   3.917   4.419   2.425 -1.9660 -0.5603  1.9949
 6433TIP3    H240715   3.888   4.566   2.403  1.4564 -0.2585 -1.5989
 6434TIP3   OH240716   4.626   5.915  16.770  0.3913  0.0971  0.8087
 6434TIP3    H140717   4.717   5.931  16.748  0.0498 -0.3952 -1.1001
 6434TIP3    H240718   4.576   5.969  16.709 -0.6017 -1.3369  0.3015
 6435TIP3   OH240719   6.101   4.475  12.145  0.6511 -0.1390 -0.2724
 6435TIP3    H140720   6.096   4.424  12.064 -1.5830  2.2602 -1.8438
 6435TIP3    H240721   6.113   4.566  12.115  0.5115  0.7412  2.1352
 6436TIP3   OH240722   6.454   6.738  12.272 -0.6319  0.2702  0.0111
 6436TIP3    H140723   6.472   6.663  12.214 -1.5535  0.4203 -0.5011
 6436TIP3    H240724   6.381   6.709  12.326  0.4939 -0.0218  1.4350
 6437TIP3   OH240725   2.025   3.281   4.513 -0.1743  0.4461  0.5367
 6437TIP3    H140726   2.030   3.186   4.509  2.5665  0.5379 -0.6854
 6437TIP3    H240727   2.090   3.306   4.579  0.2435  1.4973 -0.2357
 6438TIP3   OH240728   0.957   2.720  16.747 -0.6895  0.0086 -0.2566
 6438TIP3    H140729   0.955   2.724  16.652  1.2206  2.0226 -0.2969
 6438TIP3    H240730   0.988   2.807  16.774  0.6935 -1.1152  2.0962
 6439TIP3   OH240731   3.586   5.537  14.171  0.3278  0.0780  0.1515
 6439TIP3    H140732   3.501   5.496  14.186  0.3819  0.5061  1.8161
 6439TIP3    H240733   3.583   5.617  14.223  1.5396  0.3871 -0.2272
 6440TIP3   OH240734   2.828   1.819  13.100 -0.4521 -0.1642  0.0567
 6440TIP3    H140735   2.849   1.913  13.100  1.3028 -0.5164  0.2734
 6440TIP3    H240736   2.879   1.783  13.172  0.3379 -1.5541 -1.1311
 6441TIP3   OH240737   0.214   4.339   1.822 -0.2952  0.0588  0.2793
 6441TIP3    H140738   0.123   4.312   1.832 -0.9382  1.6900 -0.6969
 6441TIP3    H240739   0.237   4.313   1.733  0.0743  0.0164  0.3840
 6442TIP3   OH240740   0.727   6.748  12.942  0.7023  0.1023  0.4783
 6442TIP3    H140741   0.707   6.726  13.033  0.1200 -0.0375  0.3182
 6442TIP3    H240742   0.731   6.844  12.940 -0.7832  0.1778  0.3467
 6443TIP3   OH240743   2.071   5.782  16.749  0.4133 -0.5641  0.0602
 6443TIP3    H140744   2.072   5.721  16.823  1.7709 -2.2620 -1.2703
 6443TIP3    H240745   1.979   5.801  16.734  0.0338 -1.3593  1.2472
 6444TIP3   OH240746   5.259   2.539   5.022  0.0598  0.3705  0.1445
 6444TIP3    H140747   5.188   2.593   5.056 -0.3845  1.3238 -2.0803
 6444TIP3    H240748   5.234   2.449   5.043 -1.7816  0.6882 -0.4996
 6445TIP3   OH240749   2.924   5.727  16.404  0.7500 -0.3099  0.4205
 6445TIP3    H140750   2.883   5.813  16.408  1.0085 -0.1859  0.4242
 6445TIP3    H240751   3.007   5.737  16.450  2.0384  0.1642 -1.8560
 6446TIP3   OH240752   1.499   5.499  16.522 -0.4666 -0.3269 -0.0473
 6446TIP3    H140753   1.439   5.502  16.447 -0.0644  0.4026 -0.3488
 6446TIP3    H240754   1.585   5.519  16.485 -0.4985  1.7144  0.8321
 6447TIP3   OH240755   1.142   6.142  14.018  0.1535 -0.5911  0.2253
 6447TIP3    H140756   1.161   6.052  13.992  0.4583 -0.5447  0.2830
 6447TIP3    H240757   1.219   6.170  14.068  2.0043  1.0804 -3.1811
 6448TIP3   OH240758   5.759   0.090   1.228 -0.0359 -0.4918  0.0470
 6448TIP3    H140759   5.718   0.113   1.311  0.3578 -0.0261  0.1212
 6448TIP3    H240760   5.731   0.157   1.167  1.5467  0.5576  0.3960
 6449TIP3   OH240761   3.382   2.995  13.802 -0.3376  0.6475  0.1522
 6449TIP3    H140762   3.466   2.996  13.848 -0.7914  0.6447  1.0039
 6449TIP3    H240763   3.404   3.016  13.711  0.5900  0.5628  0.3444
 6450TIP3   OH240764   0.597   2.772  12.296  0.5740 -0.3518 -0.0689
 6450TIP3    H140765   0.519   2.827  12.292  1.1385  0.4081 -1.1627
 6450TIP3    H240766   0.651   2.809  12.365 -0.2483 -1.2029  1.0601
 6451TIP3   OH240767   0.693   6.168  14.665  0.1244 -0.0346 -0.2893
 6451TIP3    H140768   0.654   6.248  14.630  2.8710  1.3092 -0.5601
 6451TIP3    H240769   0.761   6.144  14.603  0.3676 -1.7564  0.5571
 6452TIP3   OH240770   5.813   3.873  12.829  0.4421  0.3802 -0.0658
 6452TIP3    H140771   5.845   3.958  12.798  0.8977 -0.1473 -1.1122
 6452TIP3    H240772   5.882   3.812  12.805 -0.7096 -0.5710 -1.1065
 6453TIP3   OH240773   3.008   1.675   2.050 -0.5322 -0.3453  0.5382
 6453TIP3    H140774   2.994   1.751   1.993 -0.7122  0.0588  1.1134
 6453TIP3    H240775   3.056   1.711   2.125 -0.5648 -0.8185  0.7821
 6454TIP3   OH240776   4.926   3.656   1.857  0.0717 -0.3149 -0.4432
 6454TIP3    H140777   4.891   3.668   1.769 -0.5540 -0.8366 -0.2787
 6454TIP3    H240778   5.007   3.608   1.845  1.0031  1.2808 -0.8703
 6455TIP3   OH240779   5.768   3.735  12.411  0.2208 -0.4396  0.0553
 6455TIP3    H140780   5.713   3.756  12.486 -0.4254 -0.4466 -0.4072
 6455TIP3    H240781   5.777   3.640  12.412  1.0587 -0.3686  0.6982
 6456TIP3   OH240782   1.698   1.980   4.539  0.9962 -0.6307 -0.1507
 6456TIP3    H140783   1.732   2.066   4.566  0.9097 -0.7155  0.2236
 6456TIP3    H240784   1.604   1.993   4.530  0.7648 -1.0492  1.3465
 6457TIP3   OH240785   3.326   3.024   3.213 -0.0230  0.0404 -0.1968
 6457TIP3    H140786   3.249   3.071   3.182  0.0975 -0.6048 -1.5867
 6457TIP3    H240787   3.299   2.932   3.212  0.7377 -0.1853 -0.6540
 6458TIP3   OH240788   2.391   0.338  16.285 -0.0879  0.2630  0.2248
 6458TIP3    H140789   2.483   0.312  16.290 -0.1613 -0.0401  0.0357
 6458TIP3    H240790   2.356   0.287  16.212 -0.1901  1.0545 -0.2794
 6459TIP3   OH240791   1.169   4.276  11.107 -0.5090 -0.1305 -0.4333
 6459TIP3    H140792   1.168   4.333  11.184 -0.6171  1.8391 -1.8093
 6459TIP3    H240793   1.088   4.226  11.113 -1.1173  0.8908  0.1175
 6460TIP3   OH240794   4.701   1.266  12.834  0.0958  0.0307  0.0276
 6460TIP3    H140795   4.657   1.330  12.890  2.1043  1.9447 -0.4365
 6460TIP3    H240796   4.681   1.182  12.874 -1.1791  1.0725  1.7310
 6461TIP3   OH240797   6.234   4.708  16.787  0.2717 -0.0329  0.3471
 6461TIP3    H140798   6.284   4.788  16.804  1.2536 -0.7216  0.7839
 6461TIP3    H240799   6.202   4.680  16.874  0.4684 -0.4594  0.2835
 6462TIP3   OH240800   2.563   0.874  10.423  0.5045 -0.4459  0.3975
 6462TIP3    H140801   2.626   0.921  10.368 -1.7404  0.3836 -1.6956
 6462TIP3    H240802   2.541   0.796  10.373  0.3367 -1.0409  1.3826
 6463TIP3   OH240803   2.706   0.698   4.971 -0.2018 -0.9983 -1.1872
 6463TIP3    H140804   2.770   0.698   4.900 -0.0667  0.4907 -1.1002
 6463TIP3    H240805   2.748   0.747   5.042 -0.7575 -1.5274 -0.4729
 6464TIP3   OH240806   3.072   5.545  13.350 -0.5372  0.5090  0.0750
 6464TIP3    H140807   3.063   5.499  13.434 -0.4055 -0.1150 -0.2435
 6464TIP3    H240808   3.120   5.483  13.295 -1.9583  0.2836 -0.9488
 6465TIP3   OH240809   4.742   6.698   1.665  0.1412 -0.3486  0.1159
 6465TIP3    H140810   4.786   6.779   1.689 -3.6195  1.9462  0.2118
 6465TIP3    H240811   4.750   6.694   1.569 -0.1241  0.4981  0.0462
 6466TIP3   OH240812   5.524   3.999   0.893 -0.1986  0.1506  0.2040
 6466TIP3    H140813   5.604   3.979   0.940  0.2183 -0.9010 -0.9047
 6466TIP3    H240814   5.548   3.996   0.800 -1.1316  1.5458 -0.1331
 6467TIP3   OH240815   4.815   6.453   1.782 -0.0791  0.0550  0.0277
 6467TIP3    H140816   4.788   6.537   1.744 -0.0881 -0.2644 -0.6923
 6467TIP3    H240817   4.908   6.447   1.762  0.2724  0.5743  1.4017
 6468TIP3   OH240818   2.960   6.361   3.060  0.1627 -0.7224  0.1120
 6468TIP3    H140819   2.875   6.317   3.060 -0.1232 -0.1926 -0.7584
 6468TIP3    H240820   2.973   6.388   2.970  0.6648  0.3543  0.4940
 6469TIP3   OH240821   0.145   1.568   5.907  0.5900 -0.5639  0.7361
 6469TIP3    H140822   0.090   1.493   5.931  0.0904 -0.5268 -0.2538
 6469TIP3    H240823   0.226   1.529   5.876 -0.1228 -0.7785 -0.9540
 6470TIP3   OH240824   6.032   3.119  11.550  0.1048  0.1749 -0.9878
 6470TIP3    H140825   6.004   3.168  11.472 -3.8203 -1.2286 -0.6753
 6470TIP3    H240826   6.039   3.186  11.618  1.1490  1.0863 -1.9472
 6471TIP3   OH240827   0.485   1.162   5.676  0.1017  0.0853 -0.2001
 6471TIP3    H140828   0.534   1.084   5.701 -0.2526 -0.5452 -1.4011
 6471TIP3    H240829   0.525   1.191   5.594  0.4868  1.4153  0.4300
 6472TIP3   OH240830   0.689   2.614  10.875 -0.4668 -0.8981 -0.5384
 6472TIP3    H140831   0.619   2.669  10.839 -1.2237 -0.1617  1.8534
 6472TIP3    H240832   0.648   2.528  10.886 -0.6494 -0.7698 -0.2033
 6473TIP3   OH240833   0.549   0.842   1.186 -0.1871 -0.3774 -0.2440
 6473TIP3    H140834   0.601   0.762   1.192  0.0410 -0.2710 -0.7198
 6473TIP3    H240835   0.592   0.894   1.118  0.7839  1.0010  1.3458
 6474TIP3   OH240836   5.742   0.186   1.517  0.1013 -0.1005 -0.4962
 6474TIP3    H140837   5.701   0.263   1.555 -1.8078 -0.8493 -0.9132
 6474TIP3    H240838   5.737   0.120   1.586  1.1350 -0.0565 -0.3659
 6475TIP3   OH240839   1.631   5.430   3.628  0.2925  0.2065 -0.0298
 6475TIP3    H140840   1.689   5.458   3.699 -0.4574 -2.1241  1.6168
 6475TIP3    H240841   1.543   5.448   3.660 -0.0674 -1.0852 -0.2227
 6476TIP3   OH240842   2.646   0.780  15.468 -0.0633 -0.1583  0.3500
 6476TIP3    H140843   2.714   0.836  15.430  0.4915 -0.9361  0.1543
 6476TIP3    H240844   2.630   0.712  15.402 -1.6761  0.4969  0.0319
 6477TIP3   OH240845   1.140   5.638   4.651 -0.6554  0.2245 -0.1874
 6477TIP3    H140846   1.081   5.706   4.620 -1.4689 -0.3608  0.0592
 6477TIP3    H240847   1.093   5.594   4.722 -0.2641 -0.7626 -0.5118
 6478TIP3   OH240848   0.917   6.375   3.285 -0.2542  0.4233 -0.4920
 6478TIP3    H140849   0.971   6.342   3.357  0.6283 -0.4182 -1.4943
 6478TIP3    H240850   0.931   6.470   3.286  1.4875  0.2088 -0.8618
 6479TIP3   OH240851   3.587   1.953  13.312  0.3224  0.4106 -0.4243
 6479TIP3    H140852   3.591   1.858  13.313 -1.5305  0.2883 -0.2280
 6479TIP3    H240853   3.525   1.974  13.242 -0.7274  1.3478  0.7327
 6480TIP3   OH240854   1.782   1.687  10.878  0.2195 -0.8122 -0.1516
 6480TIP3    H140855   1.871   1.682  10.844  0.2430 -0.1560 -0.2145
 6480TIP3    H240856   1.728   1.712  10.802  0.0951 -0.5031  0.0339
 6481TIP3   OH240857   1.152   0.856  12.372  0.8956 -0.3019 -0.0445
 6481TIP3    H140858   1.154   0.771  12.328 -0.8878 -1.4883  1.9414
 6481TIP3    H240859   1.240   0.867  12.407  0.4761 -2.7576  2.0426
 6482TIP3   OH240860   1.050   0.388   1.332 -0.6491 -0.1164  0.3500
 6482TIP3    H140861   1.091   0.350   1.254  0.6131  0.4673  0.7013
 6482TIP3    H240862   0.958   0.361   1.326 -0.5478 -0.2109 -1.2509
 6483TIP3   OH240863   2.390   0.955  12.147 -0.4296 -0.3324  0.6482
 6483TIP3    H140864   2.317   0.929  12.092 -2.0280  0.2761  2.3680
 6483TIP3    H240865   2.463   0.900  12.119 -2.2771 -2.9553  0.7024
 6484TIP3   OH240866   2.295   3.376   5.796 -0.1616  0.7971  0.6311
 6484TIP3    H140867   2.201   3.380   5.777 -0.4161 -1.5350  1.1508
 6484TIP3    H240868   2.306   3.435   5.871 -1.0714  1.6437  0.1267
 6485TIP3   OH240869   1.125   6.724  14.284  0.1102  0.2272  0.4187
 6485TIP3    H140870   1.051   6.775  14.315  0.5131  1.6021 -0.7254
 6485TIP3    H240871   1.142   6.759  14.196  2.9047  0.9241  1.1192
 6486TIP3   OH240872   3.036   2.107  13.996 -0.0411  0.1352  0.2046
 6486TIP3    H140873   3.034   2.046  14.069  1.2592 -0.6266 -0.3592
 6486TIP3    H240874   3.111   2.164  14.014 -0.6051  0.8812  0.2013
 6487TIP3   OH240875   6.283   4.376  15.942  0.7602  0.2230  0.4559
 6487TIP3    H140876   6.333   4.372  16.024 -0.9045  0.9486  1.5485
 6487TIP3    H240877   6.232   4.295  15.941 -0.7672  1.1305  1.2079
 6488TIP3   OH240878   5.710   4.930  16.148 -0.0288  0.3012  0.7724
 6488TIP3    H140879   5.665   4.913  16.231  1.8700  1.2260  2.0573
 6488TIP3    H240880   5.777   4.861  16.143  1.2357  1.4723  1.0868
 6489TIP3   OH240881   0.048   6.190   5.589  0.1620  0.2263  0.1518
 6489TIP3    H140882   0.005   6.222   5.669 -1.6685 -1.3437 -0.1366
 6489TIP3    H240883  -0.008   6.221   5.518  0.5984 -0.2147 -0.3854
 6490TIP3   OH240884   6.533   0.983  11.852  0.2939  0.0073 -0.0812
 6490TIP3    H140885   6.610   1.028  11.885 -0.7715  1.0802  1.0447
 6490TIP3    H240886   6.550   0.890  11.869  1.0717  0.2853  0.7184
 6491TIP3   OH240887   4.802   5.730  13.657  0.2841  0.7456 -0.0056
 6491TIP3    H140888   4.785   5.783  13.734  1.1599 -0.5324  1.1216
 6491TIP3    H240889   4.823   5.793  13.588  1.4919  1.8615  1.3231
 6492TIP3   OH240890   0.039   5.489  10.445 -0.2785  0.5144  0.3267
 6492TIP3    H140891   0.079   5.417  10.494  0.0892  0.9501  0.6724
 6492TIP3    H240892  -0.035   5.449  10.400 -1.0997  0.2629  1.8562
 6493TIP3   OH240893   4.706   4.342  13.967  0.1243 -0.5643 -0.6097
 6493TIP3    H140894   4.690   4.362  14.059  0.2175  3.0552 -1.2203
 6493TIP3    H240895   4.622   4.310  13.934 -0.8660  1.1234  0.1178
 6494TIP3   OH240896   1.897   5.582  10.723  0.1605 -0.0580  0.2551
 6494TIP3    H140897   1.990   5.604  10.723 -0.1157  1.1943  0.7758
 6494TIP3    H240898   1.893   5.495  10.683  1.3354  0.8080 -1.9219
 6495TIP3   OH240899   0.061   6.222  14.313  0.2729  0.2459 -0.3475
 6495TIP3    H140900  -0.001   6.292  14.294  0.6539  0.5069 -0.6540
 6495TIP3    H240901   0.147   6.262  14.299  0.4847 -0.3792 -0.8606
 6496TIP3   OH240902   5.291   3.366   5.901 -0.1958  0.1539 -0.4331
 6496TIP3    H140903   5.342   3.328   5.972 -0.4557  1.2048  0.3449
 6496TIP3    H240904   5.261   3.291   5.849  1.3684 -0.5247 -0.3872
 6497TIP3   OH240905   3.361   4.746   1.136  0.0123  0.0090 -0.2151
 6497TIP3    H140906   3.406   4.819   1.094 -1.4077  1.3510  0.5155
 6497TIP3    H240907   3.429   4.703   1.187  1.3986 -0.6418 -2.4389
 6498TIP3   OH240908   5.014   6.604   2.902 -0.0524  0.0702 -0.2349
 6498TIP3    H140909   5.093   6.575   2.947 -0.3462  0.5556  0.6164
 6498TIP3    H240910   5.026   6.575   2.812 -0.1456 -2.3801  0.4541
 6499TIP3   OH240911   0.368   5.646   0.872 -0.0126 -0.4393  0.8025
 6499TIP3    H140912   0.362   5.734   0.836 -0.2744 -0.0046  1.8494
 6499TIP3    H240913   0.419   5.596   0.808  2.9951  1.2827  1.6445
 6500TIP3   OH240914   1.946   4.942   1.315  0.0607 -0.0822  0.1265
 6500TIP3    H140915   2.007   4.882   1.357 -0.4624 -1.8458 -1.4867
 6500TIP3    H240916   1.882   4.963   1.382 -0.3909 -2.2977  0.4468
 6501TIP3   OH240917   4.484   3.870   3.055 -0.1727 -0.8266  0.3516
 6501TIP3    H140918   4.503   3.783   3.021 -1.3382 -0.4932 -1.2726
 6501TIP3    H240919   4.393   3.886   3.030 -0.2225  0.5602  1.3016
 6502TIP3   OH240920   2.536   4.589   4.682  0.2753  0.0342 -0.0818
 6502TIP3    H140921   2.514   4.627   4.597 -2.0904  1.5001  1.1199
 6502TIP3    H240922   2.463   4.610   4.739  2.1298 -0.2008  2.5983
 6503TIP3   OH240923   4.749   3.960  13.818  1.0696 -0.2555 -0.0100
 6503TIP3    H140924   4.802   3.882  13.803  0.9463 -0.2554 -0.4559
 6503TIP3    H240925   4.787   4.000  13.897  1.9256 -0.0916 -0.4929
 6504TIP3   OH240926   0.795   4.893   6.120  0.2705 -0.0782  0.1970
 6504TIP3    H140927   0.742   4.960   6.163 -0.2754 -0.6145  0.3762
 6504TIP3    H240928   0.883   4.907   6.153 -0.4488 -1.7473  3.1696
 6505TIP3   OH240929   0.971   4.061  12.550  0.2413  0.2007 -0.0214
 6505TIP3    H140930   0.990   4.154  12.536 -1.2845  0.9891  2.5349
 6505TIP3    H240931   0.877   4.053  12.538 -0.0661 -0.4070  2.1910
 6506TIP3   OH240932   1.371   6.317   0.504 -0.2521  0.0399  0.3585
 6506TIP3    H140933   1.398   6.334   0.595 -1.4772 -2.9827  1.4129
 6506TIP3    H240934   1.278   6.294   0.510  0.0061 -1.7439 -1.4044
 6507TIP3   OH240935   2.803   4.469   5.154 -0.3900  0.0941 -0.0607
 6507TIP3    H140936   2.851   4.402   5.202  0.5773  0.2773 -0.7472
 6507TIP3    H240937   2.870   4.533   5.129 -0.9156  0.1161 -1.4654
 6508TIP3   OH240938   5.287   2.282   2.651 -0.5953 -0.0408 -0.1427
 6508TIP3    H140939   5.305   2.364   2.604  0.6178  0.3202  0.8866
 6508TIP3    H240940   5.362   2.226   2.631 -0.0334  0.1306  1.3155
 6509TIP3   OH240941   6.078   4.210  11.428 -0.0282 -0.1065 -0.5986
 6509TIP3    H140942   6.040   4.271  11.365  1.3449  0.6685 -0.7146
 6509TIP3    H240943   6.153   4.172  11.382 -0.6315 -1.6199 -0.3948
 6510TIP3   OH240944   6.141   5.285  14.538 -0.3910 -0.4589 -0.5315
 6510TIP3    H140945   6.052   5.288  14.575  0.0182  1.0590  0.4264
 6510TIP3    H240946   6.186   5.357  14.581  0.8991 -0.2901 -2.1155
 6511TIP3   OH240947   0.154   1.309   5.236 -0.1335  0.2337 -0.0563
 6511TIP3    H140948   0.178   1.360   5.314  0.4551  0.3882 -0.3366
 6511TIP3    H240949   0.108   1.233   5.271  0.3166  0.1938  0.4533
 6512TIP3   OH240950   6.036   3.605  15.602 -0.5284  0.2861 -0.8449
 6512TIP3    H140951   6.069   3.643  15.683 -1.4218 -0.0519 -0.3084
 6512TIP3    H240952   6.114   3.574  15.556  0.0147  0.8008 -0.2798
 6513TIP3   OH240953   3.305   6.726  14.249  0.1108 -0.1636 -0.6536
 6513TIP3    H140954   3.400   6.715  14.238  0.2568  0.6349 -0.2598
 6513TIP3    H240955   3.267   6.654  14.198  0.9429 -1.2305  0.1921
 6514TIP3   OH240956   0.484   1.598   1.211 -0.1794  0.4226 -0.2522
 6514TIP3    H140957   0.566   1.584   1.163 -0.5691 -0.8449 -0.5949
 6514TIP3    H240958   0.417   1.563   1.152 -0.7746 -0.1973  0.7746
 6515TIP3   OH240959   4.081   1.092  13.759 -0.6322 -0.6235 -0.5020
 6515TIP3    H140960   4.030   1.166  13.728  1.5630  1.3081  0.1940
 6515TIP3    H240961   4.152   1.084  13.695  0.7129 -0.2820  0.8906
 6516TIP3   OH240962   4.397   5.051   0.033  0.0579 -0.3212  0.7380
 6516TIP3    H140963   4.408   4.956   0.039 -0.0474 -0.3096  1.0987
 6516TIP3    H240964   4.385   5.080   0.123 -2.1855 -0.2443  0.4808
 6517TIP3   OH240965   3.070   3.664   4.628 -0.2680 -0.0129  0.0377
 6517TIP3    H140966   3.026   3.580   4.618  0.0832 -0.1138 -0.7325
 6517TIP3    H240967   3.144   3.660   4.569  0.9440  0.0580  1.4830
 6518TIP3   OH240968   6.051   1.527  13.177  0.2339  0.4014 -0.6921
 6518TIP3    H140969   6.050   1.506  13.083 -0.1138  0.2361 -0.6533
 6518TIP3    H240970   6.129   1.582  13.188  2.0339 -2.0096 -0.5514
 6519TIP3   OH240971   6.258   4.726  16.136  0.1188 -1.0794 -0.2070
 6519TIP3    H140972   6.226   4.816  16.127  0.7428 -0.5795  1.9401
 6519TIP3    H240973   6.180   4.672  16.129 -0.7405 -0.1292  1.4845
 6520TIP3   OH240974   0.498   1.940  15.451  0.4293 -0.2957  0.0815
 6520TIP3    H140975   0.565   1.978  15.394  0.1117 -0.8678 -0.6890
 6520TIP3    H240976   0.504   1.991  15.532  1.8798 -0.3993  0.0767
 6521TIP3   OH240977   0.139   1.797   1.904 -0.0908 -1.0162 -0.1476
 6521TIP3    H140978   0.046   1.807   1.925 -0.1990 -1.3419 -0.4721
 6521TIP3    H240979   0.184   1.818   1.986 -0.3952  0.1925 -0.2604
 6522TIP3   OH240980   1.157   2.817  16.461  0.1454 -0.4699  0.0014
 6522TIP3    H140981   1.134   2.871  16.385 -1.1293 -1.1506 -0.1329
 6522TIP3    H240982   1.181   2.880  16.529  1.2724  0.1435 -0.9488
 6523TIP3   OH240983   0.377   5.799  16.044  0.2478 -0.1803 -0.0017
 6523TIP3    H140984   0.428   5.722  16.019  0.0111 -0.3021 -0.1250
 6523TIP3    H240985   0.407   5.821  16.131  2.5458  1.4653 -1.1292
 6524TIP3   OH240986   2.854   3.962  14.285  0.4752 -0.8272  0.0726
 6524TIP3    H140987   2.786   3.906  14.323 -0.5932 -0.3351 -1.0256
 6524TIP3    H240988   2.821   3.983  14.198  1.1123  1.0730  0.2515
 6525TIP3   OH240989   0.662   0.702   1.489  0.1921 -0.5481  0.2401
 6525TIP3    H140990   0.599   0.740   1.428  0.3593 -2.0031 -0.9156
 6525TIP3    H240991   0.613   0.694   1.571 -0.5413  0.0274 -0.1233
 6526TIP3   OH240992   6.572   0.025  13.153  0.2777 -0.2035 -0.1791
 6526TIP3    H140993   6.504  -0.037  13.126  2.0242 -3.4392  2.2561
 6526TIP3    H240994   6.553   0.042  13.245  1.6476  0.4287 -0.0020
 6527TIP3   OH240995   4.068   3.778  12.286  0.1416  0.5463  0.4801
 6527TIP3    H140996   4.133   3.723  12.329  1.7212  1.2731 -0.8101
 6527TIP3    H240997   4.031   3.723  12.218  0.0808  0.3896  0.6425
 6528TIP3   OH240998   3.479   0.859   5.169  0.0937 -0.1854 -0.6956
 6528TIP3    H140999   3.524   0.943   5.168 -3.2878  1.8717 -2.5000
 6528TIP3    H241000   3.529   0.803   5.109  1.2635  1.3003 -1.1456
 6529TIP3   OH241001   4.022   4.668   5.821  0.5109  0.3215 -0.2809
 6529TIP3    H141002   4.028   4.588   5.769  1.2063 -0.2090  0.5767
 6529TIP3    H241003   4.113   4.686   5.846  0.4186  1.6111 -0.7896
 6530TIP3   OH241004   2.838   1.201   1.037  0.2162 -1.0105 -0.2803
 6530TIP3    H141005   2.882   1.144   1.100  0.0806  0.7095  1.4607
 6530TIP3    H241006   2.908   1.234   0.980  0.7259 -0.6574  0.5452
 6531TIP3   OH241007   0.095   1.582  15.715 -0.1504  0.0421  0.3655
 6531TIP3    H141008   0.190   1.586  15.710 -0.0268  0.3740  2.0789
 6531TIP3    H241009   0.078   1.525  15.791 -1.2775  0.8458  0.7419
 6532TIP3   OH241010   6.516   2.018  14.530  0.0755 -0.3349 -0.1453
 6532TIP3    H141011   6.449   2.084  14.543 -0.2920 -0.7548  0.1525
 6532TIP3    H241012   6.494   1.949  14.593  1.2621 -0.1173  0.5447
 6533TIP3   OH241013   5.298   5.894   5.054  0.2478  0.2669 -0.6935
 6533TIP3    H141014   5.274   5.855   5.138 -2.4635  1.9226 -0.5640
 6533TIP3    H241015   5.272   5.829   4.989  0.7583 -0.3208 -0.3145
 6534TIP3   OH241016   5.990   0.977   4.756  0.0712  0.5055  0.1016
 6534TIP3    H141017   5.965   0.943   4.671 -1.5964 -0.6799  1.0177
 6534TIP3    H241018   6.086   0.974   4.756  0.0601 -0.6096 -1.2687
 6535TIP3   OH241019   5.310   5.328   6.028 -0.0666  0.3978 -0.2078
 6535TIP3    H141020   5.306   5.242   6.069 -0.0529 -0.0404 -1.0946
 6535TIP3    H241021   5.380   5.374   6.075  0.7278 -0.4890 -0.4802
 6536TIP3   OH241022   6.267   4.292  13.291  0.0025  0.2778 -0.0780
 6536TIP3    H141023   6.213   4.225  13.250  0.8577 -0.4926  0.0380
 6536TIP3    H241024   6.219   4.374  13.276 -1.5563 -0.4568  0.6258
 6537TIP3   OH241025   0.198   1.062  12.697  0.4270  0.5265  0.0531
 6537TIP3    H141026   0.159   1.144  12.668 -0.2830  0.4943  0.9052
 6537TIP3    H241027   0.130   1.019  12.749  0.5407 -0.9220 -0.9286
 6538TIP3   OH241028   2.522   1.631   1.544  0.4100  0.3859 -0.3710
 6538TIP3    H141029   2.434   1.627   1.580  0.2552 -1.9186 -0.8472
 6538TIP3    H241030   2.517   1.697   1.475 -0.5351  1.3130  0.5461
 6539TIP3   OH241031   0.407   3.929  13.984  0.0999  0.7366 -0.3144
 6539TIP3    H141032   0.467   3.947  14.056 -0.6753  0.9919  0.2966
 6539TIP3    H241033   0.364   4.013  13.968  1.0844  0.9755 -1.8831
 6540TIP3   OH241034   3.640   0.599   5.321  0.2458 -0.2162 -0.5104
 6540TIP3    H141035   3.623   0.612   5.414  0.3422  1.4189 -0.6906
 6540TIP3    H241036   3.565   0.549   5.290  0.2445 -0.8252  0.4572
 6541TIP3   OH241037   2.864   3.400   3.869 -0.0654  0.1090  0.2892
 6541TIP3    H141038   2.857   3.330   3.805 -0.3775 -0.6449  1.1159
 6541TIP3    H241039   2.779   3.444   3.867  0.1926  0.5894 -0.3601
 6542TIP3   OH241040   4.125   1.901   5.200 -0.7327  0.0034  0.2954
 6542TIP3    H141041   4.077   1.885   5.281 -0.7190  0.7759  0.4600
 6542TIP3    H241042   4.059   1.933   5.139 -0.9561 -1.6130 -0.3474
 6543TIP3   OH241043   1.249   0.410   3.076  0.0370 -0.1369 -0.3509
 6543TIP3    H141044   1.251   0.330   3.129 -2.8348 -0.9372 -1.3006
 6543TIP3    H241045   1.306   0.390   3.001  0.3951 -0.7745  0.0855
 6544TIP3   OH241046   5.675   0.788  10.747  0.6362  0.1102  0.0740
 6544TIP3    H141047   5.658   0.757  10.837 -0.3698 -1.1116 -0.4982
 6544TIP3    H241048   5.668   0.709  10.694 -3.3588  1.3733 -1.6712
 6545TIP3   OH241049   3.593   6.571   5.053 -0.4336 -0.1996  0.7682
 6545TIP3    H141050   3.545   6.504   5.006  1.2654 -0.5146 -0.6295
 6545TIP3    H241051   3.613   6.638   4.987 -1.4685  1.3700  1.9629
 6546TIP3   OH241052   0.929   1.248   1.234 -0.2752 -0.0580  0.4318
 6546TIP3    H141053   0.937   1.251   1.139 -0.9597  1.8864  0.3969
 6546TIP3    H241054   1.018   1.237   1.266 -0.1561 -1.9627 -0.4286
 6547TIP3   OH241055   1.301   0.962  16.188 -0.4751  0.3423 -0.1753
 6547TIP3    H141056   1.391   0.961  16.223 -1.0219  0.9643  1.3530
 6547TIP3    H241057   1.281   0.870  16.172  0.5975  0.2339 -1.0014
 6548TIP3   OH241058   3.672   5.453  13.669 -0.3370 -0.0879  0.0074
 6548TIP3    H141059   3.714   5.417  13.747 -1.3228  0.0324  0.6146
 6548TIP3    H241060   3.738   5.512  13.632  0.5789 -1.0503  0.0727
 6549TIP3   OH241061   5.226   2.275  16.704  0.0006  0.1959 -0.2244
 6549TIP3    H141062   5.242   2.206  16.640 -0.9653  1.0490 -1.4362
 6549TIP3    H241063   5.233   2.357  16.654  1.6403  1.0375  1.2735
 6550TIP3   OH241064   5.893   2.555  15.633  0.0467 -0.0158 -0.0563
 6550TIP3    H141065   5.849   2.633  15.668 -0.7060 -0.0385 -0.9280
 6550TIP3    H241066   5.948   2.525  15.706 -0.1379  0.9529  0.5098
 6551TIP3   OH241067   5.084   3.757  14.020  0.3904  0.1134  0.4376
 6551TIP3    H141068   5.111   3.821  13.955 -0.5708  0.8396  0.7270
 6551TIP3    H241069   5.044   3.687  13.969  1.8848 -0.5314  0.0813
 6552TIP3   OH241070   6.665   5.038  13.917  0.2499 -0.3014 -0.1165
 6552TIP3    H141071   6.745   5.073  13.955  1.1522 -1.3480 -0.9937
 6552TIP3    H241072   6.607   5.024  13.992  1.3321 -0.6625  0.6766
 6553TIP3   OH241073   6.686   6.677   4.904 -0.1998 -0.2490  0.2828
 6553TIP3    H141074   6.727   6.616   4.966  1.3090  0.3103 -0.1319
 6553TIP3    H241075   6.713   6.764   4.933 -0.8905  0.1295 -0.1669
 6554TIP3   OH241076   2.991   0.946  16.658  0.2217  0.0102 -0.4305
 6554TIP3    H141077   2.941   1.018  16.619 -0.4481 -0.0866  0.2430
 6554TIP3    H241078   3.000   0.969  16.750  0.5260 -0.4796 -0.3323
 6555TIP3   OH241079   3.371   4.528  16.068  0.5850  0.1066  0.4593
 6555TIP3    H141080   3.280   4.511  16.042  1.4073  0.3467 -3.0706
 6555TIP3    H241081   3.392   4.457  16.128 -1.0900 -1.7323 -0.9866
 6556TIP3   OH241082   4.282   4.984   1.371  0.3252  0.1748 -0.3677
 6556TIP3    H141083   4.217   5.011   1.436 -0.4710 -1.6488 -0.3417
 6556TIP3    H241084   4.252   5.023   1.289  0.0662  0.6068 -0.0724
 6557TIP3   OH241085   0.874   3.825  16.088  0.6063 -0.0444  0.0117
 6557TIP3    H141086   0.936   3.886  16.128  1.8568 -1.0384 -0.3864
 6557TIP3    H241087   0.922   3.744  16.078 -0.3109 -0.4218 -1.6687
 6558TIP3   OH241088   1.712   4.366   3.922 -0.0913 -0.4704 -0.7506
 6558TIP3    H141089   1.736   4.273   3.916 -1.0526 -0.7026 -1.1459
 6558TIP3    H241090   1.617   4.365   3.934  0.0043  0.4423  0.1704
 6559TIP3   OH241091   1.874   4.715   4.717  0.2243  0.4105 -0.3265
 6559TIP3    H141092   1.894   4.765   4.638  0.6564  0.6846 -0.0492
 6559TIP3    H241093   1.796   4.757   4.753 -0.4135 -0.1754 -0.9979
 6560TIP3   OH241094   0.785   0.922   3.355 -0.1134  0.0906  0.5750
 6560TIP3    H141095   0.875   0.893   3.366  0.7342  2.8145  1.5694
 6560TIP3    H241096   0.790   0.994   3.292 -1.5434  0.4997  0.8826
 6561TIP3   OH241097   5.598   6.530   3.998 -0.2696  0.3748  0.3304
 6561TIP3    H141098   5.687   6.502   4.020 -0.6778 -2.2267 -0.9167
 6561TIP3    H241099   5.582   6.607   4.054  2.2761  0.1575  1.4921
 6562TIP3   OH241100   4.779   1.484   0.672 -0.2304 -0.3054  0.0050
 6562TIP3    H141101   4.857   1.540   0.664  0.4933 -0.7480  2.7368
 6562TIP3    H241102   4.726   1.526   0.740 -0.0064 -2.4571  1.6265
 6563TIP3   OH241103   1.937   4.229   1.489  0.8780 -0.4007  0.6359
 6563TIP3    H141104   1.912   4.276   1.410  1.3754  0.5912  1.0451
 6563TIP3    H241105   1.900   4.141   1.479 -0.9744  0.3854  0.3244
 6564TIP3   OH241106   0.473   0.168   0.762 -0.7257  0.4665  0.0253
 6564TIP3    H141107   0.514   0.246   0.724  2.2911 -0.5702  0.8139
 6564TIP3    H241108   0.463   0.107   0.688  0.2878  0.3345 -0.0199
 6565TIP3   OH241109   3.822   2.463   0.213 -0.1503  0.0395 -0.7980
 6565TIP3    H141110   3.757   2.396   0.196  0.6241 -0.0767 -3.7594
 6565TIP3    H241111   3.899   2.415   0.243 -0.6574 -0.0037  0.5394
 6566TIP3   OH241112   6.706   4.620  12.314  0.4224 -0.1120 -0.2563
 6566TIP3    H141113   6.689   4.639  12.222 -0.0491  2.8749  0.3452
 6566TIP3    H241114   6.744   4.701  12.349  0.4465 -1.0921  2.2202
 6567TIP3   OH241115   6.528   0.853  13.045  0.1416 -0.1316 -0.8467
 6567TIP3    H141116   6.580   0.773  13.050  1.7033  0.8416 -0.8305
 6567TIP3    H241117   6.537   0.882  12.954  0.9206  0.8508 -0.4745
 6568TIP3   OH241118   6.220   1.757  15.035 -0.2312 -0.3944  0.3108
 6568TIP3    H141119   6.305   1.720  15.013  0.3012  0.1559  1.3421
 6568TIP3    H241120   6.223   1.847  15.000 -0.1552 -0.1813  0.8532
 6569TIP3   OH241121   4.090   5.998  13.246  0.1933  0.4379 -0.1789
 6569TIP3    H141122   4.184   6.012  13.254  0.2685 -0.2686  0.2618
 6569TIP3    H241123   4.057   6.078  13.207  0.7638  1.3468  1.1151
 6570TIP3   OH241124   1.579   5.179   2.879  0.0505 -0.3943 -0.4652
 6570TIP3    H141125   1.584   5.084   2.868 -0.6707 -0.4678 -0.2238
 6570TIP3    H241126   1.634   5.197   2.955 -1.4773 -0.8957  0.8151
 6571TIP3   OH241127   2.076   0.604  14.568  0.0988 -0.0260  0.1682
 6571TIP3    H141128   2.023   0.595  14.647  0.4005  1.9167  0.6298
 6571TIP3    H241129   2.013   0.600  14.496 -0.2790 -0.8947  0.5338
 6572TIP3   OH241130   5.664   3.321   0.083  0.3919  0.5678 -0.1242
 6572TIP3    H141131   5.578   3.349   0.051 -0.4957  1.1545  2.5374
 6572TIP3    H241132   5.708   3.286   0.006 -2.3163  0.0344 -1.5425
 6573TIP3   OH241133   1.972   0.902   0.768 -0.4975 -0.3599  0.3428
 6573TIP3    H141134   2.026   0.954   0.827 -0.0842 -3.2649  2.7219
 6573TIP3    H241135   1.882   0.920   0.795 -0.5451  0.9348 -0.5512
 6574TIP3   OH241136   5.356   3.278   0.926  0.4476  0.2122  0.1106
 6574TIP3    H141137   5.277   3.226   0.912 -0.1900  1.3206 -0.6375
 6574TIP3    H241138   5.419   3.244   0.862  0.4288 -0.3918  0.4145
 6575TIP3   OH241139   2.550   0.308   4.107  0.5771  0.3675 -0.2565
 6575TIP3    H141140   2.542   0.282   4.016  0.8994 -0.8242  0.0329
 6575TIP3    H241141   2.487   0.253   4.154  0.9328  0.4345  0.3201
 6576TIP3   OH241142   5.734   4.491  11.438  0.3816 -0.0426 -0.0000
 6576TIP3    H141143   5.706   4.555  11.373  0.7647  0.0367 -0.0895
 6576TIP3    H241144   5.825   4.473  11.415  0.5151 -0.0147  0.5180
 6577TIP3   OH241145   3.377   4.120  10.621  1.0509 -0.2454 -0.5366
 6577TIP3    H141146   3.365   4.042  10.675  1.0436  1.2153  1.6881
 6577TIP3    H241147   3.434   4.176  10.673 -0.8749  2.2515 -0.9347
 6578TIP3   OH241148   4.054   5.120  13.653  0.0319  0.3974  0.0335
 6578TIP3    H141149   4.099   5.056  13.709  1.2579 -0.5061 -1.8753
 6578TIP3    H241150   4.118   5.140  13.584 -1.1489  2.0144 -0.6418
 6579TIP3   OH241151   4.030   5.430   3.162  0.4166  0.0344 -0.3288
 6579TIP3    H141152   3.979   5.379   3.099  1.5723  1.2972 -2.3869
 6579TIP3    H241153   4.121   5.403   3.147  0.7243  0.4377  0.7255
 6580TIP3   OH241154   1.344   3.963   0.705  0.0867  0.0063 -0.7140
 6580TIP3    H141155   1.418   3.970   0.645 -0.6929  0.3219 -1.6799
 6580TIP3    H241156   1.323   3.870   0.707  0.2810 -0.0377 -0.7272
 6581TIP3   OH241157   5.555   5.185  12.078  0.2053  1.0278  0.2136
 6581TIP3    H141158   5.618   5.121  12.110 -0.2093  0.0048 -0.9614
 6581TIP3    H241159   5.607   5.265  12.065  0.6929  1.0083  1.8187
 6582TIP3   OH241160   2.993   4.313   5.276 -0.2543  0.1102 -0.1498
 6582TIP3    H141161   2.937   4.285   5.349 -0.2039  0.1019 -0.1148
 6582TIP3    H241162   3.065   4.361   5.317 -0.2350  0.1205 -0.1953
 6583TIP3   OH241163   3.187   0.258  15.337  0.1709  0.4587  0.4062
 6583TIP3    H141164   3.131   0.188  15.369  1.5732 -0.1750  1.5976
 6583TIP3    H241165   3.186   0.324  15.406 -0.5103  1.2614 -0.3577
 6584TIP3   OH241166   5.845   0.195   6.510  0.8567  0.6849  0.2293
 6584TIP3    H141167   5.875   0.128   6.571 -0.4925 -1.6707 -1.5695
 6584TIP3    H241168   5.921   0.253   6.499  2.1654 -0.6839  1.6017
 6585TIP3   OH241169   5.881   5.831  14.929 -0.0145  0.4625 -0.0620
 6585TIP3    H141170   5.870   5.750  14.880  0.9333  0.4662 -0.3091
 6585TIP3    H241171   5.919   5.892  14.865 -1.5837  1.4062 -0.1492
 6586TIP3   OH241172   0.792   0.486   3.936  0.1223 -0.0474  0.3310
 6586TIP3    H141173   0.805   0.484   4.031  0.8254  0.9653  0.2656
 6586TIP3    H241174   0.709   0.531   3.924 -0.1351 -0.4778  0.4749
 6587TIP3   OH241175   1.511   2.705  12.848  0.2429  0.4459 -0.0280
 6587TIP3    H141176   1.458   2.633  12.881 -1.2995  2.2608  1.7216
 6587TIP3    H241177   1.459   2.744  12.777  1.6278 -0.8156 -1.8421
 6588TIP3   OH241178   5.582   1.027   2.687 -0.3796  0.0829  0.4639
 6588TIP3    H141179   5.642   0.952   2.690 -0.9615 -0.3722  0.9179
 6588TIP3    H241180   5.599   1.068   2.603  1.6708  0.8665  1.1735
 6589TIP3   OH241181   2.576   3.253   5.326 -0.1977  0.4433  0.2243
 6589TIP3    H141182   2.530   3.252   5.242 -0.4959  0.3358  0.3878
 6589TIP3    H241183   2.512   3.288   5.388  0.5782  2.1860  0.0966
 6590TIP3   OH241184   6.539   0.780  13.903  0.4809 -0.5894  0.3822
 6590TIP3    H141185   6.447   0.780  13.877  0.5335 -1.7977  0.1354
 6590TIP3    H241186   6.576   0.858  13.861 -0.4032 -0.1340  0.4244
 6591TIP3   OH241187   6.657   5.018   4.934  0.3389 -0.2989 -0.3901
 6591TIP3    H141188   6.700   4.982   5.012 -0.6210  0.0635  0.3351
 6591TIP3    H241189   6.621   4.942   4.889 -2.4152 -0.3109  1.5726
 6592TIP3   OH241190   0.162   2.353   5.735 -0.4085 -0.0213  0.0183
 6592TIP3    H141191   0.083   2.344   5.683 -0.4115  0.7086 -0.1227
 6592TIP3    H241192   0.136   2.406   5.810 -0.2168 -0.3775  0.3392
 6593TIP3   OH241193   6.343   4.544   4.467 -0.2028  0.0812 -0.3782
 6593TIP3    H141194   6.361   4.458   4.429  0.2342  0.5138 -1.1636
 6593TIP3    H241195   6.297   4.525   4.548  1.3964 -0.9512  0.3200
 6594TIP3   OH241196   4.787   3.159  13.860  0.1463  0.0051  0.5199
 6594TIP3    H141197   4.705   3.108  13.865 -0.1985  0.4412 -0.4217
 6594TIP3    H241198   4.852   3.104  13.904  0.2567 -2.2482 -2.1952
 6595TIP3   OH241199   0.944   5.519  11.146 -0.1994 -0.3494  0.0402
 6595TIP3    H141200   0.952   5.614  11.134  0.0912 -0.1462  1.6314
 6595TIP3    H241201   0.849   5.503  11.146 -0.2417 -0.1394 -0.7131
 6596TIP3   OH241202   6.057   6.340   5.695  0.1613 -0.1854 -0.0055
 6596TIP3    H141203   6.129   6.385   5.650  0.2523  1.2117  1.4374
 6596TIP3    H241204   6.015   6.289   5.627  1.5682  0.1891 -1.2228
 6597TIP3   OH241205   6.106   1.012  11.081  1.0348  0.1638  0.1905
 6597TIP3    H141206   6.079   0.978  11.166 -1.5217 -3.4073 -1.7608
 6597TIP3    H241207   6.181   0.958  11.056  0.7061 -0.0066 -0.4721
 6598TIP3   OH241208   3.674   3.771  13.819  0.4222  0.2217  0.3703
 6598TIP3    H141209   3.746   3.812  13.771  1.2212  0.3657  1.6359
 6598TIP3    H241210   3.708   3.685  13.844 -0.0574  0.0628  0.4817
 6599TIP3   OH241211   4.291   6.704  16.685 -0.3391 -0.1162  0.3090
 6599TIP3    H141212   4.220   6.767  16.703  0.4070  0.2256  2.2724
 6599TIP3    H241213   4.252   6.619  16.704  0.4938  0.2345  4.3627
 6600TIP3   OH241214   5.532   6.287   5.118  0.3380  0.5365  0.1236
 6600TIP3    H141215   5.564   6.339   5.192 -0.8560  1.8257 -0.2115
 6600TIP3    H241216   5.575   6.327   5.042  0.7918 -0.1359  0.0254
 6601TIP3   OH241217   3.464   5.125   2.885  0.6927 -0.1109 -0.2847
 6601TIP3    H141218   3.422   5.138   2.800  0.1524  5.2630  0.4591
 6601TIP3    H241219   3.398   5.080   2.938 -1.2669  1.4542 -1.2525
 6602TIP3   OH241220   1.008   2.820   5.979 -0.0854 -0.2853 -0.3430
 6602TIP3    H141221   0.979   2.782   6.062  1.9670 -1.6649 -0.1760
 6602TIP3    H241222   1.059   2.897   6.004  0.3897 -0.6035 -0.3186
 6603TIP3   OH241223   2.431   1.277  13.249  0.6469  0.0120 -0.0630
 6603TIP3    H141224   2.476   1.260  13.332  0.7316  0.6668  0.0369
 6603TIP3    H241225   2.414   1.191  13.212  1.0115 -0.2743  0.4238
 6604TIP3   OH241226   5.975   0.217  13.003 -0.4792  0.4510 -0.2819
 6604TIP3    H141227   5.928   0.298  13.024 -0.6915  0.3738 -0.4517
 6604TIP3    H241228   5.947   0.196  12.914  0.6688  0.9667 -0.7795
 6605TIP3   OH241229   2.581   2.571   0.397  0.3348 -1.1639  0.8775
 6605TIP3    H141230   2.555   2.568   0.488 -1.7041  0.9565  0.4509
 6605TIP3    H241231   2.512   2.525   0.350  1.3551 -2.2280  0.3726
 6606TIP3   OH241232   4.444   5.492  11.125  0.1582 -0.0506  0.5422
 6606TIP3    H141233   4.370   5.472  11.067  1.9741 -0.5794 -1.7470
 6606TIP3    H241234   4.439   5.424  11.193 -1.5469  0.0519  0.5745
 6607TIP3   OH241235   3.932   2.276   1.401 -0.3123 -0.0539 -0.3411
 6607TIP3    H141236   3.879   2.228   1.464 -0.1570  0.6817  0.3656
 6607TIP3    H241237   3.894   2.254   1.316 -0.1564 -1.5268 -0.0554
 6608TIP3   OH241238   6.610   5.831  11.121 -0.3911 -0.0228  0.0330
 6608TIP3    H141239   6.645   5.912  11.085  2.1442 -0.8760  0.3868
 6608TIP3    H241240   6.577   5.855  11.208 -3.1994  1.3010 -1.2634
 6609TIP3   OH241241   6.271   4.378   3.378 -0.4827  0.6683 -0.7685
 6609TIP3    H141242   6.339   4.379   3.310 -0.2208 -1.8611 -0.6268
 6609TIP3    H241243   6.317   4.351   3.457 -1.2708  1.0406 -0.1793
 6610TIP3   OH241244   5.687   4.775   4.718  0.4117 -0.5576 -0.2574
 6610TIP3    H141245   5.637   4.779   4.637  0.2393  1.5993 -0.1179
 6610TIP3    H241246   5.778   4.768   4.691  0.4510  1.2415 -0.7373
 6611TIP3   OH241247   3.085   2.751   5.739  0.1650  0.0260  0.5410
 6611TIP3    H141248   3.021   2.822   5.746  0.6265  0.4133  0.9883
 6611TIP3    H241249   3.138   2.774   5.662 -0.9136 -0.8807 -0.5113
 6612TIP3   OH241250   2.881   0.949   6.044 -0.0664  0.2579  0.4373
 6612TIP3    H141251   2.877   0.921   5.953 -2.1589 -1.2746  0.9313
 6612TIP3    H241252   2.875   1.044   6.040  1.1756  0.3183 -1.0397
 6613TIP3   OH241253   4.060   0.735  10.917 -0.1022  0.5345 -0.3651
 6613TIP3    H141254   4.093   0.764  10.832  0.0594  2.0629  0.1919
 6613TIP3    H241255   4.046   0.816  10.966 -1.1822 -0.2722  0.7068
 6614TIP3   OH241256   3.364   2.796  15.975  1.0594 -0.1014 -0.4027
 6614TIP3    H141257   3.276   2.762  15.959  0.8243 -0.0667  0.7234
 6614TIP3    H241258   3.384   2.850  15.899 -0.9536  2.0014  0.4482
 6615TIP3   OH241259   1.613   0.838  15.047 -0.0873 -0.5888 -0.3719
 6615TIP3    H141260   1.706   0.857  15.059 -0.2747  0.2895 -0.2252
 6615TIP3    H241261   1.593   0.873  14.961 -0.7851  1.3198  0.5155
 6616TIP3   OH241262   0.109   2.432  12.090 -0.3780  0.5015  0.3970
 6616TIP3    H141263   0.140   2.505  12.144  2.3993 -1.0160  1.0198
 6616TIP3    H241264   0.029   2.402  12.133  0.2960  1.0354  2.0933
 6617TIP3   OH241265   2.395   6.119   1.655 -0.2065 -0.1832  0.0924
 6617TIP3    H141266   2.376   6.029   1.632 -0.3073 -0.7581  2.1840
 6617TIP3    H241267   2.449   6.113   1.734  0.7104  1.5730 -0.3497
 6618TIP3   OH241268   1.339   2.315  15.719  0.3160 -0.1304 -0.1049
 6618TIP3    H141269   1.422   2.363  15.709  0.2841  0.1821  1.0187
 6618TIP3    H241270   1.302   2.315  15.631  0.5572  1.4846 -0.2530
 6619TIP3   OH241271   6.693   0.338   0.399 -0.3673  0.6226  0.0424
 6619TIP3    H141272   6.671   0.400   0.330 -2.0449 -0.0904 -0.0974
 6619TIP3    H241273   6.723   0.259   0.353 -1.8001  0.0309  0.0912
 6620TIP3   OH241274   4.203   6.160  12.319  0.4846 -0.0772 -0.0551
 6620TIP3    H141275   4.290   6.199  12.325 -0.3656  2.1123 -0.8815
 6620TIP3    H241276   4.216   6.068  12.342  2.6300  0.6558  2.0442
 6621TIP3   OH241277   5.713   0.973   1.839 -0.2372  0.2670  0.3669
 6621TIP3    H141278   5.747   0.898   1.790  1.7505 -2.1135  4.8425
 6621TIP3    H241279   5.784   1.037   1.839 -0.0945  0.1055  0.5269
 6622TIP3   OH241280   2.840   6.310  15.159 -0.4373 -0.4438 -0.0436
 6622TIP3    H141281   2.910   6.371  15.184 -0.6495  0.1384 -0.8413
 6622TIP3    H241282   2.778   6.364  15.110  0.2894 -1.6513 -2.4411
 6623TIP3   OH241283   2.602   2.129   4.773 -0.2438 -0.6872  0.3584
 6623TIP3    H141284   2.580   2.037   4.760 -2.1711  0.0199 -1.8926
 6623TIP3    H241285   2.692   2.136   4.739 -0.8545 -1.3526 -1.5427
 6624TIP3   OH241286   3.023   3.073   2.360 -0.1850 -0.5484  0.5385
 6624TIP3    H141287   3.068   3.078   2.276 -0.8474  1.5388  0.2299
 6624TIP3    H241288   2.972   3.154   2.364 -0.5211 -0.8043  2.7560
 6625TIP3   OH241289   3.170   3.480  13.347  0.2314 -0.1061 -0.0940
 6625TIP3    H141290   3.107   3.476  13.419  0.9957 -0.5561  0.5720
 6625TIP3    H241291   3.253   3.502  13.389  0.4755  0.7348 -0.9880
 6626TIP3   OH241292   1.822   5.497  13.076  0.2204 -0.5268  0.2080
 6626TIP3    H141293   1.769   5.572  13.050  0.6527 -0.1072  0.5229
 6626TIP3    H241294   1.759   5.430  13.102 -0.2672 -1.1074 -2.2031
 6627TIP3   OH241295   3.301   3.516   5.019  0.4202 -0.3191 -0.3349
 6627TIP3    H141296   3.298   3.430   5.061  1.1786 -0.1777  0.0267
 6627TIP3    H241297   3.329   3.498   4.929 -3.4693 -0.8817 -1.5970
 6628TIP3   OH241298   2.644   3.175   0.902  0.1926  0.6395 -0.8361
 6628TIP3    H141299   2.640   3.243   0.969  1.3208 -0.7190  0.6772
 6628TIP3    H241300   2.556   3.138   0.899 -0.0728  1.2527 -0.7210
 6629TIP3   OH241301   3.794   1.537  14.212 -0.0380 -0.1234 -0.0454
 6629TIP3    H141302   3.769   1.583  14.132 -0.0330 -0.6113 -0.3340
 6629TIP3    H241303   3.769   1.446  14.196 -0.6595 -0.1045  0.7767
 6630TIP3   OH241304   6.012   0.436  11.582  0.2655 -0.2724  0.2182
 6630TIP3    H141305   5.955   0.512  11.591 -1.6561 -1.8323  2.5097
 6630TIP3    H241306   6.086   0.468  11.530 -1.8319  2.3217 -1.4835
 6631TIP3   OH241307   3.230   4.310   1.975  0.4140 -0.4757  0.0369
 6631TIP3    H141308   3.321   4.337   1.989 -0.1507  1.0706  0.9321
 6631TIP3    H241309   3.219   4.234   2.033  1.3709 -1.2853 -0.7877
 6632TIP3   OH241310   3.655   0.596   1.491 -0.0447  0.0030 -0.2114
 6632TIP3    H141311   3.643   0.508   1.526 -2.7076  0.4243  0.1644
 6632TIP3    H241312   3.647   0.586   1.397  2.7444 -0.5168 -0.4663
 6633TIP3   OH241313   6.103   5.746   4.940  0.1071 -0.0263  0.0209
 6633TIP3    H141314   6.051   5.766   5.018 -1.4589  1.4475 -1.3356
 6633TIP3    H241315   6.126   5.653   4.950 -1.6631 -0.3800  1.3386
 6634TIP3   OH241316   2.427   5.791  10.784 -0.0261  0.5095  0.0595
 6634TIP3    H141317   2.483   5.841  10.843 -0.9477 -0.5859  1.9838
 6634TIP3    H241318   2.431   5.701  10.818 -0.9257 -0.0850 -1.3129
 6635TIP3   OH241319   0.557   0.312  15.913  0.1184 -0.0870 -0.0511
 6635TIP3    H141320   0.583   0.225  15.943  0.5818  0.3516  0.8617
 6635TIP3    H241321   0.587   0.316  15.822 -0.9799 -1.3063 -0.4944
 6636TIP3   OH241322   0.446   4.670  16.792 -0.7023  0.1559 -0.3346
 6636TIP3    H141323   0.383   4.733  16.828 -0.5287  0.6276 -0.8261
 6636TIP3    H241324   0.415   4.656  16.702  0.3813  1.0756 -0.8719
 6637TIP3   OH241325   1.918   5.749  11.405  0.3905 -0.7212  0.5484
 6637TIP3    H141326   1.893   5.725  11.494 -0.6698  0.4187  0.5978
 6637TIP3    H241327   1.982   5.683  11.378  0.4714 -1.2688  2.0264
 6638TIP3   OH241328   0.652   4.334   5.920  0.3310 -0.7819 -0.4785
 6638TIP3    H141329   0.726   4.273   5.927  0.0729 -1.1109 -0.5965
 6638TIP3    H241330   0.615   4.336   6.008  1.1031  0.1823 -0.1581
 6639TIP3   OH241331   3.206   3.176   5.379  0.3726  0.2493 -0.3739
 6639TIP3    H141332   3.282   3.144   5.428 -0.1084  0.6063  0.6287
 6639TIP3    H241333   3.234   3.259   5.342  0.9460 -0.3169 -1.2644
 6640TIP3   OH241334   5.234   3.707  14.246 -0.2737  0.2702 -0.3749
 6640TIP3    H141335   5.178   3.758  14.188  1.0575  1.4316 -0.7003
 6640TIP3    H241336   5.240   3.621  14.205 -1.5826  0.1938 -0.4516
 6641TIP3   OH241337   3.535   0.852  16.005  0.2279 -0.0386 -0.1575
 6641TIP3    H141338   3.467   0.865  16.071 -1.1640  0.7512 -1.6823
 6641TIP3    H241339   3.546   0.757  15.999 -0.0576 -0.1364  0.7552
 6642TIP3   OH241340   5.120   2.366  11.256  0.4199 -0.7250  0.2389
 6642TIP3    H141341   5.060   2.441  11.262 -0.1446 -0.9995 -1.3688
 6642TIP3    H241342   5.065   2.290  11.277  0.0553 -1.0117 -1.5484
 6643TIP3   OH241343   5.984   4.308  13.424 -0.0407 -0.5306 -0.0644
 6643TIP3    H141344   5.926   4.238  13.452  1.8044 -1.9786  0.3465
 6643TIP3    H241345   5.975   4.310  13.328 -2.2307  0.6918  0.0973
 6644TIP3   OH241346   1.155   4.167   0.773  0.1801  0.0559  0.1988
 6644TIP3    H141347   1.138   4.226   0.700  0.5203  2.2898  1.8223
 6644TIP3    H241348   1.213   4.100   0.737 -0.3219  0.6185 -1.7550
 6645TIP3   OH241349   3.088   2.154  16.199  0.0054 -0.0958 -0.3149
 6645TIP3    H141350   3.037   2.130  16.276  0.9247  0.5761  0.5257
 6645TIP3    H241351   3.163   2.202  16.234  1.6572 -1.7523 -1.4449
 6646TIP3   OH241352   4.946   4.225   1.075  0.1694  0.1848  0.4965
 6646TIP3    H141353   4.883   4.257   1.011 -0.1190 -1.2683  0.0251
 6646TIP3    H241354   5.000   4.162   1.027 -0.0687 -0.9573  1.6767
 6647TIP3   OH241355   5.689   5.443  11.124 -0.3818 -0.1344 -0.0142
 6647TIP3    H141356   5.661   5.404  11.206  1.2466  1.4830  1.3996
 6647TIP3    H241357   5.736   5.373  11.079 -1.0423 -0.9620  0.5575
 6648TIP3   OH241358   5.148   5.039   0.425 -0.1310  0.0430  0.2936
 6648TIP3    H141359   5.087   4.986   0.477 -0.6067  0.3310  0.0370
 6648TIP3    H241360   5.161   5.118   0.477 -0.2880  0.1537  0.1663
 6649TIP3   OH241361   4.085   6.653  13.413  0.1079 -0.1490 -0.0556
 6649TIP3    H141362   4.066   6.722  13.476 -0.8276 -0.8088  0.4047
 6649TIP3    H241363   4.011   6.593  13.420 -0.3157  0.0437 -2.1899
 6650TIP3   OH241364   3.309   4.876  17.120 -0.1590  0.3209 -0.1434
 6650TIP3    H141365   3.341   4.962  17.093 -1.7262  1.5922  1.7434
 6650TIP3    H241366   3.217   4.892  17.144 -0.8605 -2.1611 -0.9153
 6651TIP3   OH241367   0.347   1.782  11.006 -0.0425 -0.2151 -0.0287
 6651TIP3    H141368   0.429   1.831  11.009 -1.2243  1.9009 -0.1397
 6651TIP3    H241369   0.329   1.761  11.098 -0.3661  1.1349  0.2399
 6652TIP3   OH241370   5.810   4.751   5.084  0.1241 -0.3728  0.2397
 6652TIP3    H141371   5.730   4.798   5.056 -0.5912 -2.0422 -0.6588
 6652TIP3    H241372   5.869   4.821   5.112 -1.5292  0.9493  0.6523
 6653TIP3   OH241373   4.849   3.414  11.205  0.7618  0.0347 -0.1145
 6653TIP3    H141374   4.774   3.432  11.263  2.1200 -0.8134  2.0351
 6653TIP3    H241375   4.865   3.320  11.215  0.8650 -0.1917 -2.1604
 6654TIP3   OH241376   2.386   6.269   0.222  0.7175 -0.1652 -0.2925
 6654TIP3    H141377   2.448   6.341   0.231  0.1209  0.6176 -1.9355
 6654TIP3    H241378   2.319   6.303   0.162 -0.9307 -1.2244  0.8833
 6655TIP3   OH241379   6.090   2.803   4.006 -0.5239  0.2571  0.1431
 6655TIP3    H141380   6.023   2.769   3.946  0.7148 -2.7989  0.3003
 6655TIP3    H241381   6.041   2.841   4.078 -2.0612  0.2066 -0.8272
 6656TIP3   OH241382   4.765   5.622   4.530  0.4657 -0.2705  0.2677
 6656TIP3    H141383   4.815   5.627   4.612  1.4792  1.5779 -0.4272
 6656TIP3    H241384   4.681   5.584   4.557  1.7463 -2.3758  1.6628
 6657TIP3   OH241385   1.137   0.568   4.427 -0.2630 -0.8686  0.2172
 6657TIP3    H141386   1.082   0.641   4.398  0.9065 -0.2259 -0.4943
 6657TIP3    H241387   1.173   0.532   4.346 -0.0568 -1.6104  0.6334
 6658TIP3   OH241388   0.143   6.289  15.594  0.6975 -0.1734  0.0039
 6658TIP3    H141389   0.180   6.360  15.647 -0.2792 -0.4669  1.1075
 6658TIP3    H241390   0.071   6.255  15.646  0.2333 -1.0330 -1.1600
 6659TIP3   OH241391   6.220   5.453  15.092  0.4822  0.1503  0.0026
 6659TIP3    H141392   6.137   5.485  15.058 -0.2043  0.1390  1.5816
 6659TIP3    H241393   6.205   5.359  15.108  0.6100  0.2592  0.8043
 6660TIP3   OH241394   2.404   0.792  16.075 -0.1266 -0.1150 -0.1877
 6660TIP3    H141395   2.385   0.707  16.115 -0.8730 -0.1420 -0.5870
 6660TIP3    H241396   2.473   0.830  16.131  0.0802 -0.8964  0.0981
 6661TIP3   OH241397   4.033   5.508   0.610  0.1718 -0.3127 -0.0859
 6661TIP3    H141398   4.016   5.579   0.671 -0.0091 -1.5624  1.3826
 6661TIP3    H241399   4.016   5.546   0.524 -2.3684  0.7558  0.7790
 6662TIP3   OH241400   4.636   4.662   4.993  0.1027  0.4504  0.1548
 6662TIP3    H141401   4.636   4.734   5.056  2.4139 -0.0617  0.8421
 6662TIP3    H241402   4.554   4.615   5.010 -0.5096  1.7612  1.0292
 6663TIP3   OH241403   2.511   2.438  15.465  0.6392  0.1041  0.0459
 6663TIP3    H141404   2.489   2.482  15.548 -0.0615 -0.9762  0.4588
 6663TIP3    H241405   2.599   2.468  15.444  0.8446  0.3565  1.2109
 6664TIP3   OH241406   3.982   2.842   2.363  0.4739 -0.1961  0.7909
 6664TIP3    H141407   4.035   2.777   2.409  1.4187 -0.6480 -0.8516
 6664TIP3    H241408   4.037   2.870   2.290 -0.2175  1.9003  1.0080
 6665TIP3   OH241409   0.683   2.674   4.821  0.3517 -0.3394 -0.1814
 6665TIP3    H141410   0.629   2.656   4.898 -0.3258 -1.3299 -0.8635
 6665TIP3    H241411   0.633   2.738   4.771  0.2983 -0.4832 -0.3120
 6666TIP3   OH241412   3.039   1.122  13.758  0.1666  0.5664  0.8736
 6666TIP3    H141413   3.124   1.159  13.781  1.1219 -2.0922  2.0319
 6666TIP3    H241414   3.042   1.032  13.790 -2.4335 -0.1873 -0.6456
 6667TIP3   OH241415   3.133   3.430   5.608  0.3307  0.7992 -0.5300
 6667TIP3    H141416   3.105   3.518   5.633 -0.2525  0.7635 -1.0435
 6667TIP3    H241417   3.167   3.439   5.519  1.3928  0.7249 -0.1396
 6668TIP3   OH241418   1.813   3.016  12.690 -0.8528 -0.0805  0.7690
 6668TIP3    H141419   1.869   2.951  12.646  1.6212  1.3594  1.6203
 6668TIP3    H241420   1.754   3.046  12.621  2.5695  1.7680 -1.6743
 6669TIP3   OH241421   5.485   5.188  15.091 -0.0165  0.1866  0.2603
 6669TIP3    H141422   5.405   5.184  15.144  0.3943  2.5055  1.1749
 6669TIP3    H241423   5.555   5.163  15.152  0.1804  0.2580  0.0647
 6670TIP3   OH241424   1.305   6.691  16.011  0.3938  0.6710 -0.0868
 6670TIP3    H141425   1.327   6.746  16.086 -0.6054  1.7142 -0.5287
 6670TIP3    H241426   1.365   6.719  15.942  0.5833  0.4684 -0.0058
 6671TIP3   OH241427   3.505   1.047   2.924  0.2499 -0.4495 -0.3130
 6671TIP3    H141428   3.579   0.987   2.919 -0.1827 -1.0211  0.0191
 6671TIP3    H241429   3.498   1.084   2.835  0.9009 -0.4202 -0.3541
 6672TIP3   OH241430   3.082   3.555   3.967  0.0124  0.1474 -0.2172
 6672TIP3    H141431   3.114   3.612   3.898  0.2341  0.2741 -0.0149
 6672TIP3    H241432   3.008   3.508   3.929 -1.1827  1.7049  0.0854
 6673TIP3   OH241433   3.412   5.486   4.107 -0.2315  0.2430 -0.3157
 6673TIP3    H141434   3.505   5.503   4.118 -0.3692  0.9421 -0.1203
 6673TIP3    H241435   3.389   5.528   4.024 -0.2411 -0.4949 -0.6866
 6674TIP3   OH241436   5.699   2.773   5.418  0.7209 -0.4064 -0.0292
 6674TIP3    H141437   5.784   2.738   5.445  1.0874  0.3398 -0.1873
 6674TIP3    H241438   5.667   2.712   5.352 -0.3155 -2.4321  2.1841
 6675TIP3   OH241439   2.148   3.352   1.350  0.5226 -0.9351 -0.5980
 6675TIP3    H141440   2.101   3.405   1.285 -1.3216  1.1789  2.2274
 6675TIP3    H241441   2.093   3.274   1.361 -1.9995  0.9722  1.8081
 6676TIP3   OH241442   3.164   3.793  12.664  0.1367 -0.2078  0.3463
 6676TIP3    H141443   3.186   3.749  12.745  0.8936 -1.1502 -0.3538
 6676TIP3    H241444   3.070   3.778  12.653  0.3649 -1.6418  0.1472
 6677TIP3   OH241445   1.157   2.282  13.833 -0.0005 -0.2937  0.2226
 6677TIP3    H141446   1.181   2.374  13.819  0.2915 -0.4984 -0.7044
 6677TIP3    H241447   1.078   2.270  13.780 -1.2632 -0.0513  1.9757
 6678TIP3   OH241448   4.853   3.195   0.301  0.2117  0.0890 -0.0478
 6678TIP3    H141449   4.797   3.136   0.251 -1.6179  0.7163  1.1120
 6678TIP3    H241450   4.933   3.204   0.249 -0.6580 -1.0772 -1.6638
 6679TIP3   OH241451   5.367   2.110  13.936  0.3588  0.0236 -0.1739
 6679TIP3    H141452   5.377   2.194  13.981  0.4327 -0.8296  1.4843
 6679TIP3    H241453   5.276   2.085  13.952  0.1896  0.0112 -1.0996
 6680TIP3   OH241454   3.658   1.208   1.692  0.0169 -0.1380  0.1411
 6680TIP3    H141455   3.680   1.267   1.764  0.8164 -0.8103  0.4568
 6680TIP3    H241456   3.567   1.183   1.709  0.4864 -1.0302  1.4639
 6681TIP3   OH241457   5.907   1.301   2.497  0.2426  0.0756 -0.1487
 6681TIP3    H141458   5.932   1.253   2.418  0.7480 -1.2399  0.7757
 6681TIP3    H241459   5.876   1.234   2.558  1.9738  0.7256  1.5792
 6682TIP3   OH241460   5.791   2.467   1.800 -0.6704  0.5298 -0.1016
 6682TIP3    H141461   5.779   2.385   1.753 -2.5460  1.7629 -1.9596
 6682TIP3    H241462   5.770   2.446   1.891  1.6821 -1.6146  0.0374
 6683TIP3   OH241463   0.800   1.585   6.587  0.2615  0.4891  0.3700
 6683TIP3    H141464   0.847   1.669   6.584 -1.4792  1.5419  1.1871
 6683TIP3    H241465   0.815   1.552   6.676  2.1130 -0.8323 -0.3648
 6684TIP3   OH241466   0.382   3.009   6.125 -0.5019  0.3737 -0.2908
 6684TIP3    H141467   0.328   3.037   6.199 -0.0911  1.6473 -0.4435
 6684TIP3    H241468   0.466   3.054   6.139  0.2687 -0.9589 -0.4658
 6685TIP3   OH241469   3.943   5.945  13.633  1.1104 -0.0034  0.6128
 6685TIP3    H141470   3.926   5.984  13.547 -0.1911  0.7409  1.1900
 6685TIP3    H241471   4.037   5.925  13.631  1.7764  2.7307  0.0956
 6686TIP3   OH241472   2.523   0.582   4.069  0.0535  0.2226 -0.2990
 6686TIP3    H141473   2.506   0.490   4.088 -0.2676  0.2822 -0.2960
 6686TIP3    H241474   2.587   0.609   4.135 -2.2811  0.8847  1.8495
 6687TIP3   OH241475   1.511   0.391  16.924 -0.1675  0.4632 -0.0022
 6687TIP3    H141476   1.539   0.335  16.853 -0.1782 -0.6998  0.8861
 6687TIP3    H241477   1.471   0.332  16.988  2.5183  0.9553  2.3757
 6688TIP3   OH241478   4.627   0.155   5.136 -0.1212 -0.4760  0.4693
 6688TIP3    H141479   4.718   0.143   5.165 -0.3656 -0.5053  1.2267
 6688TIP3    H241480   4.613   0.085   5.072  1.1450  0.9324 -1.4869
 6689TIP3   OH241481   4.021   4.649  14.611 -0.4379  0.2269 -0.8800
 6689TIP3    H141482   4.023   4.665  14.706  0.2337 -3.1815 -0.1981
 6689TIP3    H241483   3.953   4.583  14.599  0.2058 -0.1644 -2.6060
 6690TIP3   OH241484   3.775   6.335   5.477  0.0567 -0.0634 -0.0358
 6690TIP3    H141485   3.760   6.311   5.385 -2.7245 -1.3612  0.6368
 6690TIP3    H241486   3.703   6.394   5.499 -0.8400 -1.7299  1.9000
 6691TIP3   OH241487   4.811   2.925   3.615  0.0426  0.0857 -0.9909
 6691TIP3    H141488   4.867   2.939   3.690 -0.3915 -1.8285 -0.2467
 6691TIP3    H241489   4.814   3.007   3.566  3.5332  0.0454 -1.0535
 6692TIP3   OH241490   3.884   2.441   4.377  0.5828 -0.5670 -0.1693
 6692TIP3    H141491   3.967   2.417   4.416  0.1459 -0.0098  1.1510
 6692TIP3    H241492   3.894   2.533   4.351  0.7187 -0.8025 -0.9978
 6693TIP3   OH241493   5.024   3.042   6.049  0.0834 -0.5945 -0.2212
 6693TIP3    H141494   5.015   2.972   6.114 -0.6782 -1.4326 -1.1922
 6693TIP3    H241495   4.935   3.071   6.032  0.4678  1.5850  1.1377
 6694TIP3   OH241496   6.463   1.576  15.398  0.2166  0.2579  0.3311
 6694TIP3    H141497   6.399   1.632  15.353 -1.3479  0.5360  2.6955
 6694TIP3    H241498   6.481   1.506  15.336  1.5130  2.7717 -2.3826
 6695TIP3   OH241499   6.603   6.652  10.917 -0.0820  0.0867  0.3912
 6695TIP3    H141500   6.661   6.720  10.884 -0.4610 -0.5242 -1.7132
 6695TIP3    H241501   6.636   6.571  10.878 -1.5006 -0.4591  0.2330
 6696TIP3   OH241502   0.461   4.370   1.381 -0.0348  0.2113 -0.6556
 6696TIP3    H141503   0.453   4.459   1.347 -1.4036  0.3076 -0.1553
 6696TIP3    H241504   0.426   4.314   1.311 -1.0011  0.2462 -0.2167
 6697TIP3   OH241505   3.093   1.338   0.643  0.4094 -0.2903 -0.9710
 6697TIP3    H141506   3.109   1.253   0.601 -1.1543 -1.7541  1.2157
 6697TIP3    H241507   3.000   1.354   0.631  0.6361  1.0293 -1.1241
 6698TIP3   OH241508   4.936   2.959  14.389 -0.5538  0.1170  1.0956
 6698TIP3    H141509   5.025   2.935  14.364 -0.1829  0.1446  2.2908
 6698TIP3    H241510   4.884   2.945  14.311  0.7590  1.6068 -0.1272
 6699TIP3   OH241511   2.693   2.956   1.226  0.8853  0.1712  0.6780
 6699TIP3    H141512   2.628   2.921   1.165  1.8219  1.2701 -1.0343
 6699TIP3    H241513   2.662   3.045   1.245  1.9894  0.8220 -0.4052
 6700TIP3   OH241514   1.696   2.816   5.220 -0.0416 -0.3349  0.4192
 6700TIP3    H141515   1.703   2.897   5.169 -1.1141 -1.7503 -2.1649
 6700TIP3    H241516   1.609   2.821   5.260 -0.7714 -0.8392 -1.0266
 6701TIP3   OH241517   4.993   6.709   3.853 -0.5397  0.2110  0.4314
 6701TIP3    H141518   4.914   6.705   3.907 -0.1779  1.2506  1.0676
 6701TIP3    H241519   4.964   6.684   3.766 -1.5914  0.6583  0.6382
 6702TIP3   OH241520   2.283   0.092   3.143 -0.4444 -1.0529  0.0019
 6702TIP3    H141521   2.265   0.005   3.107  0.6614 -1.5296  0.5503
 6702TIP3    H241522   2.298   0.076   3.236  0.2229 -0.3393  0.0220
 6703TIP3   OH241523   0.631   5.241   3.352  0.0248  0.1144  0.0397
 6703TIP3    H141524   0.620   5.254   3.447  0.0745  1.5869 -0.1394
 6703TIP3    H241525   0.546   5.207   3.323 -0.0294 -0.2329  0.5825
 6704TIP3   OH241526   3.705   4.568  13.545 -0.2269 -0.0686  0.1616
 6704TIP3    H141527   3.781   4.574  13.603  0.6039 -1.5028 -0.7096
 6704TIP3    H241528   3.631   4.595  13.599  0.7473  0.2529  1.3762
 6705TIP3   OH241529   6.770   1.887   0.730  0.3943 -0.1690 -0.0850
 6705TIP3    H141530   6.783   1.957   0.794 -0.2674  0.2379 -0.3835
 6705TIP3    H241531   6.785   1.929   0.645 -0.2501 -0.3199 -0.2786
 6706TIP3   OH241532   0.658   2.647  16.830  0.4553 -0.4116 -0.0521
 6706TIP3    H141533   0.722   2.645  16.759 -0.6075  0.2056 -1.0666
 6706TIP3    H241534   0.709   2.669  16.908  1.6530 -1.1381 -0.5925
 6707TIP3   OH241535   6.526   4.541   1.145  0.1198  0.2475 -0.2511
 6707TIP3    H141536   6.501   4.459   1.187 -1.3466  1.2349  0.9352
 6707TIP3    H241537   6.455   4.560   1.084 -0.8674  1.7897  1.2639
 6708TIP3   OH241538   5.037   1.351   1.408 -0.1065 -0.2363 -0.1962
 6708TIP3    H141539   5.014   1.263   1.437  2.4953 -0.4764  1.4552
 6708TIP3    H241540   5.040   1.345   1.312 -1.4151 -1.4964 -0.1904
 6709TIP3   OH241541   1.267   2.750  12.253  0.0847  0.1408 -0.0318
 6709TIP3    H141542   1.309   2.721  12.172 -0.5597 -0.0294 -0.3057
 6709TIP3    H241543   1.224   2.671  12.287 -0.5342  0.4610 -0.0719
 6710TIP3   OH241544   6.622   5.917  16.395 -0.2071  0.6200 -0.5297
 6710TIP3    H141545   6.654   6.005  16.412  0.4582  0.0650  1.2469
 6710TIP3    H241546   6.621   5.874  16.480 -0.6014 -1.0719 -1.3362
 6711TIP3   OH241547   3.730   2.472  16.284  0.6227  0.2681  0.0115
 6711TIP3    H141548   3.819   2.503  16.301  1.0801 -0.5982 -0.7139
 6711TIP3    H241549   3.689   2.542  16.234  0.8094  0.7754  0.5515
 6712TIP3   OH241550   4.239   3.392  16.448 -0.1777 -0.6563 -0.5457
 6712TIP3    H141551   4.168   3.400  16.385  0.1395  0.5969 -0.7751
 6712TIP3    H241552   4.232   3.303  16.482 -2.1648 -0.4017 -0.1907
 6713TIP3   OH241553   2.127   1.020   0.967  0.3284 -0.3947 -0.0720
 6713TIP3    H141554   2.060   1.079   1.001  1.5247 -0.6307  2.9349
 6713TIP3    H241555   2.207   1.073   0.963  0.8907 -1.1735  0.4429
 6714TIP3   OH241556   2.161   1.020   2.114  0.0422 -0.1789 -0.4276
 6714TIP3    H141557   2.140   1.113   2.106 -1.3638 -0.5901 -2.0113
 6714TIP3    H241558   2.130   0.996   2.201 -0.6853  0.5612 -0.4738
 6715TIP3   OH241559   4.674   0.033  14.695 -0.5174  0.3964 -0.1576
 6715TIP3    H141560   4.589   0.076  14.693 -1.1542 -0.8375 -1.6715
 6715TIP3    H241561   4.721   0.069  14.620 -0.4277 -0.2772 -0.4346
 6716TIP3   OH241562   5.636   2.402   2.011 -0.6553 -0.3249  0.2766
 6716TIP3    H141563   5.546   2.432   2.021  0.0075  1.4689  1.2793
 6716TIP3    H241564   5.668   2.390   2.100  0.6721  0.9822  0.0310
 6717TIP3   OH241565   4.452   5.193  12.519  0.1175 -0.1094  0.0411
 6717TIP3    H141566   4.457   5.264  12.583  1.1466  0.4340 -0.6032
 6717TIP3    H241567   4.437   5.115  12.571  1.5700  0.2338  1.0313
 6718TIP3   OH241568   2.014   2.501   4.389 -0.9749  0.0825 -0.4830
 6718TIP3    H141569   2.077   2.571   4.408  0.6367 -1.1939 -0.8912
 6718TIP3    H241570   1.983   2.520   4.300 -0.9148  0.5456 -0.4057
 6719TIP3   OH241571   1.921   0.114   4.999  0.2392  0.9045 -0.3292
 6719TIP3    H141572   1.839   0.074   5.029  1.2612 -2.0308 -1.0599
 6719TIP3    H241573   1.975   0.117   5.078  1.0293 -1.7282 -0.6694
 6720TIP3   OH241574   5.771   6.695   1.844 -0.1517  0.4260 -0.3062
 6720TIP3    H141575   5.807   6.609   1.821 -0.5522  0.7728 -2.5278
 6720TIP3    H241576   5.818   6.721   1.923 -0.3605 -2.0317  0.7205
 6721TIP3   OH241577   5.169   0.064   5.978  0.0923  0.1422 -0.1387
 6721TIP3    H141578   5.118   0.004   6.032 -0.6114 -0.5678 -1.5402
 6721TIP3    H241579   5.116   0.143   5.973  0.5302  0.5114  0.8389
 6722TIP3   OH241580   2.748   2.754   2.231 -0.1577  0.1478  0.4911
 6722TIP3    H141581   2.788   2.841   2.228  1.2528 -0.4820  0.4000
 6722TIP3    H241582   2.655   2.771   2.217  0.2417  1.5380 -0.8723
 6723TIP3   OH241583   3.035   6.273  16.331  0.1464 -0.7860  0.5524
 6723TIP3    H141584   2.977   6.200  16.355 -1.1812  0.3836  1.0180
 6723TIP3    H241585   3.068   6.306  16.414  1.2538 -1.2318  0.3051
 6724TIP3   OH241586   1.866   3.045   6.075  0.7638  0.3895  0.1507
 6724TIP3    H141587   1.830   3.030   6.163 -0.7785  0.0887 -0.4886
 6724TIP3    H241588   1.844   3.137   6.056 -2.4431 -0.5534 -1.3738
 6725TIP3   OH241589   6.601   2.414  11.256  0.2354 -0.7472  0.3464
 6725TIP3    H141590   6.669   2.350  11.235 -1.5761 -2.6662 -0.0595
 6725TIP3    H241591   6.572   2.448  11.172 -1.3417 -2.2611  0.2043
 6726TIP3   OH241592   2.615   2.810  15.883 -0.1910  0.6711  0.2711
 6726TIP3    H141593   2.579   2.789  15.970  0.6884  1.2054  0.7840
 6726TIP3    H241594   2.542   2.848  15.835 -0.8204 -0.0829  0.6116
 6727TIP3   OH241595   2.198   1.390   2.692  0.2751  0.3290 -0.3964
 6727TIP3    H141596   2.212   1.297   2.712 -0.6192  0.1504 -0.5486
 6727TIP3    H241597   2.284   1.430   2.703  0.3924 -0.2528  1.1081
 6728TIP3   OH241598   5.721   0.614   4.341  0.0440  0.3445  0.4762
 6728TIP3    H141599   5.774   0.622   4.262 -0.2031  1.3732  0.3956
 6728TIP3    H241600   5.632   0.595   4.309 -0.2746  1.7894  0.4216
 6729TIP3   OH241601   3.075   2.077  14.747 -0.9101 -0.1427 -0.2023
 6729TIP3    H141602   3.039   1.995  14.713  0.2144 -0.6677 -0.1861
 6729TIP3    H241603   3.170   2.066  14.739 -0.6165  0.0429  2.3056
 6730TIP3   OH241604   2.148   6.341   2.293 -0.3184 -0.0765 -0.0723
 6730TIP3    H141605   2.212   6.359   2.224 -1.1185  0.4000 -0.7087
 6730TIP3    H241606   2.201   6.313   2.368  0.6031 -0.0846 -0.7065
 6731TIP3   OH241607   4.428   0.396   1.163  0.0792 -0.1710  0.0819
 6731TIP3    H141608   4.440   0.313   1.117 -0.1291  0.6160 -1.4638
 6731TIP3    H241609   4.385   0.373   1.245  0.3226 -1.6129 -0.1759
 6732TIP3   OH241610   2.063   2.583   4.125 -0.0498  0.3985  0.1460
 6732TIP3    H141611   2.156   2.581   4.147 -0.0273 -0.2109  0.0150
 6732TIP3    H241612   2.061   2.576   4.029 -0.2343  0.2292  0.1608
 6733TIP3   OH241613   5.334   1.906  12.740 -0.2280 -0.2495 -0.4866
 6733TIP3    H141614   5.426   1.895  12.713  0.4763  1.5681  0.9503
 6733TIP3    H241615   5.320   2.000  12.736 -1.9523 -0.4782 -0.3169
 6734TIP3   OH241616   4.925   2.816  16.921  0.3982 -0.0033  0.1309
 6734TIP3    H141617   4.957   2.783  16.838  0.5298  1.1429 -0.2890
 6734TIP3    H241618   4.831   2.797  16.920  0.2316  0.8324 -0.6899
 6735TIP3   OH241619   4.280   5.371  14.145 -0.1853  0.3177  0.2064
 6735TIP3    H141620   4.216   5.440  14.130 -0.5180 -0.4793 -2.6733
 6735TIP3    H241621   4.298   5.336  14.058  2.4354 -1.0553  1.1977
 6736TIP3   OH241622   3.495   5.138   4.876  0.4139  0.5977  0.2837
 6736TIP3    H141623   3.478   5.224   4.914 -1.2191  1.4653 -2.1480
 6736TIP3    H241624   3.517   5.082   4.951 -0.8561  2.5494  2.2191
 6737TIP3   OH241625   5.476   2.314   1.422 -0.2244 -0.5802  0.1269
 6737TIP3    H141626   5.568   2.317   1.394 -0.5607 -0.6536 -1.0439
 6737TIP3    H241627   5.481   2.302   1.517  0.9729  0.2887  0.2091
 6738TIP3   OH241628   6.180   0.169  10.348  0.1590 -0.6737 -0.0364
 6738TIP3    H141629   6.168   0.075  10.363  2.1618 -0.9968 -0.2254
 6738TIP3    H241630   6.195   0.204  10.436 -0.5404 -0.5278  0.0287
 6739TIP3   OH241631   2.738   4.475  15.246 -0.4133 -0.1475  0.0491
 6739TIP3    H141632   2.645   4.451  15.237  0.1596 -2.2755 -0.7577
 6739TIP3    H241633   2.761   4.447  15.335  0.5928 -4.2913 -1.3107
 6740TIP3   OH241634   2.063   6.648  14.117 -0.1665 -0.2777 -0.6034
 6740TIP3    H141635   2.040   6.736  14.146  2.5758  0.1862  0.4685
 6740TIP3    H241636   2.050   6.593  14.194 -2.4575 -1.0324 -1.4304
 6741TIP3   OH241637   3.452   4.847  16.044 -0.0577  0.1130 -0.4745
 6741TIP3    H141638   3.444   4.834  15.949  1.8846 -0.9225 -0.5574
 6741TIP3    H241639   3.371   4.889  16.070 -0.0859  1.6624 -2.8122
 6742TIP3   OH241640   5.582   0.643   5.385  0.1229  0.5250 -0.6648
 6742TIP3    H141641   5.601   0.638   5.479  0.1345  2.2977 -0.5411
 6742TIP3    H241642   5.653   0.695   5.348  0.5574 -0.8254 -1.8205
 6743TIP3   OH241643   1.313   6.531   1.396  0.0080  0.0779  0.1801
 6743TIP3    H141644   1.294   6.441   1.370  0.6376  0.4094 -1.5768
 6743TIP3    H241645   1.381   6.523   1.463 -0.7439 -0.7713  0.8675
 6744TIP3   OH241646   5.109   5.105  11.254  0.4550 -0.1842  0.0391
 6744TIP3    H141647   5.106   5.093  11.349  1.1921  1.7676  0.3427
 6744TIP3    H241648   5.018   5.121  11.229  0.1932 -1.1547  0.3338
 6745TIP3   OH241649   3.681   2.849  13.988  0.5292  0.4982  0.0170
 6745TIP3    H141650   3.682   2.929  13.935  1.7150 -0.0797 -0.8807
 6745TIP3    H241651   3.624   2.789  13.939  0.0200  0.6225  0.4471
 6746TIP3   OH241652   3.819   2.149  13.125 -0.4716 -0.7636 -0.1783
 6746TIP3    H141653   3.763   2.077  13.095  1.2757 -1.0376 -3.1617
 6746TIP3    H241654   3.802   2.219  13.063 -1.4971  1.2133  2.1749
 6747TIP3   OH241655   5.929   2.009   2.246 -0.1122  0.3836  0.5333
 6747TIP3    H141656   5.843   1.970   2.231  0.3827 -1.0911  1.3399
 6747TIP3    H241657   5.929   2.087   2.191 -1.2562 -0.6139 -0.9933
 6748TIP3   OH241658   3.279   1.872  15.116  0.1752  0.0135  0.2667
 6748TIP3    H141659   3.293   1.844  15.026  0.8385  2.4914 -0.5002
 6748TIP3    H241660   3.230   1.954  15.107  2.0361  1.4015  2.0072
 6749TIP3   OH241661   2.490   1.130   4.270  1.0085 -0.0104  0.5030
 6749TIP3    H141662   2.445   1.047   4.282 -0.7050  0.6346 -0.9539
 6749TIP3    H241663   2.550   1.115   4.196 -0.9328  0.5656 -1.2887
 6750TIP3   OH241664   5.219   4.693  11.479 -0.3713 -0.2570 -0.3009
 6750TIP3    H141665   5.198   4.729  11.392 -0.0509 -2.0156 -1.1541
 6750TIP3    H241666   5.136   4.657  11.510 -0.2200 -0.7435 -0.4500
 6751TIP3   OH241667   6.197   4.086   3.652 -0.3466 -0.6317  0.4591
 6751TIP3    H141668   6.150   4.167   3.673 -1.4085 -1.7551  2.7799
 6751TIP3    H241669   6.268   4.082   3.715  2.9727  0.9005 -2.8449
 6752TIP3   OH241670   3.898   3.645  14.426 -1.3059  1.0484  0.2199
 6752TIP3    H141671   3.993   3.641  14.435 -1.1592 -0.3833 -1.5462
 6752TIP3    H241672   3.878   3.739  14.427  0.0521  1.3559  1.0208
 6753TIP3   OH241673   6.320   4.635   3.169  0.1438  0.0121 -0.4587
 6753TIP3    H141674   6.238   4.587   3.160  0.9699 -1.1177 -2.7459
 6753TIP3    H241675   6.381   4.591   3.109  2.2064  1.2927  0.5715
 6754TIP3   OH241676   4.022   4.064   2.298 -0.0900  0.5654  0.1844
 6754TIP3    H141677   3.942   4.105   2.329 -0.6844 -0.0329 -0.5048
 6754TIP3    H241678   3.992   3.995   2.239  0.9491  0.6812 -0.5096
 6755TIP3   OH241679   0.601   5.959  15.800  0.0191  0.2045 -0.0440
 6755TIP3    H141680   0.515   5.920  15.819 -0.3816  0.7734 -0.6347
 6755TIP3    H241681   0.630   5.993  15.885 -0.2041 -0.2409  0.2182
 6756TIP3   OH241682   4.593   6.108   3.702  0.5733 -0.1124  0.2225
 6756TIP3    H141683   4.530   6.054   3.653  0.7111 -0.1403  0.0772
 6756TIP3    H241684   4.665   6.048   3.722  0.1098 -0.3479  1.2469
 6757TIP3   OH241685   1.118   4.957   5.581 -0.1406 -0.4126 -0.4949
 6757TIP3    H141686   1.086   4.915   5.661 -1.3404  1.7255  0.2139
 6757TIP3    H241687   1.041   4.999   5.543  1.0772  1.7243 -0.7779
 6758TIP3   OH241688   1.671   4.586   3.032 -0.1791 -0.5051  0.2606
 6758TIP3    H141689   1.740   4.594   3.098  0.9162 -1.2619 -0.7514
 6758TIP3    H241690   1.703   4.636   2.957 -0.6145 -1.0677 -0.3147
 6759TIP3   OH241691   0.047   4.241  10.840  0.0104  0.1593  0.2547
 6759TIP3    H141692  -0.012   4.277  10.774 -1.1422  0.4274  1.3954
 6759TIP3    H241693   0.024   4.149  10.846 -0.8477  0.4178  1.2328
 6760TIP3   OH241694   2.542   3.232   3.770 -0.0794 -0.2143  0.9373
 6760TIP3    H141695   2.631   3.203   3.753 -0.7612 -1.7874 -0.2541
 6760TIP3    H241696   2.503   3.161   3.821 -1.2708 -0.6315 -0.4853
 6761TIP3   OH241697   0.898   3.541  14.069 -0.2137 -0.5400  0.2639
 6761TIP3    H141698   0.922   3.593  13.992 -2.1374 -2.1798 -1.5374
 6761TIP3    H241699   0.874   3.607  14.135  0.6340  0.8834 -0.7794
 6762TIP3   OH241700   2.681   2.913   0.738  0.3040  0.3000 -0.1644
 6762TIP3    H141701   2.729   2.857   0.800  0.8432  1.0201  0.0730
 6762TIP3    H241702   2.687   3.001   0.775  0.4083  0.6997 -1.1092
 6763TIP3   OH241703   5.516   2.314  16.860  0.4178 -0.2822 -0.6280
 6763TIP3    H141704   5.525   2.409  16.867 -0.9059 -0.1568 -0.4440
 6763TIP3    H241705   5.490   2.286  16.948  1.5398 -0.9171 -0.4823
 6764TIP3   OH241706   3.787   3.693  14.672 -0.4719  0.0111  0.3747
 6764TIP3    H141707   3.833   3.651  14.599  1.1171 -0.6500  1.6948
 6764TIP3    H241708   3.852   3.699  14.741 -1.8041  1.0550  1.5974
 6765TIP3   OH241709   3.654   1.198   0.757  0.1865 -0.4163  0.0194
 6765TIP3    H141710   3.738   1.157   0.740  0.6036 -0.0745  1.1659
 6765TIP3    H241711   3.634   1.247   0.677  0.5661 -1.3374 -0.6518
 6766TIP3   OH241712   2.417   2.368   3.339  0.0019 -1.0206 -0.3786
 6766TIP3    H141713   2.455   2.305   3.401 -1.1688  0.0333  1.5010
 6766TIP3    H241714   2.488   2.429   3.320 -0.3772  0.4841  2.4890
 6767TIP3   OH241715   0.994   1.399   0.421  0.1109 -0.3076  0.7074
 6767TIP3    H141716   0.957   1.359   0.499 -2.1680  0.0111 -0.1097
 6767TIP3    H241717   0.919   1.410   0.363  1.5518  0.4318 -1.1098
 6768TIP3   OH241718   5.610   3.603   0.843  0.0652  0.4110 -0.2557
 6768TIP3    H141719   5.612   3.528   0.784 -0.3297  0.4883 -0.3724
 6768TIP3    H241720   5.653   3.674   0.794  1.2834  0.0153  0.2146
 6769TIP3   OH241721   0.255   2.622  11.927  0.1303 -0.3122  0.2635
 6769TIP3    H141722   0.220   2.546  11.973 -0.2158 -1.0515 -1.1480
 6769TIP3    H241723   0.274   2.590  11.839  1.5371  0.8383  0.1093
 6770TIP3   OH241724   0.909   1.635  16.200  0.1348  0.2328 -0.3657
 6770TIP3    H141725   0.909   1.730  16.196  1.8124  0.2206 -1.8035
 6770TIP3    H241726   0.978   1.608  16.139  0.6987 -1.8548  1.0729
 6771TIP3   OH241727   0.164   5.080   5.338 -0.1099  0.0094 -0.0452
 6771TIP3    H141728   0.134   5.156   5.288 -2.2145 -0.4729  0.4207
 6771TIP3    H241729   0.151   5.104   5.429  0.6237 -0.3634  0.1688
 6772TIP3   OH241730   5.059   2.088   2.596 -0.1207  0.0892  0.0174
 6772TIP3    H141731   5.059   2.036   2.677 -0.8275  1.1688  0.7444
 6772TIP3    H241732   5.004   2.039   2.536  1.1758 -1.2160 -0.1720
 6773TIP3   OH241733   1.690   4.485   2.051  0.4567 -0.1503  0.0015
 6773TIP3    H141734   1.721   4.398   2.027  1.3858 -0.2868  1.5446
 6773TIP3    H241735   1.696   4.487   2.147 -3.3711  0.2111  0.3900
 6774TIP3   OH241736   3.073   2.000   4.579 -0.4889 -0.4097  0.2112
 6774TIP3    H141737   3.049   1.937   4.647  1.3021 -0.2083  1.0897
 6774TIP3    H241738   2.991   2.016   4.532 -1.3984 -1.9183  1.1724
 6775TIP3   OH241739   5.784   0.704  13.104 -0.1360  0.2292  0.3097
 6775TIP3    H141740   5.806   0.732  13.016 -1.6499  1.7194  0.3672
 6775TIP3    H241741   5.849   0.747  13.160 -1.1425  1.9820  0.1905
 6776TIP3   OH241742   5.461   5.275  14.109 -0.3955 -0.0349  0.0880
 6776TIP3    H141743   5.405   5.326  14.051 -0.8527 -0.3265  0.2638
 6776TIP3    H241744   5.487   5.199  14.057 -1.4532 -0.7091  0.4960
 6777TIP3   OH241745   3.711   6.083  12.508  0.2515  0.5925 -0.5122
 6777TIP3    H141746   3.762   6.003  12.521  0.0417 -0.2791 -4.0918
 6777TIP3    H241747   3.775   6.148  12.477  0.3182  1.7380  1.8071
 6778TIP3   OH241748   3.356   0.145   3.867 -0.4202 -0.3694 -0.8170
 6778TIP3    H141749   3.430   0.199   3.841  0.3833 -0.8820  0.3394
 6778TIP3    H241750   3.319   0.113   3.785 -0.6952  1.5946 -1.5211
 6779TIP3   OH241751   5.687   6.636   0.088  0.2714  0.4526 -0.0133
 6779TIP3    H141752   5.598   6.606   0.105 -0.0222  0.6738 -1.1117
 6779TIP3    H241753   5.712   6.682   0.168  0.1013 -1.1859  1.0318
 6780TIP3   OH241754   5.584   2.596   0.211 -0.0078 -0.0135  0.3059
 6780TIP3    H141755   5.609   2.517   0.163 -1.7021  0.0984 -0.8477
 6780TIP3    H241756   5.590   2.571   0.303 -0.5926 -1.5453 -0.0407
 6781TIP3   OH241757   1.265   6.138  15.297  0.1766  0.4641 -0.4446
 6781TIP3    H141758   1.315   6.158  15.377 -0.5633 -0.9113  0.4038
 6781TIP3    H241759   1.175   6.164  15.318 -0.6658 -2.6903  0.4177
 6782TIP3   OH241760   0.603   4.912  13.825  0.0536 -0.0072 -0.0223
 6782TIP3    H141761   0.651   4.850  13.880  0.6747  0.0372 -0.4988
 6782TIP3    H241762   0.541   4.954  13.884  0.5224 -0.1544  0.5835
 6783TIP3   OH241763   5.725   0.440   3.302  0.0411  0.1965  0.0780
 6783TIP3    H141764   5.754   0.463   3.213  1.2593 -0.3533  0.3098
 6783TIP3    H241765   5.766   0.355   3.319  1.2721  1.0788  1.8093
 6784TIP3   OH241766   3.610   1.938  16.427  0.2979  0.4233  0.1252
 6784TIP3    H141767   3.662   1.874  16.477 -0.5592  0.1113  0.6310
 6784TIP3    H241768   3.568   1.992  16.493 -2.0554 -0.9372 -0.1346
 6785TIP3   OH241769   6.304   0.595   3.410  0.0205 -0.4749  0.1383
 6785TIP3    H141770   6.381   0.558   3.367  0.8979  1.3225  0.0923
 6785TIP3    H241771   6.273   0.525   3.468  0.3805 -1.9943 -1.4061
 6786TIP3   OH241772   3.159   3.285   2.848  0.2262  0.2738 -0.3139
 6786TIP3    H141773   3.114   3.355   2.802 -0.3994 -0.3745 -0.7082
 6786TIP3    H241774   3.118   3.282   2.934 -0.5998 -0.4095 -0.7217
 6787TIP3   OH241775   3.549   5.191  13.458  0.1000 -0.4271 -0.6309
 6787TIP3    H141776   3.637   5.164  13.486  0.4135  0.7843 -0.3981
 6787TIP3    H241777   3.534   5.274  13.504 -1.2179 -0.6837 -0.5753
 6788TIP3   OH241778   5.437   0.704   0.983 -0.1915 -0.4507 -0.2432
 6788TIP3    H141779   5.404   0.793   0.993  0.6600 -0.1352 -0.1446
 6788TIP3    H241780   5.442   0.691   0.888 -1.4477 -0.8383 -0.2726
 6789TIP3   OH241781   6.495   1.494  16.941  0.1178 -0.2310 -0.2615
 6789TIP3    H141782   6.426   1.429  16.953 -1.0846  1.1645  0.8355
 6789TIP3    H241783   6.570   1.445  16.906 -0.9242 -2.0616 -0.0104
 6790TIP3   OH241784   3.122   5.413   0.176  0.5549 -0.1777 -0.0360
 6790TIP3    H141785   3.091   5.502   0.163  4.1599  1.0341 -1.4673
 6790TIP3    H241786   3.122   5.401   0.271 -0.0037  1.3047  0.1732
 6791TIP3   OH241787   5.728   2.759  15.763  0.2963 -0.1414  0.2604
 6791TIP3    H141788   5.699   2.791  15.848  1.3922 -0.6968  0.8548
 6791TIP3    H241789   5.816   2.794  15.752  0.7744 -1.3515  0.0686
 6792TIP3   OH241790   1.259   0.884  15.218 -0.0958 -0.0403  0.4957
 6792TIP3    H141791   1.213   0.880  15.302 -1.0059 -0.9785 -0.0310
 6792TIP3    H241792   1.202   0.838  15.156  1.2498 -0.6999 -0.3197
 6793TIP3   OH241793   1.307   6.268  13.163 -1.1589  0.1832 -0.1328
 6793TIP3    H141794   1.258   6.338  13.121 -1.2106  0.5493  0.5223
 6793TIP3    H241795   1.383   6.313  13.202 -0.5136 -0.3102 -0.7808
 6794TIP3   OH241796   1.197   2.840   5.774  0.0257  0.4948 -0.2387
 6794TIP3    H141797   1.237   2.912   5.823 -1.7052  2.6352 -1.7456
 6794TIP3    H241798   1.122   2.814   5.827  0.4167  0.0582  0.1091
 6795TIP3   OH241799   1.422   0.067  15.720 -0.2906  0.0275 -0.4696
 6795TIP3    H141800   1.504   0.090  15.676 -0.3384  0.1320 -0.5040
 6795TIP3    H241801   1.363   0.140  15.701  0.8658  2.1703  3.0569
 6796TIP3   OH241802   0.825   2.676   1.315 -0.2029 -0.4379  0.0437
 6796TIP3    H141803   0.804   2.767   1.334  1.1822 -0.6150  2.9737
 6796TIP3    H241804   0.918   2.676   1.292  0.0612 -1.1728  1.0144
 6797TIP3   OH241805   3.720   1.059  13.592  0.1114  0.5240 -0.3381
 6797TIP3    H141806   3.774   0.986  13.623  0.0124  0.9638  0.9325
 6797TIP3    H241807   3.736   1.062  13.498 -1.0988 -2.1281 -0.7288
 6798TIP3   OH241808   1.121   1.181   4.331  0.5403 -0.3397  0.2601
 6798TIP3    H141809   1.118   1.112   4.264  1.1166  1.4915 -1.7574
 6798TIP3    H241810   1.190   1.153   4.391 -1.2712 -2.9789  1.2864
 6799TIP3   OH241811   2.884   2.565   1.649  0.0536  0.4143  0.8278
 6799TIP3    H141812   2.830   2.555   1.571  0.5041 -1.2360  0.6946
 6799TIP3    H241813   2.829   2.615   1.710 -0.4560  1.3530 -0.3749
 6800TIP3   OH241814   5.320   4.094   0.725 -0.1238 -0.0823  0.6409
 6800TIP3    H141815   5.392   4.156   0.711 -0.9864  0.6962 -0.5847
 6800TIP3    H241816   5.347   4.042   0.801  1.9988 -0.2119 -0.1233
 6801TIP3   OH241817   2.106   5.429   5.785 -0.5032 -0.6422  0.2950
 6801TIP3    H141818   2.084   5.336   5.781  0.9385 -0.9612 -1.2672
 6801TIP3    H241819   2.025   5.471   5.813 -2.0440 -2.1047 -1.6352
 6802TIP3   OH241820   1.872   1.668   2.566 -0.2238  0.2097 -0.1287
 6802TIP3    H141821   1.810   1.617   2.619 -1.8108  1.1576 -0.9995
 6802TIP3    H241822   1.821   1.742   2.534  1.0778  0.4374 -1.8129
 6803TIP3   OH241823   3.656   3.833  16.024  0.0815  0.1419  0.3888
 6803TIP3    H141824   3.735   3.796  15.983 -1.6812 -1.6280 -1.7267
 6803TIP3    H241825   3.638   3.774  16.097 -0.4153 -0.8316 -0.4714
 6804TIP3   OH241826   6.639   3.448   4.160 -0.1243 -0.4340  0.4042
 6804TIP3    H141827   6.733   3.442   4.178 -0.0040 -1.2658 -0.4876
 6804TIP3    H241828   6.603   3.488   4.240  0.8971 -0.6316  0.9862
 6805TIP3   OH241829   5.546   3.091  11.236  0.9791 -0.0374  0.3575
 6805TIP3    H141830   5.629   3.086  11.189 -0.3751  1.9588 -2.6023
 6805TIP3    H241831   5.545   3.178  11.275  0.8669 -0.6031  1.6486
 6806TIP3   OH241832   5.421   1.671   4.785 -0.8512  0.5032  0.0182
 6806TIP3    H141833   5.330   1.665   4.756 -1.1092 -1.1437  1.0202
 6806TIP3    H241834   5.418   1.732   4.859 -1.6219 -1.3308  1.5888
 6807TIP3   OH241835   3.663   6.076  11.695 -0.3335 -0.2766 -0.1262
 6807TIP3    H141836   3.636   5.987  11.714  0.6806 -0.7885 -1.0003
 6807TIP3    H241837   3.640   6.125  11.774  0.6716 -1.6533  1.0849
 6808TIP3   OH241838   4.096   5.406  16.298 -0.4343  0.8702  0.2577
 6808TIP3    H141839   4.060   5.339  16.239 -1.9085  2.1826 -0.4127
 6808TIP3    H241840   4.053   5.390  16.382 -0.5497  0.7904  0.1837
 6809TIP3   OH241841   2.913   6.418   0.256  0.0807 -0.6614 -0.2859
 6809TIP3    H141842   2.896   6.449   0.345 -1.2702  0.0882 -0.7767
 6809TIP3    H241843   2.862   6.477   0.200 -2.0158 -3.2374 -1.3115
 6810TIP3   OH241844   0.745   0.031   5.718  0.3489  0.0478  0.1951
 6810TIP3    H141845   0.771  -0.053   5.755  1.6365  0.5000  0.3656
 6810TIP3    H241846   0.746   0.017   5.623  1.3441  0.0648  0.1886
 6811TIP3   OH241847   5.375   0.028  15.774 -0.3905 -0.5696 -0.2177
 6811TIP3    H141848   5.460   0.073  15.779 -0.2441 -0.9075  0.4279
 6811TIP3    H241849   5.390  -0.056  15.817 -1.1699 -0.4649  0.2690
 6812TIP3   OH241850   1.855   3.871   3.538 -0.1108  0.1694  0.3829
 6812TIP3    H141851   1.887   3.954   3.502 -0.9801 -0.8048 -2.9772
 6812TIP3    H241852   1.760   3.875   3.529 -0.0756 -1.8714 -1.6951
 6813TIP3   OH241853   5.931   1.540   0.646  0.4352 -0.4712 -0.2386
 6813TIP3    H141854   5.879   1.586   0.581  0.1391  0.6194  0.7294
 6813TIP3    H241855   6.019   1.575   0.637  0.5472 -0.8057 -0.4824
 6814TIP3   OH241856   4.685   1.374   4.011  0.0114 -0.0340  0.0876
 6814TIP3    H141857   4.721   1.460   4.029 -0.2112  0.4538 -1.6773
 6814TIP3    H241858   4.616   1.389   3.947  0.0838 -1.5392 -0.3894
 6815TIP3   OH241859   0.669   5.467  15.749 -0.4714  0.0746 -0.5989
 6815TIP3    H141860   0.710   5.523  15.683 -0.7174 -1.8413 -2.4857
 6815TIP3    H241861   0.581   5.450  15.715 -0.2778 -1.7346 -0.3253
 6816TIP3   OH241862   6.374   3.793  13.784  0.0594  0.6016 -0.3062
 6816TIP3    H141863   6.400   3.867  13.730  1.2494  0.7553  0.4500
 6816TIP3    H241864   6.406   3.814  13.872 -2.6712  0.8248  0.7371
 6817TIP3   OH241865   2.493   4.745   1.760 -0.1053  0.0775 -0.2669
 6817TIP3    H141866   2.569   4.803   1.757  0.3343 -0.5186 -1.4160
 6817TIP3    H241867   2.418   4.805   1.769  0.4763  0.6673  0.8640
 6818TIP3   OH241868   6.344   2.891   2.065 -0.2979 -1.1573  0.2139
 6818TIP3    H141869   6.339   2.868   1.972 -2.3799 -0.2171  0.0333
 6818TIP3    H241870   6.330   2.986   2.066  0.9174 -0.9656  1.4272
 6819TIP3   OH241871   1.278   1.514   0.280 -0.3553 -0.4706 -0.7062
 6819TIP3    H141872   1.272   1.426   0.243  2.6919 -0.0909 -2.4361
 6819TIP3    H241873   1.371   1.536   0.273 -0.8094  2.3865  0.9255
 6820TIP3   OH241874   5.112   5.593  11.912 -0.4836 -0.0803  0.2263
 6820TIP3    H141875   5.116   5.624  11.821 -0.7691 -0.7909 -0.0297
 6820TIP3    H241876   5.111   5.673  11.964  0.3070  0.3343 -0.3678
 6821TIP3   OH241877   1.503   2.666   5.586  0.1678  0.6735 -0.5024
 6821TIP3    H141878   1.408   2.667   5.582  0.0649  0.0669  1.0214
 6821TIP3    H241879   1.526   2.573   5.584  0.6961  0.8009 -0.4657
 6822TIP3   OH241880   3.087   6.588  12.353  0.5037 -0.4127  0.0683
 6822TIP3    H141881   3.127   6.638  12.281 -1.5982 -0.3785 -1.1615
 6822TIP3    H241882   3.157   6.532  12.385  1.9295  0.7135 -0.9539
 6823TIP3   OH241883   1.703   0.756  12.356 -0.0772 -0.3089  0.2736
 6823TIP3    H141884   1.677   0.792  12.441  0.2337  0.6429 -0.0231
 6823TIP3    H241885   1.620   0.738  12.311 -0.2477  0.6047  0.2038
 6824TIP3   OH241886   6.787   1.536  15.479  0.4548  0.0176  0.1657
 6824TIP3    H141887   6.732   1.612  15.460  2.2969  1.1520 -0.9127
 6824TIP3    H241888   6.817   1.550  15.569  0.4030  0.3433  0.1346
 6825TIP3   OH241889   4.096   0.910  12.666 -0.1651  0.1048 -0.5814
 6825TIP3    H141890   4.059   0.997  12.681 -0.5995  0.2018 -2.0441
 6825TIP3    H241891   4.044   0.874  12.595 -0.2699 -1.5443  0.2772
 6826TIP3   OH241892   4.994   5.015  13.017 -0.1317 -0.1662  0.0039
 6826TIP3    H141893   4.997   5.045  12.926 -0.8032 -0.5839 -0.1659
 6826TIP3    H241894   5.084   4.993  13.038 -0.0318 -0.4473 -0.7014
 6827TIP3   OH241895   3.890   6.244  11.326 -0.1021 -0.4112 -0.6375
 6827TIP3    H141896   3.862   6.296  11.251 -1.6476  1.6087  1.2117
 6827TIP3    H241897   3.905   6.308  11.396  1.5608 -2.1704  0.7429
 6828TIP3   OH241898   5.211   4.472   2.254 -0.6159 -0.8099  0.3397
 6828TIP3    H141899   5.116   4.477   2.249 -0.4924  1.7224 -0.5478
 6828TIP3    H241900   5.228   4.413   2.328 -2.8342 -1.5669  0.3086
 6829TIP3   OH241901   0.327   2.838  11.758 -1.1070 -0.3318 -0.0138
 6829TIP3    H141902   0.316   2.925  11.719  1.1433 -0.3940 -0.9610
 6829TIP3    H241903   0.327   2.855  11.853 -1.2743  0.6250 -0.1753
 6830TIP3   OH241904   2.584   4.480  14.940 -0.1211 -0.4313  0.0189
 6830TIP3    H141905   2.594   4.397  14.987  1.0820 -1.2198 -1.4999
 6830TIP3    H241906   2.528   4.534  14.996  0.9831 -1.4041  2.1634
 6831TIP3   OH241907   6.616   4.391   3.284 -0.0750  1.4649  0.4915
 6831TIP3    H141908   6.612   4.449   3.359  0.2353  0.5619  1.2226
 6831TIP3    H241909   6.708   4.368   3.275 -0.1878  1.0937  0.2029
 6832TIP3   OH241910   2.586   1.995   0.708 -0.1847  0.0442  0.0470
 6832TIP3    H141911   2.613   1.986   0.799 -1.3044  2.0044  0.6203
 6832TIP3    H241912   2.502   2.041   0.711 -1.4041 -1.8582 -1.8858
 6833TIP3   OH241913   0.327   5.289  16.834 -0.0873 -0.0049 -0.5565
 6833TIP3    H141914   0.412   5.285  16.878 -0.2470  0.1415 -0.2239
 6833TIP3    H241915   0.327   5.215  16.773  0.9872  1.0214 -1.8585
 6834TIP3   OH241916   0.909   6.313  15.948  0.4964 -0.3667  0.2032
 6834TIP3    H141917   1.005   6.305  15.950  0.3999 -3.2960 -1.4993
 6834TIP3    H241918   0.881   6.295  16.037  1.5140  0.7931  0.7831
 6835TIP3   OH241919   5.638   3.284  14.577  0.5098 -0.2655 -0.5524
 6835TIP3    H141920   5.726   3.281  14.615  0.3499  1.5779  0.0446
 6835TIP3    H241921   5.583   3.318  14.648 -0.3658  0.3006 -1.4891
 6836TIP3   OH241922   6.647   3.618  16.236 -0.3667 -0.7248  0.4418
 6836TIP3    H141923   6.574   3.627  16.297 -1.1125 -0.6212 -0.4379
 6836TIP3    H241924   6.650   3.524  16.216 -0.7375 -0.6346 -0.0721
 6837TIP3   OH241925   3.910   6.382  16.566  0.2698 -0.1656  0.0321
 6837TIP3    H141926   3.903   6.287  16.555  2.1725 -0.2569 -0.8960
 6837TIP3    H241927   3.912   6.416  16.477  0.7790  0.6073  0.3276
 6838TIP3   OH241928   0.009   6.146   0.107 -0.1362 -0.8950  0.1887
 6838TIP3    H141929  -0.043   6.141   0.187 -0.9322  2.8872  0.0833
 6838TIP3    H241930  -0.047   6.109   0.039 -0.4763 -1.7652  0.9241
 6839TIP3   OH241931   2.419   2.111  15.884  0.8083 -0.5802 -0.1380
 6839TIP3    H141932   2.468   2.170  15.943  0.9931 -0.7921 -0.0773
 6839TIP3    H241933   2.327   2.129  15.904  0.8578 -0.1975 -0.2315
 6840TIP3   OH241934   0.495   3.586   0.693 -0.4854 -0.0030 -0.0143
 6840TIP3    H141935   0.545   3.539   0.626 -0.6623 -0.8972  0.4685
 6840TIP3    H241936   0.498   3.677   0.665  0.3999 -0.2098 -0.6316
 6841TIP3   OH241937   1.051   2.958   4.185 -0.0987  0.2151  0.2187
 6841TIP3    H141938   1.143   2.982   4.182 -0.4058  1.3238 -0.7361
 6841TIP3    H241939   1.042   2.908   4.266  1.4858 -0.5741 -0.0489
 6842TIP3   OH241940   3.917   4.881  16.067  0.4567 -0.6755  0.2502
 6842TIP3    H141941   3.922   4.930  16.149 -1.1952  0.0071 -0.0166
 6842TIP3    H241942   3.838   4.828  16.075  0.5974 -1.0511 -0.6727
 6843TIP3   OH241943   0.551   2.071   1.424 -0.4155 -0.1993  0.0638
 6843TIP3    H141944   0.467   2.104   1.392  0.7391  2.3176 -0.6133
 6843TIP3    H241945   0.600   2.149   1.447  1.4011 -1.6518  1.4341
 6844TIP3   OH241946   0.763   1.807   6.338  0.6817  0.5038  0.1160
 6844TIP3    H141947   0.841   1.811   6.393  0.7493  0.0902  0.0585
 6844TIP3    H241948   0.770   1.722   6.293  0.5851  0.7980 -0.4689
 6845TIP3   OH241949   5.781   3.114   4.149 -0.3173  0.6020  0.4777
 6845TIP3    H141950   5.693   3.146   4.167 -0.9479  0.7637 -2.4644
 6845TIP3    H241951   5.793   3.126   4.055  0.9239 -3.9505 -0.2206
 6846TIP3   OH241952   6.469   6.043  15.740  0.2542  0.2162 -0.5565
 6846TIP3    H141953   6.448   5.974  15.677  0.9900 -0.3786 -0.1558
 6846TIP3    H241954   6.436   6.011  15.824  0.0661  0.6171 -0.4754
 6847TIP3   OH241955   3.106   4.335   0.845  0.3156 -0.4479 -0.5698
 6847TIP3    H141956   3.054   4.401   0.799  0.7612  1.4299  1.4422
 6847TIP3    H241957   3.053   4.311   0.921  1.2092 -0.5317  0.0435
 6848TIP3   OH241958   3.233   4.097   0.358  0.2809  0.3461  0.1222
 6848TIP3    H141959   3.197   4.156   0.425  1.1666  1.3344 -0.2576
 6848TIP3    H241960   3.227   4.147   0.277  0.9611 -0.1281 -0.2239
 6849TIP3   OH241961   5.834   5.667  14.007  0.0753  0.0329 -0.2317
 6849TIP3    H141962   5.912   5.714  14.036  0.3264 -0.5261  0.0305
 6849TIP3    H241963   5.868   5.593  13.957 -0.3073  0.0513 -0.5272
 6850TIP3   OH241964   4.958   6.289  17.051 -0.1402 -0.5133 -0.2163
 6850TIP3    H141965   5.008   6.219  17.094  0.0020 -0.0282  0.4316
 6850TIP3    H241966   4.878   6.247  17.020  0.0489 -1.0099 -0.0384
 6851TIP3   OH241967   4.476   3.976   2.055 -0.2029  0.1645 -0.1594
 6851TIP3    H141968   4.487   3.902   1.995  0.3263 -0.9098  1.2057
 6851TIP3    H241969   4.381   3.984   2.067 -0.2513 -0.6667  0.0944
 6852TIP3   OH241970   5.663   6.740  15.584 -0.0141  0.5169  0.3806
 6852TIP3    H141971   5.579   6.746  15.539  0.2133  2.2343  0.1117
 6852TIP3    H241972   5.675   6.826  15.624  1.3338  0.0962  0.9477
 6853TIP3   OH241973   0.061   4.012  13.051  0.2288  0.5940  0.1857
 6853TIP3    H141974   0.153   4.001  13.076  0.5422  0.9865 -0.7427
 6853TIP3    H241975   0.020   4.052  13.128  0.0177 -2.7438  1.9657
 6854TIP3   OH241976   2.555   0.360  12.360  0.2204 -0.0810 -0.5024
 6854TIP3    H141977   2.561   0.446  12.401 -0.1916  0.6550 -1.9244
 6854TIP3    H241978   2.504   0.307  12.422 -0.8775  1.1472 -0.3097
 6855TIP3   OH241979   5.223   2.604  11.836 -0.2673  0.1260 -0.4042
 6855TIP3    H141980   5.214   2.583  11.743  0.5021  0.7503 -0.6242
 6855TIP3    H241981   5.140   2.648  11.858 -0.5155 -0.1618 -0.7460
 6856TIP3   OH241982   6.052   5.003  13.841  0.2561  0.2050 -0.0946
 6856TIP3    H141983   5.982   5.027  13.903 -0.0318 -1.7291  0.3895
 6856TIP3    H241984   6.031   5.052  13.761 -1.1846  0.2858  0.3047
 6857TIP3   OH241985   4.929   5.440  13.265 -0.3323 -0.7810  0.3141
 6857TIP3    H141986   4.873   5.447  13.342 -1.9307  1.2548 -0.9438
 6857TIP3    H241987   4.874   5.466  13.192  1.3698 -1.8303 -1.4610
 6858TIP3   OH241988   6.711   0.736  16.341  0.3143 -0.0367  0.9691
 6858TIP3    H141989   6.760   0.719  16.260  1.5695 -1.0541  1.8842
 6858TIP3    H241990   6.631   0.685  16.332 -0.4841  1.3656 -0.4107
 6859TIP3   OH241991   6.520   1.307  11.522  0.1001  0.0109 -0.3392
 6859TIP3    H141992   6.576   1.313  11.599  0.6301  1.1899 -0.7861
 6859TIP3    H241993   6.512   1.213  11.505  0.4328 -0.2416  0.8055
 6860TIP3   OH241994   6.472   6.390  14.673 -0.2611  0.6460  0.0648
 6860TIP3    H141995   6.559   6.350  14.670 -0.5298  0.0897 -0.5207
 6860TIP3    H241996   6.411   6.317  14.678 -0.7388  0.9856 -0.6044
 6861TIP3   OH241997   5.769   4.730   5.781 -0.0569 -0.5137 -0.3511
 6861TIP3    H141998   5.745   4.646   5.744 -0.4847 -0.2284 -0.7418
 6861TIP3    H241999   5.726   4.731   5.867 -1.5880  0.0245 -1.0789
 6862TIP3   OH242000   2.742   4.466   1.368  0.3270  0.1499 -0.3596
 6862TIP3    H142001   2.695   4.479   1.450 -0.0689 -2.8150 -0.0069
 6862TIP3    H242002   2.672   4.452   1.303  0.6154  2.8508 -1.3765
 6863TIP3   OH242003   3.458   6.255   2.186 -0.0810 -0.4360  0.0623
 6863TIP3    H142004   3.407   6.241   2.107 -0.5612  2.3649 -0.2340
 6863TIP3    H242005   3.393   6.254   2.257 -0.1933  0.4711 -0.0120
 6864TIP3   OH242006   4.280   4.645  15.161  0.0717 -0.2118 -0.3455
 6864TIP3    H142007   4.363   4.626  15.204 -0.3150 -0.2299  0.4149
 6864TIP3    H242008   4.248   4.559  15.132  0.0053 -0.2946 -0.0388
 6865TIP3   OH242009   5.390   4.546   0.047  0.4721  0.0602 -0.6156
 6865TIP3    H142010   5.464   4.513   0.099  1.9105  1.8983 -1.3675
 6865TIP3    H242011   5.412   4.521  -0.043 -1.3763 -1.9969 -0.5789
 6866TIP3   OH242012   2.328   3.207  15.575 -0.3102  0.2636 -0.6630
 6866TIP3    H142013   2.236   3.226  15.557 -0.8336 -1.1455  0.3317
 6866TIP3    H242014   2.373   3.290  15.562 -1.9824  1.4226  0.6047
 6867TIP3   OH242015   5.363   4.862  11.633  0.4085 -0.2224  0.3649
 6867TIP3    H142016   5.325   4.795  11.577  3.8688 -0.8409 -1.5044
 6867TIP3    H242017   5.397   4.928  11.571  2.8177 -0.0605  1.7438
 6868TIP3   OH242018   5.397   1.589   0.345  0.6579 -0.2410 -0.1292
 6868TIP3    H142019   5.390   1.542   0.427  0.4935 -1.1845 -0.6772
 6868TIP3    H242020   5.307   1.598   0.314  0.8262 -1.3032 -0.9805
 6869TIP3   OH242021   0.270   5.243  13.103 -0.7102  0.4242 -0.1548
 6869TIP3    H142022   0.330   5.301  13.150 -1.2217  0.2091  0.8079
 6869TIP3    H242023   0.191   5.241  13.158 -0.9190 -0.7207 -0.4661
 6870TIP3   OH242024   2.482   1.348  14.060  0.3177  0.0792  0.3135
 6870TIP3    H142025   2.420   1.381  13.995  1.2152  0.1263 -0.5509
 6870TIP3    H242026   2.440   1.366  14.144 -0.5520  0.6842 -0.2263
 6871TIP3   OH242027   4.718   3.379  13.730  0.5779 -0.5049 -0.5269
 6871TIP3    H142028   4.753   3.311  13.788 -0.6900 -0.6885  0.0581
 6871TIP3    H242029   4.652   3.333  13.677  0.4231  0.0598 -0.8291
 6872TIP3   OH242030   0.143   0.098   3.264 -0.1991  0.0008  0.4272
 6872TIP3    H142031   0.165   0.143   3.345 -0.3862 -0.4116  0.7122
 6872TIP3    H242032   0.075   0.152   3.223  0.9191  0.9840 -0.1832
 6873TIP3   OH242033   1.936   2.609  14.357  0.4649 -0.2491 -0.4214
 6873TIP3    H142034   1.985   2.540  14.403  0.1308 -0.5598 -0.5261
 6873TIP3    H242035   1.844   2.586  14.371  0.3551  0.1147 -0.5551
 6874TIP3   OH242036   2.226   5.884  13.618 -0.0535 -0.0177  0.4347
 6874TIP3    H142037   2.165   5.874  13.692  0.3861  0.5468  0.8801
 6874TIP3    H242038   2.299   5.826  13.639 -0.4705 -0.7812 -0.1543
 6875TIP3   OH242039   1.210   5.907   1.421  0.0531  0.5758 -0.1652
 6875TIP3    H142040   1.239   5.877   1.507  2.3628 -2.3297 -1.7559
 6875TIP3    H242041   1.118   5.881   1.416  0.3703 -0.8656  0.8235
 6876TIP3   OH242042   6.283   5.318   1.313 -0.6713  0.4459  0.0670
 6876TIP3    H142043   6.344   5.338   1.384 -0.6861 -0.9768  0.5184
 6876TIP3    H242044   6.334   5.265   1.252 -1.3147 -0.3885  0.2344
 6877TIP3   OH242045   3.667   0.368  12.024 -0.1902 -0.0240  0.0096
 6877TIP3    H142046   3.714   0.390  11.944  0.0567  0.3605  0.2548
 6877TIP3    H242047   3.586   0.325  11.994 -0.3767  0.6432 -0.4683
 6878TIP3   OH242048   4.875   3.957   4.767  0.6352  0.2197  0.2816
 6878TIP3    H142049   4.917   3.910   4.839  0.8585  0.8124  0.5442
 6878TIP3    H242050   4.912   3.918   4.687 -0.4710 -1.2439  0.4349
 6879TIP3   OH242051   1.536   4.571   6.078 -0.4921 -0.9454  0.4472
 6879TIP3    H142052   1.497   4.558   5.991  1.3736  1.2029 -0.8237
 6879TIP3    H242053   1.505   4.657   6.105  1.0477 -0.4453  0.6877
 6880TIP3   OH242054   4.388   2.337  14.213 -0.3096  0.2800  0.1041
 6880TIP3    H142055   4.296   2.344  14.239 -0.0817 -0.9525  1.3804
 6880TIP3    H242056   4.430   2.292  14.286  1.5018  1.5585 -0.0875
 6881TIP3   OH242057   1.527   1.475  12.926 -0.1467 -0.6042 -0.1208
 6881TIP3    H142058   1.555   1.559  12.888 -1.1738  0.2420  0.9127
 6881TIP3    H242059   1.455   1.499  12.985 -1.5351 -2.4022 -0.9765
 6882TIP3   OH242060   3.242   3.422  16.692  0.2124  0.3593 -0.1548
 6882TIP3    H142061   3.175   3.395  16.755  0.6881 -0.7714 -0.1179
 6882TIP3    H242062   3.292   3.490  16.738 -1.1315  1.5093 -0.3256
 6883TIP3   OH242063   2.930   0.952  14.815 -0.5230  0.0901  0.9307
 6883TIP3    H142064   2.904   0.875  14.764  0.2090  1.1538 -1.1251
 6883TIP3    H242065   3.007   0.923  14.864  0.5186 -0.1628 -0.7953
 6884TIP3   OH242066   1.904   3.479   0.615 -0.0722  0.3548 -0.1314
 6884TIP3    H142067   1.879   3.387   0.610  2.0039 -0.3616  1.0982
 6884TIP3    H242068   1.981   3.486   0.558  0.7116  0.9327  0.9585
 6885TIP3   OH242069   5.651   3.918  15.442 -0.7185  0.1859 -0.0797
 6885TIP3    H142070   5.646   3.956  15.530 -1.1588  0.7744 -0.3555
 6885TIP3    H242071   5.561   3.896  15.420 -0.3422 -2.2932  0.6094
 6886TIP3   OH242072   5.156   6.577  10.989 -0.3535 -0.0763  0.1619
 6886TIP3    H142073   5.117   6.510  11.046  0.0221  0.3237  0.9152
 6886TIP3    H242074   5.145   6.543  10.900 -1.6439 -0.3662  0.4126
 6887TIP3   OH242075   0.441   0.844  13.772 -0.8166  0.1147  0.1367
 6887TIP3    H142076   0.377   0.876  13.708 -0.6761 -1.4936 -0.8574
 6887TIP3    H242077   0.400   0.766  13.810 -0.2842  0.2309  0.9582
 6888TIP3   OH242078   2.733   3.913  15.884  0.4061 -0.4314  0.8789
 6888TIP3    H142079   2.790   3.878  15.815  1.5860 -1.9227  2.5197
 6888TIP3    H242080   2.651   3.865  15.874  0.2626 -0.0302  0.0169
 6889TIP3   OH242081   1.549   2.788   0.045  0.2041 -0.1192 -0.2278
 6889TIP3    H142082   1.547   2.720  -0.023  1.4075 -0.6784  0.2496
 6889TIP3    H242083   1.620   2.760   0.104 -0.1213  0.8983  0.6777
 6890TIP3   OH242084   4.899   5.839  12.604 -0.4839  0.3902 -0.6088
 6890TIP3    H142085   4.929   5.925  12.573  0.5080 -0.0098 -0.7694
 6890TIP3    H242086   4.927   5.778  12.536  0.5988 -0.3380  0.4529
 6891TIP3   OH242087   6.285   2.205   0.854  0.2662 -0.1006 -0.0492
 6891TIP3    H142088   6.340   2.240   0.924 -1.4454 -0.0926  1.3673
 6891TIP3    H242089   6.281   2.276   0.789 -0.8452  1.2955  1.4554
 6892TIP3   OH242090   6.363   1.782  14.660 -0.3145  0.2893  0.8653
 6892TIP3    H142091   6.363   1.702  14.711 -0.8941  0.4065  1.0560
 6892TIP3    H242092   6.290   1.833  14.695 -0.2889  0.6641  0.3857
 6893TIP3   OH242093   4.601   0.177   5.726 -0.2207  0.0892  0.4802
 6893TIP3    H142094   4.690   0.151   5.704  0.0101 -0.0993  1.6118
 6893TIP3    H242095   4.600   0.183   5.821 -1.6336 -0.7042  0.5456
 6894TIP3   OH242096   1.053   4.135  11.733  0.0828 -0.5038  0.2212
 6894TIP3    H142097   1.007   4.191  11.795  1.6240 -1.0029  1.9241
 6894TIP3    H242098   1.083   4.195  11.664  1.1883  0.7139  1.6967
 6895TIP3   OH242099   1.030   2.764   1.875 -0.1883 -0.2805  0.2537
 6895TIP3    H142100   0.967   2.692   1.885  0.4923 -0.8649  0.3987
 6895TIP3    H242101   1.112   2.721   1.850  0.3123  0.4152  0.6656
 6896TIP3   OH242102   3.257   5.020   4.552  0.5744  0.2952  0.2719
 6896TIP3    H142103   3.271   5.026   4.646  1.0462  0.0457  0.2167
 6896TIP3    H242104   3.171   5.061   4.538  0.2245 -0.2151  0.8818
 6897TIP3   OH242105   3.582   3.858  11.100  0.2870 -0.2659  0.2790
 6897TIP3    H142106   3.602   3.803  11.176 -2.1067 -0.7998  0.6035
 6897TIP3    H242107   3.555   3.796  11.032 -0.8305  0.3932  0.1041
 6898TIP3   OH242108   1.415   5.257  13.819  0.5075  0.1625 -0.1509
 6898TIP3    H142109   1.370   5.174  13.804 -0.2319  0.7511 -1.2764
 6898TIP3    H242110   1.508   5.234  13.818  0.2917 -0.8379  0.8045
 6899TIP3   OH242111   3.236   3.650   1.957  0.3837 -0.1173 -0.4558
 6899TIP3    H142112   3.171   3.692   1.900  0.8697  1.0932 -0.1477
 6899TIP3    H242113   3.305   3.622   1.897 -0.1811 -0.9429 -0.7248
 6900TIP3   OH242114   3.060   5.626  15.998  0.1404  0.3391  0.0217
 6900TIP3    H142115   3.056   5.659  16.088 -1.0770  1.3643 -0.3694
 6900TIP3    H242116   3.020   5.539  16.003 -0.3780  0.5868  0.4089
 6901TIP3   OH242117   2.033   4.912   3.162 -0.3217 -0.0971  0.0501
 6901TIP3    H142118   2.005   4.928   3.072 -0.8621  1.8555  0.5277
 6901TIP3    H242119   2.042   4.999   3.201  4.1357 -0.5695  0.6895
 6902TIP3   OH242120   5.147   4.775  14.506  0.1774 -0.2741 -0.1808
 6902TIP3    H142121   5.150   4.833  14.431  0.9171 -0.4929 -0.3319
 6902TIP3    H242122   5.116   4.691  14.472 -1.3917  0.1462  0.1310
 6903TIP3   OH242123   6.763   2.732   4.370  0.5228  0.0540 -0.3885
 6903TIP3    H142124   6.732   2.641   4.363  0.9549 -0.5063  3.0338
 6903TIP3    H242125   6.857   2.727   4.352  0.7404 -0.4030  0.8054
 6904TIP3   OH242126   2.269   3.076   2.251  0.0208  0.0873 -0.0637
 6904TIP3    H142127   2.340   3.013   2.264  0.6506  0.7320 -0.2877
 6904TIP3    H242128   2.210   3.061   2.325  1.4046  0.8611  1.2830
 6905TIP3   OH242129   4.771   1.244  14.820  0.2430  0.0882  0.9577
 6905TIP3    H142130   4.863   1.267  14.821  0.4852 -0.8373  1.6811
 6905TIP3    H242131   4.747   1.235  14.912 -0.5829  0.3369  0.7844
 6906TIP3   OH242132   0.719   6.187  11.826 -0.2470 -0.1010 -0.4799
 6906TIP3    H142133   0.756   6.275  11.816  0.7606 -0.3821  0.5215
 6906TIP3    H242134   0.726   6.148  11.740 -2.2924  1.3558 -1.4001
 6907TIP3   OH242135   3.260   4.246   5.750 -0.1478 -0.4417 -0.0282
 6907TIP3    H142136   3.198   4.317   5.769  0.4157 -0.1276  0.6773
 6907TIP3    H242137   3.329   4.256   5.816  0.8718 -0.5292 -1.0454
 6908TIP3   OH242138   3.674   3.801  17.038  0.4831  0.7133  0.4981
 6908TIP3    H142139   3.722   3.848  16.970  1.0212  0.5223  0.7385
 6908TIP3    H242140   3.715   3.714  17.041  0.5665  0.7686  1.1620
 6909TIP3   OH242141   2.635   2.792   4.760  0.5258  0.2989  0.1581
 6909TIP3    H142142   2.558   2.841   4.790  0.1741 -0.8906  1.3318
 6909TIP3    H242143   2.621   2.780   4.666 -0.5110  0.4769  0.2789
 6910TIP3   OH242144   5.436   3.550  12.906 -0.0819  0.2232  0.0687
 6910TIP3    H142145   5.511   3.606  12.926 -0.5093  0.7237  0.2893
 6910TIP3    H242146   5.466   3.462  12.925  0.5715  0.3818 -0.1940
 6911TIP3   OH242147   3.850   2.006   6.598 -0.2992  0.2559 -0.2009
 6911TIP3    H142148   3.893   2.030   6.516 -0.4373  0.4674 -0.2122
 6911TIP3    H242149   3.921   2.004   6.662 -0.2908  0.7393 -0.1918
 6912TIP3   OH242150   2.318   2.001  16.917  0.3181 -0.4335  0.5016
 6912TIP3    H142151   2.336   2.007  17.011 -3.4586 -1.0639  1.4026
 6912TIP3    H242152   2.271   1.918  16.906  1.2088 -0.6842 -2.0941
 6913TIP3   OH242153   1.368   1.799   2.987 -0.4742 -0.2892  0.0101
 6913TIP3    H142154   1.410   1.714   3.001 -0.2272 -0.1625  0.0390
 6913TIP3    H242155   1.283   1.778   2.949 -0.7475 -0.5960  0.7724
 6914TIP3   OH242156   3.245   1.657   1.392  0.0006 -0.1954 -0.0963
 6914TIP3    H142157   3.220   1.748   1.408  2.1938  0.5496 -0.5873
 6914TIP3    H242158   3.198   1.633   1.312  0.5718  1.0437 -0.8315
 6915TIP3   OH242159   6.237   5.914   4.089  0.1087  0.0610  0.5472
 6915TIP3    H142160   6.207   5.824   4.103  1.8989 -0.7046 -0.1652
 6915TIP3    H242161   6.173   5.968   4.135 -0.8265 -1.5938  1.2953
 6916TIP3   OH242162   2.665   5.084  14.436 -0.2994  0.3011  0.1518
 6916TIP3    H142163   2.678   5.177  14.415 -0.4178  0.6169  1.3881
 6916TIP3    H242164   2.596   5.084  14.502  1.3168 -0.4421  1.9397
 6917TIP3   OH242165   3.669   4.928   3.483  0.1472 -0.5348  0.3703
 6917TIP3    H142166   3.678   4.886   3.397  1.0751  0.4911 -0.0595
 6917TIP3    H242167   3.586   4.895   3.517  0.5373 -2.2329 -0.1927
 6918TIP3   OH242168   2.912   3.212  12.665  0.3783  0.5507 -0.1209
 6918TIP3    H142169   2.894   3.224  12.572 -2.4480 -0.4950  0.2006
 6918TIP3    H242170   2.980   3.145  12.668 -2.3584 -2.5431 -1.4834
 6919TIP3   OH242171   0.098   5.503  15.347  0.3892 -0.1759  0.1977
 6919TIP3    H142172   0.090   5.434  15.412 -0.7960 -1.1562 -0.9250
 6919TIP3    H242173   0.011   5.543  15.344  0.7009  0.4938 -0.1042
 6920TIP3   OH242174   4.063   3.244   6.366  0.2133  0.6641 -0.2163
 6920TIP3    H142175   3.970   3.266   6.372  0.0133 -0.3502  0.9572
 6920TIP3    H242176   4.105   3.304   6.429 -0.2781 -1.7566  2.6588
 6921TIP3   OH242177   4.594   3.917  15.860 -0.3704  0.0652 -0.2337
 6921TIP3    H142178   4.508   3.894  15.896 -0.7634 -0.3109 -1.3327
 6921TIP3    H242179   4.622   3.837  15.813  0.2346  0.4262 -0.4992
 6922TIP3   OH242180   3.465   5.292  13.201  0.6017  0.3413 -0.4874
 6922TIP3    H142181   3.372   5.309  13.220  0.6030 -0.1206 -0.0509
 6922TIP3    H242182   3.507   5.288  13.287  0.9906  0.3211 -0.6757
 6923TIP3   OH242183   5.076   0.800   6.393  0.6204 -0.6899 -0.1184
 6923TIP3    H142184   5.027   0.789   6.474 -0.0994 -3.5074 -0.8424
 6923TIP3    H242185   5.025   0.863   6.341 -0.2793 -0.8439  0.5760
 6924TIP3   OH242186   1.999   4.871   5.639  0.1446 -0.2867 -0.3616
 6924TIP3    H142187   2.052   4.936   5.592  1.4801 -0.7714  0.4176
 6924TIP3    H242188   2.056   4.795   5.646 -0.7442 -0.9055  0.3475
 6925TIP3   OH242189   4.271   6.519   4.927 -0.1189  0.0128  0.0863
 6925TIP3    H142190   4.219   6.599   4.918  0.1021  0.1171 -0.2747
 6925TIP3    H242191   4.237   6.478   5.006  1.7931  1.9905  2.0804
 6926TIP3   OH242192   3.303   3.006   0.690  0.1694 -0.0280  0.3520
 6926TIP3    H142193   3.364   2.943   0.729  2.2789  2.0411  0.5983
 6926TIP3    H242194   3.298   2.980   0.598  2.2815  0.2985  0.0850
 6927TIP3   OH242195   0.424   2.380   1.190 -0.1893  0.2012 -0.0147
 6927TIP3    H142196   0.417   2.312   1.124  0.3648  0.5582 -0.4582
 6927TIP3    H242197   0.517   2.381   1.214 -0.0933  1.1033 -0.3560
 6928TIP3   OH242198   0.036   5.590   0.003 -0.2240 -0.6719  0.5211
 6928TIP3    H142199   0.099   5.568  -0.065  1.2886  0.2407  1.5567
 6928TIP3    H242200  -0.042   5.621  -0.044  0.7554 -0.1185 -0.7786
 6929TIP3   OH242201   1.126   3.384   4.054  0.5808 -0.4924  0.0722
 6929TIP3    H142202   1.182   3.360   3.980  0.0354  1.0032 -0.8581
 6929TIP3    H242203   1.043   3.409   4.015 -0.5259 -1.9297  1.3855
 6930TIP3   OH242204   2.683   1.457   5.469 -0.5128  0.2000 -0.2348
 6930TIP3    H142205   2.607   1.444   5.413 -0.3361 -0.2936 -0.3610
 6930TIP3    H242206   2.669   1.399   5.543  0.5361 -1.1666 -1.0628
 6931TIP3   OH242207   2.831   4.166  11.535  0.1402  0.4231 -0.2166
 6931TIP3    H142208   2.919   4.132  11.550 -0.1577 -0.6070 -0.7291
 6931TIP3    H242209   2.845   4.254  11.500  0.9953  0.0027 -0.9784
 6932TIP3   OH242210   1.460   6.285   3.605 -0.1383  0.2137 -0.0781
 6932TIP3    H142211   1.407   6.236   3.667 -0.9681  0.8032 -0.3106
 6932TIP3    H242212   1.531   6.225   3.583 -0.2380 -0.2821  0.8625
 6933TIP3   OH242213   3.223   1.930   4.852 -0.2775  0.4505 -0.3757
 6933TIP3    H142214   3.152   1.884   4.807  0.2399  0.0532 -0.7795
 6933TIP3    H242215   3.238   1.879   4.932  0.6155 -0.3716 -1.0470
 6934TIP3   OH242216   3.475   4.170  13.685 -0.3279  0.1922  0.2462
 6934TIP3    H142217   3.555   4.186  13.735 -0.6872  0.3458  0.7810
 6934TIP3    H242218   3.425   4.251  13.693 -0.8503 -0.1495  0.5103
 6935TIP3   OH242219   5.253   5.815  10.700  0.1491 -0.2141  0.4463
 6935TIP3    H142220   5.346   5.795  10.701  0.2013  0.0234  1.1706
 6935TIP3    H242221   5.224   5.791  10.613  1.1553  0.9184 -0.2312
 6936TIP3   OH242222   3.643   6.735  14.822 -0.1852 -0.6664  0.1492
 6936TIP3    H142223   3.580   6.739  14.894  0.7279 -1.6863  1.0492
 6936TIP3    H242224   3.629   6.648  14.783  1.1687 -1.2485  0.8837
 6937TIP3   OH242225   5.420   4.114   2.104 -0.4210 -0.5504  0.2028
 6937TIP3    H142226   5.439   4.208   2.110  1.1944 -0.8974  1.0388
 6937TIP3    H242227   5.332   4.106   2.141 -0.9369  0.7226 -0.6577
 6938TIP3   OH242228   5.481   0.750   0.067 -0.9234 -0.0096  0.2090
 6938TIP3    H142229   5.519   0.738   0.154 -1.0415 -0.8093  0.1589
 6938TIP3    H242230   5.402   0.802   0.082 -1.0947 -0.3825  0.6173
 6939TIP3   OH242231   0.427   1.197   6.136  0.1688  0.0763 -0.9809
 6939TIP3    H142232   0.361   1.128   6.130 -1.0816  1.0089  1.1006
 6939TIP3    H242233   0.428   1.222   6.228  1.8557  1.6454 -1.3662
 6940TIP3   OH242234   6.133   0.211  14.950 -0.0891  0.2095 -0.0233
 6940TIP3    H142235   6.105   0.211  15.042 -2.3665  0.4055 -0.6462
 6940TIP3    H242236   6.063   0.258  14.904  0.7757 -0.2727 -1.9209
 6941TIP3   OH242237   5.747   4.753  17.061 -0.3431  0.2310  0.1810
 6941TIP3    H142238   5.703   4.730  17.143 -1.6684  0.4062 -0.4613
 6941TIP3    H242239   5.829   4.703  17.063 -0.1561  0.5467  1.7835
 6942TIP3   OH242240   2.894   0.831  11.362  0.4355 -0.2294  0.0927
 6942TIP3    H142241   2.958   0.883  11.409  1.8821  2.7765 -4.4847
 6942TIP3    H242242   2.938   0.748  11.342  1.0230 -0.1468  1.0323
 6943TIP3   OH242243   3.667   0.413   2.050  0.5746 -0.2192 -0.2617
 6943TIP3    H142244   3.644   0.367   2.131 -1.0395 -0.8510 -1.0358
 6943TIP3    H242245   3.591   0.401   1.994  2.6226 -2.0606 -2.8760
 6944TIP3   OH242246   5.104   3.893   1.539 -0.4719  0.7047  0.4446
 6944TIP3    H142247   5.085   3.979   1.576  1.8617  1.5088 -0.0608
 6944TIP3    H242248   5.198   3.882   1.551 -0.1929 -0.4525 -2.1672
 6945TIP3   OH242249   2.056   0.253  14.848  0.1803 -0.7609  0.0516
 6945TIP3    H142250   1.997   0.227  14.919 -0.1482  2.4401  1.1068
 6945TIP3    H242251   2.133   0.287  14.892  1.3760 -1.6492 -1.2671
 6946TIP3   OH242252   4.072   2.455   3.995  0.2972 -0.0812  0.1913
 6946TIP3    H142253   3.981   2.427   3.987  0.8772 -1.7873 -1.0442
 6946TIP3    H242254   4.079   2.531   3.936 -0.3267  0.0652  0.3012
 6947TIP3   OH242255   2.109   5.534   0.183 -0.5368 -0.0010  0.0037
 6947TIP3    H142256   2.176   5.518   0.117  0.1225 -1.5787  0.9819
 6947TIP3    H242257   2.136   5.615   0.226 -0.2111  0.2919 -0.7318
 6948TIP3   OH242258   4.646   6.289   5.189 -0.0375  1.0625  0.3738
 6948TIP3    H142259   4.673   6.236   5.264  0.8749  0.7989 -0.1333
 6948TIP3    H242260   4.562   6.251   5.161 -0.8486  1.7046  1.7833
 6949TIP3   OH242261   0.141   0.683   3.313 -0.4751  0.2304  0.2383
 6949TIP3    H142262   0.190   0.630   3.250  0.4944  1.0947  0.2487
 6949TIP3    H242263   0.154   0.637   3.396 -1.8171 -0.9522 -0.1524
 6950TIP3   OH242264   1.519   4.746  12.734  0.0814  0.0586 -0.2572
 6950TIP3    H142265   1.512   4.841  12.725  1.4691  0.1663 -0.4773
 6950TIP3    H242266   1.439   4.720  12.779 -1.0441  1.1306 -1.5681
 6951TIP3   OH242267   1.290   1.565  13.359 -0.0633  0.6701  0.0014
 6951TIP3    H142268   1.243   1.645  13.383  0.2936  0.7726  0.3784
 6951TIP3    H242269   1.242   1.495  13.404 -0.6948  0.6085 -0.7655
 6952TIP3   OH242270   4.097   2.711  12.243  0.2751 -0.1658 -0.6999
 6952TIP3    H142271   4.023   2.652  12.256  0.3678 -0.3388 -0.9561
 6952TIP3    H242272   4.167   2.654  12.212  0.4609  0.0285 -0.6370
 6953TIP3   OH242273   0.866   3.661  12.699  0.5392 -0.1562 -0.4146
 6953TIP3    H142274   0.885   3.755  12.697  1.5653 -0.3504 -0.4844
 6953TIP3    H242275   0.853   3.637  12.607 -0.3388  0.0223 -0.3474
 6954TIP3   OH242276   2.613   2.682  14.259 -0.2281  0.1278 -0.0080
 6954TIP3    H142277   2.606   2.732  14.340 -1.1309  1.3721 -0.8262
 6954TIP3    H242278   2.544   2.616  14.265 -0.2831  0.2062  0.2423
 6955TIP3   OH242279   2.644   0.765  14.413  0.3438 -0.2028  0.5390
 6955TIP3    H142280   2.614   0.767  14.504 -0.4469 -1.4603  0.3194
 6955TIP3    H242281   2.581   0.819  14.366 -0.4264 -1.1823  0.4193
 6956TIP3   OH242282   0.817   3.990  11.829 -0.3305  0.0701  0.0082
 6956TIP3    H142283   0.774   3.917  11.785 -1.2572  1.0218 -0.7335
 6956TIP3    H242284   0.875   4.027  11.762  0.2835 -0.1038  0.4395
 6957TIP3   OH242285   4.400   3.660   1.482  0.4124  0.0348 -0.1942
 6957TIP3    H142286   4.377   3.573   1.513  0.0266  0.0226 -0.5028
 6957TIP3    H242287   4.319   3.711   1.492  0.1402 -0.0881 -1.5737
 6958TIP3   OH242288   4.361   6.702   5.454  0.7981  0.6360 -0.1803
 6958TIP3    H142289   4.435   6.697   5.393  1.2743 -1.4936  0.4852
 6958TIP3    H242290   4.401   6.702   5.540  0.0410 -0.1000  0.1859
 6959TIP3   OH242291   0.842   0.887   2.007  0.0511  0.8233 -0.3831
 6959TIP3    H142292   0.792   0.958   1.966 -1.9291 -0.2880  0.0030
 6959TIP3    H242293   0.780   0.843   2.064  1.6050 -0.3988  0.4514
 6960TIP3   OH242294   6.115   1.714   5.063  0.2190 -0.3136  0.1367
 6960TIP3    H142295   6.168   1.640   5.033  1.1848 -0.4695  2.0999
 6960TIP3    H242296   6.138   1.785   5.002  0.8568 -1.0450 -0.5036
 6961TIP3   OH242297   3.886   3.271   2.668 -0.2603  0.0089  0.4685
 6961TIP3    H142298   3.949   3.199   2.658  2.0484  1.8541  0.8081
 6961TIP3    H242299   3.872   3.277   2.763  1.9104  1.8155  0.7369
 6962TIP3   OH242300   6.624   2.497  13.107  0.6070  0.2711  0.5131
 6962TIP3    H142301   6.709   2.453  13.108 -0.0262 -1.0237 -0.2051
 6962TIP3    H242302   6.627   2.555  13.183  2.6640  1.3407 -0.3094
 6963TIP3   OH242303   0.902   2.601  11.408 -0.1804  0.3078  0.3125
 6963TIP3    H142304   0.817   2.573  11.440 -0.4126  1.5710  0.8755
 6963TIP3    H242305   0.964   2.573  11.477 -0.0743 -0.9594 -0.2847
 6964TIP3   OH242306   3.790   2.315   1.189  0.1485  0.0857  0.1023
 6964TIP3    H142307   3.811   2.346   1.101 -1.0072  0.6753  0.0188
 6964TIP3    H242308   3.779   2.395   1.241  1.2111 -0.2544  0.8959
 6965TIP3   OH242309   2.845   4.560  14.810 -0.5797 -0.2568  0.2417
 6965TIP3    H142310   2.897   4.498  14.758 -0.3660 -0.1613  0.3404
 6965TIP3    H242311   2.768   4.510  14.836 -0.0766 -0.6965  0.9068
 6966TIP3   OH242312   1.918   3.301  16.448  0.3809  0.6333 -0.7256
 6966TIP3    H142313   1.954   3.221  16.486  2.8220  1.0431 -1.9757
 6966TIP3    H242314   1.862   3.337  16.516 -1.1838 -2.3280 -0.2798
 6967TIP3   OH242315   2.164   5.992  16.589 -0.3513  0.4834 -0.2681
 6967TIP3    H142316   2.141   5.903  16.616  0.9944  0.1128 -0.2730
 6967TIP3    H242317   2.230   6.020  16.652  0.9257  0.5872 -1.6052
 6968TIP3   OH242318   2.381   0.139  16.990 -0.1890 -0.4052  0.1658
 6968TIP3    H142319   2.355   0.047  16.983 -1.4523  0.0270 -1.5206
 6968TIP3    H242320   2.299   0.187  17.004  0.5690  0.4003  2.1361
 6969TIP3   OH242321   5.343   5.372  12.631 -0.1131 -0.3085 -0.1782
 6969TIP3    H142322   5.397   5.294  12.639  0.9262  0.5250  1.5792
 6969TIP3    H242323   5.280   5.365  12.702  0.6894  0.9361  0.6960
 6970TIP3   OH242324   4.318   6.126   0.229 -0.4142 -0.0179  0.0563
 6970TIP3    H142325   4.271   6.196   0.183  1.1036  1.2840  0.3994
 6970TIP3    H242326   4.369   6.084   0.160 -1.1679 -0.6740 -0.1131
 6971TIP3   OH242327   2.281   6.732  13.984  0.4898 -0.3797 -0.4068
 6971TIP3    H142328   2.234   6.787  13.921  0.3607  0.3384  0.3054
 6971TIP3    H242329   2.211   6.690  14.035  0.5896  0.8437  0.7873
 6972TIP3   OH242330   4.168   1.100  11.728  0.1095 -0.2386  0.0592
 6972TIP3    H142331   4.258   1.074  11.706  0.6181  0.4677  1.2203
 6972TIP3    H242332   4.124   1.017  11.748  0.6430 -0.5489 -0.0098
 6973TIP3   OH242333   6.539   1.684  15.048 -0.0206  0.5225 -0.4872
 6973TIP3    H142334   6.546   1.777  15.069  0.6218  0.6192 -1.0814
 6973TIP3    H242335   6.601   1.641  15.106 -1.7488  0.1957  1.2303
 6974TIP3   OH242336   0.667   4.069   4.818 -0.3333 -0.8361 -0.0800
 6974TIP3    H142337   0.604   4.126   4.862  0.5718  0.7041 -0.6680
 6974TIP3    H242338   0.729   4.043   4.887  0.3412  0.5107 -0.1325
 6975TIP3   OH242339   4.295   1.138  12.473  0.0593  0.2915 -0.1092
 6975TIP3    H142340   4.365   1.102  12.418  0.2812  1.6177 -0.7313
 6975TIP3    H242341   4.341   1.184  12.543 -0.2243 -0.4593  0.5994
 6976TIP3   OH242342   4.996   5.774   5.658  0.8541  0.0376  0.5106
 6976TIP3    H142343   4.940   5.716   5.709  0.7167  1.0060  1.4942
 6976TIP3    H242344   4.998   5.855   5.707  1.1263  0.8541 -0.7902
 6977TIP3   OH242345   5.379   4.064  15.751 -0.4658  0.2938 -0.3552
 6977TIP3    H142346   5.342   3.993  15.698 -0.1474 -0.7504  0.7769
 6977TIP3    H242347   5.474   4.057  15.736 -0.3659 -0.0901  0.4368
 6978TIP3   OH242348   4.770   6.548  13.109 -0.1739 -0.0914  0.1756
 6978TIP3    H142349   4.729   6.597  13.181  0.0845 -0.6342  0.7060
 6978TIP3    H242350   4.698   6.499  13.069 -0.5276  1.1154 -0.6960
 6979TIP3   OH242351   2.530   4.091  11.290  0.1220  0.1463  0.3329
 6979TIP3    H142352   2.545   4.104  11.384  0.7551  1.1916  0.1003
 6979TIP3    H242353   2.503   4.177  11.258  0.3225 -0.0965 -0.5221
 6980TIP3   OH242354   3.711   0.976   0.912 -0.4266  0.2814 -0.4066
 6980TIP3    H142355   3.674   1.042   0.854 -0.1081 -0.1388 -1.0901
 6980TIP3    H242356   3.777   1.023   0.963 -2.9128  1.4789  2.0301
 6981TIP3   OH242357   6.494   0.288  12.672 -0.1932  0.5483 -0.0011
 6981TIP3    H142358   6.503   0.194  12.658  0.2155  0.2814  1.8658
 6981TIP3    H242359   6.452   0.320  12.592 -0.0865 -1.1631 -0.7798
 6982TIP3   OH242360   4.404   3.831   3.337  0.3316  0.2712 -0.1049
 6982TIP3    H142361   4.361   3.860   3.417  0.3112  0.5969 -0.2343
 6982TIP3    H242362   4.447   3.909   3.302  0.6564  0.0500 -0.2140
 6983TIP3   OH242363   2.823   6.110  15.442 -0.1680 -0.5161 -0.1512
 6983TIP3    H142364   2.850   6.158  15.364  1.5883 -2.2445 -0.6939
 6983TIP3    H242365   2.749   6.057  15.413 -0.7865  0.3232 -0.1070
 6984TIP3   OH242366   1.879   5.643  13.339 -0.5375 -0.2321  0.7122
 6984TIP3    H142367   1.881   5.624  13.245 -1.5337 -2.0905  1.0131
 6984TIP3    H242368   1.957   5.602  13.373  0.7039  1.8372  0.5309
 6985TIP3   OH242369   3.036   3.125   4.502 -0.2952  0.2998 -0.1710
 6985TIP3    H142370   3.034   3.163   4.590 -0.7116  1.0384 -0.4882
 6985TIP3    H242371   2.955   3.073   4.497  0.6411 -1.2961  0.5308
 6986TIP3   OH242372   3.034   5.587   2.998 -0.3249  0.3730  0.2104
 6986TIP3    H142373   2.968   5.622   2.938 -1.7108 -0.3844  1.2362
 6986TIP3    H242374   2.987   5.570   3.079  0.8967 -1.1603  0.6588
 6987TIP3   OH242375   0.257   5.770  13.105 -0.6271  0.1608  0.4930
 6987TIP3    H142376   0.230   5.754  13.015  2.1644 -0.0154 -0.3983
 6987TIP3    H242377   0.227   5.859  13.124  1.1768  1.3407 -1.6879
 6988TIP3   OH242378   3.350   3.253  13.282  0.6235  0.2487 -0.1592
 6988TIP3    H142379   3.400   3.245  13.363  0.0601  0.6167  0.2348
 6988TIP3    H242380   3.293   3.329  13.296 -0.2371 -0.3148 -0.4849
 6989TIP3   OH242381   6.729   3.019   5.834  0.3403 -0.5544 -0.1887
 6989TIP3    H142382   6.738   2.931   5.799  1.2566 -1.3813  1.9499
 6989TIP3    H242383   6.815   3.040   5.869  0.1114  1.1714 -0.5615
 6990TIP3   OH242384   6.373   0.320   4.525 -0.1247 -0.1883  0.3171
 6990TIP3    H142385   6.292   0.349   4.484  1.9450  1.3747 -3.0644
 6990TIP3    H242386   6.381   0.374   4.603 -1.9165  0.1293  0.3246
 6991TIP3   OH242387   0.481   1.709   6.178 -0.0573  0.5003  0.0231
 6991TIP3    H142388   0.434   1.663   6.248 -2.3041  0.0966 -1.6213
 6991TIP3    H242389   0.562   1.659   6.166 -1.8013 -2.4114 -0.7984
 6992TIP3   OH242390   4.634   3.710   3.433 -0.1612 -0.3888  0.2740
 6992TIP3    H142391   4.548   3.745   3.411  0.5808  1.5202  0.2692
 6992TIP3    H242392   4.615   3.630   3.482 -1.9103 -0.5357 -0.5686
 6993TIP3   OH242393   6.137   4.129  15.941  0.2480 -0.1043  0.2662
 6993TIP3    H142394   6.105   4.119  15.852 -0.2476  0.4889  0.3682
 6993TIP3    H242395   6.207   4.064  15.949  0.3300 -0.1306 -0.5637
 6994TIP3   OH242396   3.555   3.310   5.412 -0.0784  0.2511  0.1222
 6994TIP3    H142397   3.599   3.270   5.487 -0.7926  0.0341  0.4302
 6994TIP3    H242398   3.591   3.265   5.336 -0.3021 -0.4374  0.4171
 6995TIP3   OH242399   5.812   0.515  13.713  0.1999 -0.0268  0.0140
 6995TIP3    H142400   5.720   0.491  13.727  0.3154 -0.1602  0.5425
 6995TIP3    H242401   5.809   0.578  13.641 -0.2329 -0.6415 -0.5201
 6996TIP3   OH242402   4.583   4.021  14.207  0.0814  0.7762  0.0820
 6996TIP3    H142403   4.677   4.035  14.195  0.1378 -0.2974 -0.8413
 6996TIP3    H242404   4.547   4.023  14.119 -0.4339 -0.9563  0.2108
 6997TIP3   OH242405   2.886   1.409  11.900  0.1515 -0.0099  0.0025
 6997TIP3    H142406   2.928   1.354  11.966 -0.8448  0.4870  1.0936
 6997TIP3    H242407   2.816   1.455  11.947  1.1447  2.4729 -0.7583
 6998TIP3   OH242408   6.653   0.564  12.935 -0.0792 -0.1422 -0.4204
 6998TIP3    H142409   6.663   0.590  12.844 -0.2528 -1.9094 -0.9789
 6998TIP3    H242410   6.581   0.500  12.934  0.7892 -1.1866  0.7267
 6999TIP3   OH242411   3.767   6.168   3.778 -0.6143  0.5984 -0.2563
 6999TIP3    H142412   3.815   6.230   3.723 -1.2766 -0.3379 -1.9477
 6999TIP3    H242413   3.718   6.114   3.716 -0.3870 -1.3528  1.1829
 7000TIP3   OH242414   0.916   0.304   0.328  0.3048  0.3255  0.0663
 7000TIP3    H142415   0.924   0.216   0.365 -0.0828 -0.6592 -1.9970
 7000TIP3    H242416   1.005   0.328   0.302  0.4530  0.6744  0.8799
 7001TIP3   OH242417   3.075   4.026  15.089  0.1555  0.3022 -0.1207
 7001TIP3    H142418   3.148   3.977  15.126 -1.2131 -0.3629  1.8730
 7001TIP3    H242419   3.080   4.009  14.994  0.8205 -2.2098  0.2843
 7002TIP3   OH242420   0.281   6.282   5.979  0.3622 -0.1418  0.3437
 7002TIP3    H142421   0.193   6.250   5.996  0.4869 -0.9785 -0.5391
 7002TIP3    H242422   0.308   6.322   6.062 -1.5582  1.8834  0.0772
 7003TIP3   OH242423   5.709   4.584   1.778  0.5768 -0.0671 -0.6574
 7003TIP3    H142424   5.676   4.607   1.866  3.7730  0.5374  0.5058
 7003TIP3    H242425   5.642   4.526   1.742 -0.3606 -1.2220  2.6186
 7004TIP3   OH242426   0.121   5.437  14.586 -0.1948  0.2429 -1.2544
 7004TIP3    H142427   0.076   5.516  14.554  0.6317  0.3967 -2.0419
 7004TIP3    H242428   0.201   5.470  14.626  0.3370 -0.2349 -1.9224
 7005TIP3   OH242429   3.894   2.352   3.685 -0.4451 -0.2950 -0.8110
 7005TIP3    H142430   3.883   2.344   3.590 -0.3787 -1.5259 -0.7378
 7005TIP3    H242431   3.982   2.318   3.701 -0.8610 -1.1357 -0.2084
 7006TIP3   OH242432   5.991   5.664  11.311 -0.2314 -0.0901  0.8694
 7006TIP3    H142433   5.914   5.719  11.295  0.1605  0.6872  1.5333
 7006TIP3    H242434   6.056   5.725  11.345  0.0296 -1.0718  2.1940
 7007TIP3   OH242435   3.385   2.459   1.514  0.1026  0.1910  0.1503
 7007TIP3    H142436   3.346   2.543   1.490 -2.2589 -1.0632 -0.7472
 7007TIP3    H242437   3.383   2.408   1.433  0.3122 -1.1580  0.9609
 7008TIP3   OH242438   0.092   5.394   5.918  0.1564 -0.0527 -0.1951
 7008TIP3    H142439   0.178   5.428   5.893  0.4687  0.2319  1.1482
 7008TIP3    H242440   0.097   5.300   5.899  0.2937  0.1759 -1.3300
 7009TIP3   OH242441   1.258   3.626  15.109 -0.0058 -0.1155  0.6048
 7009TIP3    H142442   1.206   3.673  15.175 -1.8653 -1.2929  0.0549
 7009TIP3    H242443   1.221   3.538  15.107 -0.7764  0.1571 -2.7593
 7010TIP3   OH242444   3.796   3.788  13.238 -0.7492  0.2865  0.0548
 7010TIP3    H142445   3.781   3.727  13.166 -1.6352 -0.9203  1.2137
 7010TIP3    H242446   3.798   3.875  13.197 -0.1243 -0.4485 -1.5384
 7011TIP3   OH242447   2.025   4.508   5.776  0.3338  0.3736 -0.9323
 7011TIP3    H142448   2.037   4.416   5.800  1.8201  0.4254 -1.4069
 7011TIP3    H242449   1.934   4.513   5.748  0.2754 -0.9990 -1.0936
 7012TIP3   OH242450   5.822   2.072   4.079 -0.0000 -0.3580  0.2205
 7012TIP3    H142451   5.867   1.999   4.122 -0.7213 -1.6286 -1.1015
 7012TIP3    H242452   5.878   2.094   4.004 -0.7725 -0.9272 -0.5447
 7013TIP3   OH242453   4.521   1.344   6.238 -0.3701  0.1251  0.1476
 7013TIP3    H142454   4.476   1.417   6.194 -1.0167 -0.4592 -0.1886
 7013TIP3    H242455   4.476   1.336   6.322 -0.5045 -0.0797  0.0566
 7014TIP3   OH242456   6.626   2.500   4.366  0.2670  0.2480 -0.0702
 7014TIP3    H142457   6.627   2.516   4.272  1.6122  1.9825  0.1882
 7014TIP3    H242458   6.538   2.524   4.394  0.2325  0.9006 -0.7134
 7015TIP3   OH242459   3.298   6.731   5.896 -0.4796  0.8859  0.1976
 7015TIP3    H142460   3.317   6.816   5.936  0.5943  1.3705 -1.2759
 7015TIP3    H242461   3.368   6.717   5.833  0.1579 -1.7551  1.3451
 7016TIP3   OH242462   3.976   6.327   5.842  0.0390 -0.2097  0.1069
 7016TIP3    H142463   3.963   6.408   5.792  0.7900  0.1616  0.4847
 7016TIP3    H242464   4.068   6.305   5.827 -0.2050 -1.1117 -0.1469
 7017TIP3   OH242465   1.184   1.229  16.552  0.4613  0.2143 -0.0231
 7017TIP3    H142466   1.107   1.227  16.495  0.2419 -0.3614  0.2819
 7017TIP3    H242467   1.258   1.213  16.493  0.1994 -0.7718 -0.1033
 7018TIP3   OH242468   3.020   6.528   3.262 -0.1175  0.0947  0.6447
 7018TIP3    H142469   2.935   6.549   3.301 -0.0905  0.7381  0.3586
 7018TIP3    H242470   3.004   6.448   3.213  0.2711 -1.9057  3.4944
 7019TIP3   OH242471   4.583   4.400   4.479 -0.1897 -0.4852  0.4178
 7019TIP3    H142472   4.577   4.405   4.574  0.9382  1.9732  0.4250
 7019TIP3    H242473   4.677   4.400   4.461 -0.3829 -1.5477 -0.7043
 7020TIP3   OH242474   1.512   3.918  14.755 -0.1535 -0.1798 -0.1341
 7020TIP3    H142475   1.580   3.862  14.794  1.1853  1.7759  0.5217
 7020TIP3    H242476   1.444   3.922  14.822  0.5408  0.3219  0.5772
 7021TIP3   OH242477   0.749   3.373  14.719  0.2400 -0.3236  0.3207
 7021TIP3    H142478   0.694   3.311  14.672 -0.4296 -0.1639  0.8769
 7021TIP3    H242479   0.766   3.330  14.803 -1.1337  0.6804  1.1541
 7022TIP3   OH242480   0.114   3.073   1.182  0.1818 -0.3490  0.2547
 7022TIP3    H142481   0.076   3.098   1.098 -0.0596  1.9633  0.9999
 7022TIP3    H242482   0.072   2.989   1.203  0.3849 -1.0869 -1.9760
 7023TIP3   OH242483   6.733   2.829   4.077  0.4322 -0.0049  0.3815
 7023TIP3    H142484   6.763   2.893   4.142  2.9238  1.4604 -2.0004
 7023TIP3    H242485   6.660   2.872   4.033  0.1162 -0.1157  0.7883
 7024TIP3   OH242486   0.852   6.610   2.014 -0.2193  0.8517 -0.0109
 7024TIP3    H142487   0.809   6.619   1.929  0.7403  4.2265 -0.2681
 7024TIP3    H242488   0.944   6.598   1.994 -0.2844 -0.8949  0.5876
 7025TIP3   OH242489   3.689   1.255   5.385 -0.0608 -0.3193  0.4545
 7025TIP3    H142490   3.682   1.309   5.464  2.1074  1.6847 -0.6187
 7025TIP3    H242491   3.628   1.294   5.323 -1.1059 -1.3503  0.7934
 7026TIP3   OH242492   5.128   1.512  16.965  0.1233 -0.1101 -0.0717
 7026TIP3    H142493   5.205   1.457  16.974  1.4269  1.3813 -1.4753
 7026TIP3    H242494   5.095   1.522  17.055  0.9535 -1.5566  0.4293
 7027TIP3   OH242495   4.934   4.827   5.011  0.1416  0.5786 -0.4639
 7027TIP3    H142496   4.926   4.732   5.002 -1.1608  0.4794  1.1678
 7027TIP3    H242497   4.874   4.862   4.946  0.0011  0.2563 -0.5122
 7028TIP3   OH242498   4.518   3.451  11.071  0.0329  0.6776 -0.4939
 7028TIP3    H142499   4.470   3.408  11.142  0.1180 -0.8199 -1.3067
 7028TIP3    H242500   4.474   3.535  11.060 -0.3750  0.6789  0.8946
 7029TIP3   OH242501   4.169   5.816   6.165  0.5683 -0.5877 -0.0527
 7029TIP3    H142502   4.244   5.848   6.216 -0.4161 -0.2254  1.2010
 7029TIP3    H242503   4.111   5.777   6.230 -0.3010 -0.9442 -1.0244
 7030TIP3   OH242504   2.287   2.479   5.665 -0.0176 -0.0409  0.2095
 7030TIP3    H142505   2.283   2.440   5.577  2.8622 -2.1243  0.8400
 7030TIP3    H242506   2.314   2.569   5.649 -2.5371  0.5944 -1.0952
 7031TIP3   OH242507   5.339   0.079   4.430  0.3023  0.3350 -0.4911
 7031TIP3    H142508   5.394   0.094   4.353  0.2870 -0.9935 -0.7836
 7031TIP3    H242509   5.401   0.055   4.500  0.4351  2.7149  0.2791
 7032TIP3   OH242510   6.658   5.836   3.481  0.3455 -0.1000 -0.1630
 7032TIP3    H142511   6.564   5.822   3.470  0.2403 -1.1278  1.6760
 7032TIP3    H242512   6.675   5.816   3.573  1.9586  2.4264  0.2121
 7033TIP3   OH242513   1.897   1.546  15.436 -0.8239 -0.2667 -0.1645
 7033TIP3    H142514   1.858   1.478  15.382 -0.5038  0.5377 -1.4606
 7033TIP3    H242515   1.981   1.565  15.393 -0.5171  0.3244  0.6746
 7034TIP3   OH242516   5.305   1.479  15.394 -0.2359 -0.1105  0.2258
 7034TIP3    H142517   5.314   1.535  15.471  1.3994  0.2081 -0.1520
 7034TIP3    H242518   5.227   1.512  15.350 -1.1407 -0.2370  1.6795
 7035TIP3   OH242519   6.020   2.626  12.955  0.3719  0.3953 -1.1288
 7035TIP3    H142520   5.980   2.644  13.040  1.8482  2.7822 -0.8233
 7035TIP3    H242521   5.977   2.687  12.895  2.3875  1.9865 -1.0776
 7036TIP3   OH242522   3.938   2.764  15.645  0.1938  0.1536 -0.4104
 7036TIP3    H142523   3.898   2.812  15.573 -1.4282  1.1519  1.1037
 7036TIP3    H242524   3.865   2.732  15.697  1.3112 -1.2624  0.3653
 7037TIP3   OH242525   1.448   3.495   3.368 -0.1202  0.6482 -0.3442
 7037TIP3    H142526   1.525   3.511   3.422 -0.2829  0.1555  0.0472
 7037TIP3    H242527   1.376   3.484   3.430 -0.1472 -0.8189 -0.5901
 7038TIP3   OH242528   4.596   3.454   2.518 -0.2014  0.0960  0.1117
 7038TIP3    H142529   4.504   3.482   2.513 -0.2792 -0.0349  0.7280
 7038TIP3    H242530   4.637   3.492   2.440 -0.2482  2.1021  1.0190
 7039TIP3   OH242531   0.896   5.160  13.176 -0.3547  0.3440  0.4866
 7039TIP3    H142532   0.843   5.083  13.155  1.1276  0.2793 -4.0118
 7039TIP3    H242533   0.847   5.233  13.139 -0.0945  1.1407  1.6703
 7040TIP3   OH242534   0.875   0.567  15.330 -0.6489 -0.3855 -0.5227
 7040TIP3    H142535   0.899   0.652  15.367 -0.6131 -0.3696 -0.5843
 7040TIP3    H242536   0.805   0.535  15.388 -1.4123  0.1678 -1.1133
 7041TIP3   OH242537   1.057   5.170  12.824 -0.1387  0.4592  0.1065
 7041TIP3    H142538   1.131   5.110  12.811 -1.5754 -1.2124 -0.8095
 7041TIP3    H242539   1.097   5.250  12.859  1.8819 -0.9721  1.3136
 7042TIP3   OH242540   0.801   5.625  16.780 -0.0828  0.0709 -0.9797
 7042TIP3    H142541   0.785   5.545  16.730 -0.8436 -0.9369  0.7953
 7042TIP3    H242542   0.882   5.607  16.828 -1.2783 -0.4571  0.9235
 7043TIP3   OH242543   4.305   6.097   6.745 -0.1424 -0.0277  0.5402
 7043TIP3    H142544   4.282   6.099   6.652 -0.0942 -1.7625  0.4486
 7043TIP3    H242545   4.333   6.186   6.765  1.4686  0.0112 -1.5425
 7044TIP3   OH242546   2.994   5.470  16.794 -0.1504  0.2512  0.4209
 7044TIP3    H142547   2.906   5.495  16.821 -0.6487 -1.0105  0.0379
 7044TIP3    H242548   3.052   5.518  16.854 -1.1131  0.5524  1.1397
 7045TIP3   OH242549   2.415   4.353  11.191 -0.3968 -0.1322  0.0109
 7045TIP3    H142550   2.386   4.405  11.266  0.1367  0.0609  0.0904
 7045TIP3    H242551   2.500   4.391  11.167  0.3913 -1.4787  0.5609
 7046TIP3   OH242552   0.333   2.970  17.053 -0.2014  0.0674 -0.1205
 7046TIP3    H142553   0.393   2.898  17.034 -1.5950 -0.7598 -1.6163
 7046TIP3    H242554   0.278   2.977  16.975 -1.1734  1.6816  0.6563
 7047TIP3   OH242555   6.522   5.479  16.555 -0.0370 -0.2198 -0.2050
 7047TIP3    H142556   6.527   5.399  16.607 -0.9723 -0.1636 -0.0026
 7047TIP3    H242557   6.483   5.451  16.472  2.5620 -0.5336 -1.4118
 7048TIP3   OH242558   3.377   4.947  13.507 -0.1253  0.2414  0.1700
 7048TIP3    H142559   3.431   5.023  13.484  0.3676  0.5444  2.1337
 7048TIP3    H242560   3.287   4.980  13.508  0.1440  1.0079  1.6439
 7049TIP3   OH242561   5.984   5.544   5.989 -0.4379 -0.1088  0.1878
 7049TIP3    H142562   6.025   5.466   5.952  0.2982  0.3129  0.1003
 7049TIP3    H242563   5.913   5.510   6.044  1.7357 -1.0346  2.5952
 7050TIP3   OH242564   6.593   5.955  14.667  0.1598 -0.7088  0.0953
 7050TIP3    H142565   6.621   6.042  14.637  1.0787 -1.2783 -0.7413
 7050TIP3    H242566   6.614   5.897  14.594  0.8288 -1.8575  1.1800
 7051TIP3   OH242567   5.888   1.167   1.874  0.3462  0.4128  0.0808
 7051TIP3    H142568   5.967   1.124   1.909 -0.7159  0.1916  2.3919
 7051TIP3    H242569   5.852   1.215   1.949 -2.3814 -0.4863 -0.5571
 7052TIP3   OH242570   0.336   6.800   5.295 -0.5416  0.2136 -0.0971
 7052TIP3    H142571   0.331   6.749   5.214  1.3215  2.3193 -1.6503
 7052TIP3    H242572   0.388   6.746   5.354  2.2151  0.5224 -2.0195
 7053TIP3   OH242573   0.254   4.875  11.805 -0.3433  0.2812 -0.1232
 7053TIP3    H142574   0.185   4.891  11.869 -0.0592 -3.8255  1.5440
 7053TIP3    H242575   0.331   4.918  11.841 -1.0557  1.2876  0.2334
 7054TIP3   OH242576   4.127   6.493   1.078 -0.3708  0.3979  0.3366
 7054TIP3    H142577   4.213   6.513   1.042  1.0447 -1.3952  2.4021
 7054TIP3    H242578   4.122   6.545   1.159 -2.0143  1.7812 -0.5893
 7055TIP3   OH242579   3.813   3.617  13.475 -0.0465 -0.5003  0.1490
 7055TIP3    H142580   3.845   3.676  13.407  2.0877 -1.1857  0.4845
 7055TIP3    H242581   3.722   3.644  13.490  0.1778  1.1993 -1.2751
 7056TIP3   OH242582   4.799   0.821  15.188 -0.9242 -0.0238 -0.0703
 7056TIP3    H142583   4.831   0.762  15.256  0.4906 -0.6355 -1.2049
 7056TIP3    H242584   4.794   0.766  15.109  1.9916  1.5877 -1.5708
 7057TIP3   OH242585   3.913   4.531   4.950  0.9933  1.0595 -0.3309
 7057TIP3    H142586   3.943   4.499   4.865  0.2537  1.8868 -0.9188
 7057TIP3    H242587   3.966   4.609   4.966 -0.8508  2.6289 -1.4550
 7058TIP3   OH242588   4.601   3.008   2.654 -0.5283 -0.4915 -0.1773
 7058TIP3    H142589   4.648   3.079   2.610  1.3358 -1.5232  0.0216
 7058TIP3    H242590   4.628   2.929   2.606 -0.0383 -1.4048  1.5390
 7059TIP3   OH242591   6.308   0.710  16.159  0.2510 -0.0551  0.2391
 7059TIP3    H142592   6.378   0.658  16.199  0.8912  0.4372 -0.2021
 7059TIP3    H242593   6.266   0.754  16.232  0.5977 -0.1300  0.4878
 7060TIP3   OH242594   3.869   3.439  14.221  0.0448 -0.4801  0.4770
 7060TIP3    H142595   3.853   3.352  14.256 -2.2545 -0.4269 -0.2676
 7060TIP3    H242596   3.889   3.493  14.297 -1.6464 -1.0185  1.3304
 7061TIP3   OH242597   4.082   1.641  12.310 -0.3785 -0.6567 -0.4372
 7061TIP3    H142598   4.103   1.726  12.272  2.2704 -0.1179  1.8523
 7061TIP3    H242599   4.139   1.579  12.265 -1.4820 -1.0581 -1.3160
 7062TIP3   OH242600   2.122   4.901  13.399 -1.2024 -0.2000 -0.2565
 7062TIP3    H142601   2.119   4.992  13.368  1.0512 -0.4986 -1.5794
 7062TIP3    H242602   2.144   4.908  13.492 -1.0912  0.6179 -0.3365
 7063TIP3   OH242603   5.278   0.899  15.367 -0.1231  0.3957  0.3595
 7063TIP3    H142604   5.266   0.869  15.277 -0.3146 -1.0712  0.8451
 7063TIP3    H242605   5.190   0.916  15.400  0.0042  2.0243 -0.0507
 7064TIP3   OH242606   6.661   2.443   3.616 -0.1315 -0.4054 -0.6333
 7064TIP3    H142607   6.722   2.369   3.618 -0.6152 -0.8041  0.7951
 7064TIP3    H242608   6.586   2.411   3.566  0.3906 -0.2659 -1.5197
 7065TIP3   OH242609   1.177   0.556  10.423 -0.2046  0.7257  0.1476
 7065TIP3    H142610   1.265   0.521  10.414 -0.8235 -0.7735 -0.4088
 7065TIP3    H242611   1.185   0.649  10.401  1.3915  0.8325  1.0886
 7066TIP3   OH242612   3.156   3.669  15.221  0.0673 -0.0228 -0.7316
 7066TIP3    H142613   3.064   3.662  15.196 -0.2869 -0.0692  0.5341
 7066TIP3    H242614   3.179   3.581  15.250  0.7395 -0.1983 -1.7502
 7067TIP3   OH242615   5.339   2.640  17.109  0.1165 -0.1143 -0.1218
 7067TIP3    H142616   5.296   2.570  17.159 -0.4219  0.9550  0.9702
 7067TIP3    H242617   5.422   2.654  17.155  0.3878 -0.2754 -0.5563
 7068TIP3   OH242618   4.388   4.451   3.305 -0.3046 -0.0853 -0.3216
 7068TIP3    H142619   4.342   4.507   3.367 -1.1584 -0.2022 -0.8262
 7068TIP3    H242620   4.392   4.503   3.224  1.2295  0.2603 -0.0452
 7069TIP3   OH242621   0.896   2.148  13.137 -0.0573 -0.6070 -0.2686
 7069TIP3    H142622   0.804   2.134  13.160 -0.1099  2.1016  1.6812
 7069TIP3    H242623   0.898   2.145  13.042 -2.0938 -1.1394 -0.3291
 7070TIP3   OH242624   4.739   4.640  13.455  0.3465  0.1262 -0.4915
 7070TIP3    H142625   4.737   4.736  13.463 -0.6828  0.0108  0.9131
 7070TIP3    H242626   4.673   4.621  13.388  1.0639  0.4149 -1.3091
 7071TIP3   OH242627   6.032   1.969  12.166 -0.2075  0.7279 -0.2010
 7071TIP3    H142628   6.051   1.977  12.260  0.2328 -0.3786 -0.1789
 7071TIP3    H242629   6.091   1.900  12.136 -2.1563 -0.8129 -0.7222
 7072TIP3   OH242630   2.644   4.862  10.632  0.1792 -0.0986  0.0059
 7072TIP3    H142631   2.703   4.794  10.664  2.4211  1.7778  0.0982
 7072TIP3    H242632   2.682   4.889  10.548 -0.5833  1.1352  0.0402
 7073TIP3   OH242633   5.497   1.395   5.560  0.1117  0.5276  0.4471
 7073TIP3    H142634   5.590   1.376   5.552 -0.0135 -0.2860  0.7947
 7073TIP3    H242635   5.458   1.311   5.585 -0.7818  0.7387 -0.2019
 7074TIP3   OH242636   5.613   4.066  16.896 -0.2037  0.1177 -0.1001
 7074TIP3    H142637   5.565   4.006  16.839  0.4665 -0.6006  0.0761
 7074TIP3    H242638   5.609   4.026  16.983  1.8128 -0.6703 -0.3110
 7075TIP3   OH242639   3.920   2.989   5.126  0.0438  0.2788  0.4290
 7075TIP3    H142640   3.956   3.026   5.206 -0.1973  0.7281  0.3299
 7075TIP3    H242641   3.859   2.922   5.156 -0.9788  1.2846  0.6583
 7076TIP3   OH242642   5.895   4.306   2.353 -0.2307  0.1867  0.1243
 7076TIP3    H142643   5.825   4.351   2.307 -1.0506  0.8467  1.9369
 7076TIP3    H242644   5.904   4.222   2.307 -1.9052  0.2658 -0.4129
 7077TIP3   OH242645   3.527   2.530   3.238  0.1660  0.0998 -0.6507
 7077TIP3    H142646   3.514   2.437   3.253  1.5476  0.0386  0.4083
 7077TIP3    H242647   3.576   2.535   3.156  1.9087 -0.2732  0.3214
 7078TIP3   OH242648   2.619   5.596   3.255 -0.8329 -0.0376  0.0927
 7078TIP3    H142649   2.561   5.558   3.320 -1.3176 -1.0808 -0.9207
 7078TIP3    H242650   2.707   5.585   3.291 -1.2174  2.1149  1.9254
 7079TIP3   OH242651   1.250   4.375  14.825 -0.5006  0.0260  0.1312
 7079TIP3    H142652   1.166   4.347  14.861  0.0259 -0.6090  0.9196
 7079TIP3    H242653   1.265   4.317  14.750 -1.0670  0.5836 -0.4215
 7080TIP3   OH242654   2.507   2.668   1.838  0.4514 -0.0513  0.1875
 7080TIP3    H142655   2.470   2.752   1.862 -2.0572 -0.8633 -0.5828
 7080TIP3    H242656   2.465   2.605   1.897 -1.4474 -1.3115 -2.3169
 7081TIP3   OH242657   4.893   2.442  12.654 -0.0321 -0.1836  0.3052
 7081TIP3    H142658   4.874   2.349  12.639  2.5266 -0.6900 -0.4130
 7081TIP3    H242659   4.843   2.488  12.587 -0.4742 -1.1523 -0.0478
 7082TIP3   OH242660   4.332   1.220  16.098 -0.3273  0.6353 -0.9393
 7082TIP3    H142661   4.350   1.156  16.167  1.2510  1.3402 -0.6410
 7082TIP3    H242662   4.242   1.202  16.072  0.2582 -2.2017 -1.4022
 7083TIP3   OH242663   1.427   3.719  14.206 -0.2067  0.2858  0.4503
 7083TIP3    H142664   1.464   3.631  14.214 -0.5199  0.2505  1.6524
 7083TIP3    H242665   1.426   3.753  14.295  1.4089  2.1641 -0.1807
 7084TIP3   OH242666   5.416   3.379  13.630 -0.2162  0.2390  0.2574
 7084TIP3    H142667   5.482   3.415  13.689  0.1969  1.9907 -1.1786
 7084TIP3    H242668   5.334   3.381  13.680  0.3606  0.3844  1.2057
 7085TIP3   OH242669   3.293   6.019  13.638  0.1011 -0.1278 -0.3387
 7085TIP3    H142670   3.347   6.099  13.640 -0.1476  0.0424 -0.4495
 7085TIP3    H242671   3.311   5.978  13.723  0.4269 -0.0856 -0.3827
 7086TIP3   OH242672   2.391   3.687   4.058 -0.4594  0.1160 -0.3566
 7086TIP3    H142673   2.481   3.720   4.051  0.1685 -1.3891  0.1217
 7086TIP3    H242674   2.387   3.616   3.994 -1.4129  0.3833 -0.6003
 7087TIP3   OH242675   3.070   1.516  13.532 -0.0548  0.0781 -0.0756
 7087TIP3    H142676   3.046   1.560  13.613  1.0974 -0.1660  0.4154
 7087TIP3    H242677   3.022   1.434  13.534 -1.6923  0.9703 -0.6753
 7088TIP3   OH242678   6.218   4.676  10.549  0.5610  0.4593 -0.6209
 7088TIP3    H142679   6.269   4.703  10.625 -0.2274 -0.1486  0.1456
 7088TIP3    H242680   6.159   4.609  10.582 -1.6470  2.0163 -1.1377
 7089TIP3   OH242681   1.666   3.005   4.091  0.1095 -0.2347  0.3693
 7089TIP3    H142682   1.649   3.080   4.149 -0.8855  0.8334 -1.2095
 7089TIP3    H242683   1.757   2.981   4.109  2.1690  4.2799 -2.1056
 7090TIP3   OH242684   3.870   5.458   1.361 -0.5445 -0.3051 -0.3102
 7090TIP3    H142685   3.808   5.386   1.354 -0.9640  0.1431 -1.5343
 7090TIP3    H242686   3.883   5.470   1.455  0.1369 -2.4564 -0.0796
 7091TIP3   OH242687   4.402   5.501  11.868  0.0960  0.2320 -0.3556
 7091TIP3    H142688   4.399   5.584  11.821  3.9346  0.8516  0.1319
 7091TIP3    H242689   4.437   5.439  11.804 -0.3081 -0.3759  0.0079
 7092TIP3   OH242690   6.523   0.579   5.195 -0.1120 -0.4193  0.2775
 7092TIP3    H142691   6.617   0.559   5.194 -0.2648 -1.2631 -1.6717
 7092TIP3    H242692   6.517   0.670   5.169  0.1702 -0.2614  0.7486
 7093TIP3   OH242693   0.165   0.378   4.340  0.5723  0.3320  0.4794
 7093TIP3    H142694   0.167   0.327   4.421  1.7004  1.3837  1.1447
 7093TIP3    H242695   0.210   0.324   4.275  1.1759  0.2013  1.0014
 7094TIP3   OH242696   0.376   5.036   1.684 -0.6683 -0.3284 -0.1244
 7094TIP3    H142697   0.326   5.066   1.759 -0.5948 -1.9218  0.6023
 7094TIP3    H242698   0.421   5.115   1.651  0.1073  0.2281  2.1036
 7095TIP3   OH242699   5.238   1.269   2.290  0.4379 -0.2647  0.2262
 7095TIP3    H142700   5.259   1.222   2.371 -1.0575 -1.4851 -0.0572
 7095TIP3    H242701   5.150   1.240   2.268 -0.0202  1.6806 -0.7072
 7096TIP3   OH242702   1.528   0.545   5.378 -0.1679  0.2699 -0.3696
 7096TIP3    H142703   1.622   0.561   5.367 -0.0899  0.8018  0.9244
 7096TIP3    H242704   1.520   0.450   5.380  0.3467  0.2218 -0.3923
 7097TIP3   OH242705   5.667   0.291  12.800  0.5054 -0.5081  0.2607
 7097TIP3    H142706   5.739   0.228  12.796 -0.9201 -2.2071 -0.3296
 7097TIP3    H242707   5.650   0.315  12.709 -0.8432 -1.6143  0.1777
 7098TIP3   OH242708   2.070   6.352   0.592  0.6013  0.5805  0.1887
 7098TIP3    H142709   2.116   6.394   0.519  1.2288 -0.0426  0.2108
 7098TIP3    H242710   2.140   6.319   0.648  0.1998 -1.8383 -0.5875
 7099TIP3   OH242711   0.045   4.955   6.286  0.3037  0.4136  0.8939
 7099TIP3    H142712   0.024   4.926   6.375 -3.6868  0.8946  0.2812
 7099TIP3    H242713   0.038   4.876   6.233 -0.6721  0.7050  0.5758
 7100TIP3   OH242714   1.942   1.183   1.498 -0.6422 -0.2616 -0.0009
 7100TIP3    H142715   2.018   1.161   1.552 -0.8945  1.6267  1.1816
 7100TIP3    H242716   1.928   1.104   1.445  1.6062 -0.9709  0.3426
 7101TIP3   OH242717   3.951   1.977   2.621  0.0975 -0.0190 -0.7268
 7101TIP3    H142718   4.000   1.944   2.697  1.4950 -1.2980 -2.0949
 7101TIP3    H242719   3.892   2.043   2.657  0.5860 -0.6940  1.4847
 7102TIP3   OH242720   3.705   4.186  13.802 -0.4483 -0.1938 -0.2111
 7102TIP3    H142721   3.757   4.187  13.722 -0.1270  0.5832 -0.0020
 7102TIP3    H242722   3.744   4.117  13.856  2.2086  2.1168  1.0993
 7103TIP3   OH242723   3.297   0.243   5.829 -0.2772 -0.4701 -0.1246
 7103TIP3    H142724   3.258   0.330   5.833  0.4589 -0.1205 -0.3733
 7103TIP3    H242725   3.367   0.244   5.894  3.4858  1.0793 -3.7589
 7104TIP3   OH242726   3.185   2.456   2.511 -0.0022  0.1353  0.5273
 7104TIP3    H142727   3.113   2.475   2.571  0.1077 -0.2853  0.7989
 7104TIP3    H242728   3.160   2.499   2.429 -0.5334  0.0407  0.6339
 7105TIP3   OH242729   2.009   4.646   0.408 -0.1986  0.4411 -0.1650
 7105TIP3    H142730   2.012   4.623   0.501 -0.6215 -2.2406 -0.7351
 7105TIP3    H242731   2.074   4.589   0.367 -0.5863  1.0117 -1.6237
 7106TIP3   OH242732   4.840   0.215   0.250 -0.4753  0.8208 -0.3614
 7106TIP3    H142733   4.867   0.252   0.166 -0.4306 -0.6882 -1.0530
 7106TIP3    H242734   4.756   0.173   0.231  0.3749 -1.1151 -0.1582
 7107TIP3   OH242735   1.580   5.405  14.606  0.2128 -0.0085 -0.5997
 7107TIP3    H142736   1.545   5.456  14.680 -0.2695  0.2662 -1.0087
 7107TIP3    H242737   1.535   5.320  14.612 -0.1770  0.1771 -0.8450
 7108TIP3   OH242738   1.181   1.315   5.342 -0.3329  0.2852  0.0691
 7108TIP3    H142739   1.138   1.338   5.424 -1.2418 -0.3669 -0.2169
 7108TIP3    H242740   1.171   1.221   5.335 -0.5136  0.3690 -0.9354
 7109TIP3   OH242741   6.007   2.098   3.834 -0.0012  0.2039 -0.5346
 7109TIP3    H142742   5.976   2.157   3.766  0.4910  1.9667  0.6868
 7109TIP3    H242743   6.091   2.135   3.861  0.5078 -1.2914  0.0263
 7110TIP3   OH242744   1.084   3.821   0.009  0.1972 -0.1941  0.4892
 7110TIP3    H142745   1.091   3.759   0.082  0.0651 -0.8692 -0.0665
 7110TIP3    H242746   1.008   3.874   0.030 -0.9394 -1.5613 -0.0234
 7111TIP3   OH242747   6.506   1.777  12.814  0.0209  0.1125 -0.6072
 7111TIP3    H142748   6.570   1.710  12.789 -1.0835 -1.2396  0.0035
 7111TIP3    H242749   6.544   1.819  12.892  0.4259 -0.2747 -0.5928
 7112TIP3   OH242750   6.533   0.415  14.685 -0.4516  0.1205 -0.0343
 7112TIP3    H142751   6.614   0.462  14.664 -2.3238  2.5311 -2.4575
 7112TIP3    H242752   6.563   0.336  14.730  3.0898  1.9255  1.1695
 7113TIP3   OH242753   2.969   2.414   3.987  0.0778  0.2924  0.5135
 7113TIP3    H142754   2.924   2.468   4.052  0.1487 -0.8695  1.5867
 7113TIP3    H242755   3.060   2.446   3.988 -0.0697  0.7137  0.5097
 7114TIP3   OH242756   1.412   3.419  12.173  0.1501  0.3936 -0.0615
 7114TIP3    H142757   1.437   3.388  12.086  2.3220  0.3623  0.5227
 7114TIP3    H242758   1.364   3.501  12.156  2.8666  1.8535 -1.2459
 7115TIP3   OH242759   0.117   0.563  13.035 -0.5924  0.9254 -0.2432
 7115TIP3    H142760   0.161   0.530  12.957  0.2186  1.3784  0.0092
 7115TIP3    H242761   0.024   0.561  13.013 -0.4412  0.0816 -0.8412
 7116TIP3   OH242762   4.839   6.597  15.313  0.2323  0.5480 -0.3220
 7116TIP3    H142763   4.756   6.608  15.267  0.7907  0.0633 -1.4932
 7116TIP3    H242764   4.838   6.507  15.344 -0.4046  1.0565  1.1837
 7117TIP3   OH242765   1.821   5.212   0.983  0.3095  0.1303 -0.3619
 7117TIP3    H142766   1.745   5.155   0.975  0.6757 -0.5838  0.8788
 7117TIP3    H242767   1.792   5.297   0.950 -1.6101  0.3465  1.6916
 7118TIP3   OH242768   2.514   2.256   3.960  0.6037  0.7531 -0.1342
 7118TIP3    H142769   2.440   2.230   3.904  1.2568  0.3649 -0.8217
 7118TIP3    H242770   2.473   2.279   4.044 -0.4064  1.4447 -0.7895
 7119TIP3   OH242771   3.625   1.668  13.021 -0.2299  0.1307  0.2995
 7119TIP3    H142772   3.674   1.748  13.039 -0.5408  0.2195  0.7680
 7119TIP3    H242773   3.589   1.680  12.933  0.3495  0.1854  0.0674
 7120TIP3   OH242774   0.069   3.538  12.563  0.1813 -0.1703  0.5020
 7120TIP3    H142775   0.045   3.628  12.538  0.1653 -0.6032 -1.1393
 7120TIP3    H242776   0.116   3.548  12.646 -0.7571  1.2393  0.9104
 7121TIP3   OH242777   0.595   3.371   4.385  0.5323 -0.7245  0.9155
 7121TIP3    H142778   0.563   3.301   4.328  1.7750  0.8912 -2.0231
 7121TIP3    H242779   0.516   3.414   4.417 -0.2790 -0.5462 -1.1751
 7122TIP3   OH242780   6.082   6.570   2.246 -0.1599  0.3945 -0.3542
 7122TIP3    H142781   6.125   6.650   2.276  2.3540 -0.6196 -1.0073
 7122TIP3    H242782   6.101   6.506   2.315 -0.0960 -0.2320 -0.9474
 7123TIP3   OH242783   4.204   5.437   1.796 -0.7926 -0.2661 -0.1802
 7123TIP3    H142784   4.287   5.472   1.764 -0.0603 -1.4081  0.3870
 7123TIP3    H242785   4.147   5.434   1.719 -0.5386  1.1349 -0.4417
 7124TIP3   OH242786   3.414   1.819   1.753 -1.2868  0.0121  0.0526
 7124TIP3    H142787   3.356   1.755   1.711  0.1370  0.0015 -2.0052
 7124TIP3    H242788   3.396   1.808   1.847 -2.2415 -2.2757 -0.3207
 7125TIP3   OH242789   0.320   4.990  15.034  0.1837  0.1987  0.4999
 7125TIP3    H142790   0.297   4.923  15.098 -0.6398 -0.0025  0.0071
 7125TIP3    H242791   0.347   4.940  14.957  1.3997  0.4355  0.7466
 7126TIP3   OH242792   0.086   2.926  16.757 -0.1349  0.1587  0.4104
 7126TIP3    H142793   0.063   2.950  16.847  0.3499  0.3283  0.4906
 7126TIP3    H242794   0.121   2.837  16.764  1.7402  0.8688  0.6940
 7127TIP3   OH242795   5.055   5.624  10.806 -0.7375  0.0191 -0.6149
 7127TIP3    H142796   5.119   5.693  10.794 -0.5008  0.0945  0.9151
 7127TIP3    H242797   5.002   5.626  10.726  0.4500  0.6871 -1.4143
 7128TIP3   OH242798   0.768   1.357   2.565  0.0590 -0.1554 -0.0503
 7128TIP3    H142799   0.703   1.378   2.631  0.7163  0.0631  0.5420
 7128TIP3    H242800   0.826   1.434   2.563  0.2520 -0.3087 -0.6220
 7129TIP3   OH242801   6.511   2.416  10.627  0.1292 -0.2300  0.1103
 7129TIP3    H142802   6.536   2.421  10.535 -0.1792  1.4907  0.0858
 7129TIP3    H242803   6.490   2.324  10.641  3.9386 -1.3350 -0.4922
 7130TIP3   OH242804   2.259   3.122  13.001 -0.0788 -0.1596 -0.1626
 7130TIP3    H142805   2.327   3.190  12.997  0.3519 -0.5882 -0.2324
 7130TIP3    H242806   2.306   3.044  13.032  0.0196 -1.1457 -2.6190
 7131TIP3   OH242807   0.105   2.258  15.876 -0.0073  0.0255  0.4428
 7131TIP3    H142808   0.130   2.205  15.800 -0.5603 -1.2108  1.1022
 7131TIP3    H242809   0.187   2.271  15.924  0.0336 -0.7357  0.5835
 7132TIP3   OH242810   3.630   6.570   4.359  0.1398 -0.5458 -0.1448
 7132TIP3    H142811   3.625   6.517   4.280  1.1966 -1.9129  0.6614
 7132TIP3    H242812   3.614   6.509   4.431  3.0097 -0.2113  0.9180
 7133TIP3   OH242813   5.663   5.462  15.311  0.2696 -0.0217 -0.0334
 7133TIP3    H142814   5.616   5.522  15.369 -0.2595 -0.5282  0.0722
 7133TIP3    H242815   5.645   5.495  15.223 -0.1729 -0.1299  0.0125
 7134TIP3   OH242816   6.288   1.570   4.030 -0.1971 -0.0663  0.2483
 7134TIP3    H142817   6.227   1.642   4.045  0.6859  1.0825 -1.3345
 7134TIP3    H242818   6.260   1.501   4.091 -0.8193  1.7360  2.1245
 7135TIP3   OH242819   6.477   2.269   4.188  0.2346 -0.3329 -0.1852
 7135TIP3    H142820   6.386   2.297   4.184  0.3637  0.0212 -0.8461
 7135TIP3    H242821   6.523   2.327   4.127  0.5024 -1.9764 -1.6386
 7136TIP3   OH242822   5.250   2.139   0.868  0.2699  0.0826 -0.0618
 7136TIP3    H142823   5.313   2.124   0.798  0.4268  1.0366 -0.1378
 7136TIP3    H242824   5.174   2.178   0.824 -0.5646 -1.4119 -0.0369
 7137TIP3   OH242825   0.901   1.318  12.123 -0.3785  0.1770 -0.4080
 7137TIP3    H142826   0.825   1.275  12.085  1.8685 -1.9765 -2.8536
 7137TIP3    H242827   0.960   1.334  12.050  1.2094  2.5737  1.2381
 7138TIP3   OH242828   0.134   1.794  14.293  0.2634 -0.0438 -0.5289
 7138TIP3    H142829   0.086   1.859  14.243  0.8115  0.3234 -0.5870
 7138TIP3    H242830   0.222   1.830  14.301  1.0157 -1.4820 -1.8899
 7139TIP3   OH242831   3.944   2.895  13.480 -0.0776 -0.7345  0.5907
 7139TIP3    H142832   3.865   2.842  13.490  0.3804 -1.6343 -0.3399
 7139TIP3    H242833   4.014   2.842  13.518  0.5032 -1.1579 -0.9868
 7140TIP3   OH242834   2.571   5.105  15.131 -0.2955 -0.0325 -0.5544
 7140TIP3    H142835   2.623   5.176  15.170 -0.2862 -1.0056  1.2984
 7140TIP3    H242836   2.520   5.069  15.203 -1.7571 -0.6827 -1.8545
 7141TIP3   OH242837   4.977   3.831  16.642  1.0887 -0.2612 -0.4586
 7141TIP3    H142838   5.012   3.757  16.692  0.5117 -1.0360 -1.1843
 7141TIP3    H242839   4.905   3.795  16.592 -3.2534  1.8546  3.5008
 7142TIP3   OH242840   5.927   1.741   0.158  0.5879  0.0964 -0.0333
 7142TIP3    H142841   5.919   1.709   0.069 -2.0328 -0.4612  0.3220
 7142TIP3    H242842   5.979   1.675   0.204  0.2078 -0.6572 -0.6783
 7143TIP3   OH242843   6.073   3.479   2.000  0.1629 -0.2175 -0.0051
 7143TIP3    H142844   6.154   3.494   1.952 -0.3441 -0.5544 -0.9888
 7143TIP3    H242845   6.004   3.510   1.942 -0.4891 -0.9572  0.3485
 7144TIP3   OH242846   6.791   4.585  11.673  0.2831 -0.1829 -0.2451
 7144TIP3    H142847   6.711   4.550  11.635  0.6318 -2.2040  0.7311
 7144TIP3    H242848   6.830   4.510  11.720  2.6733  0.7486 -0.5854
 7145TIP3   OH242849   5.093   5.405   5.682 -0.0072 -0.5759  0.2466
 7145TIP3    H142850   5.138   5.341   5.737 -1.8090 -0.4623  1.9582
 7145TIP3    H242851   5.001   5.400   5.709 -0.0871  3.6184  1.4752
 7146TIP3   OH242852   2.926   5.683  11.809  0.2276 -0.1321  0.1420
 7146TIP3    H142853   2.972   5.601  11.828 -0.4399 -0.6531 -0.3899
 7146TIP3    H242854   2.983   5.729  11.748  0.3195 -0.5051 -0.0590
 7147TIP3   OH242855   5.157   5.524  16.281 -0.7412  0.2201  0.3894
 7147TIP3    H142856   5.201   5.440  16.266 -2.3250 -0.5928  0.0885
 7147TIP3    H242857   5.188   5.552  16.367 -1.6688 -1.6841  1.4030
 7148TIP3   OH242858   2.384   2.353   2.812  0.5809  0.3804  0.5382
 7148TIP3    H142859   2.294   2.385   2.820 -0.6171 -1.5031 -2.9111
 7148TIP3    H242860   2.435   2.430   2.787 -0.2842  1.2470  1.3333
 7149TIP3   OH242861   4.476   1.380   3.826 -0.1493  0.1027 -0.1459
 7149TIP3    H142862   4.399   1.416   3.871  0.0793  1.3981 -0.7383
 7149TIP3    H242863   4.445   1.360   3.738 -0.2168 -0.9963  0.1125
 7150TIP3   OH242864   6.196   1.155  16.708 -0.1388  0.2493  0.5800
 7150TIP3    H142865   6.214   1.189  16.620  0.4283  1.9780  1.3262
 7150TIP3    H242866   6.126   1.090  16.694  0.7265 -0.3661 -1.2693
 7151TIP3   OH242867   3.237   4.206  11.901  0.0974 -0.3844  0.5421
 7151TIP3    H142868   3.298   4.277  11.921 -2.2975  3.3238 -3.6253
 7151TIP3    H242869   3.150   4.243  11.919 -1.2326 -2.8311 -0.4093
 7152TIP3   OH242870   1.893   1.317   6.172  0.1257 -0.3900  0.3291
 7152TIP3    H142871   1.851   1.295   6.255  1.7088 -0.6882  1.0962
 7152TIP3    H242872   1.920   1.233   6.136  1.4325 -0.1442  0.6511
 7153TIP3   OH242873   3.346   4.666  11.761 -0.2196 -0.0789 -0.0616
 7153TIP3    H142874   3.373   4.635  11.847 -0.6213 -0.6840 -0.1550
 7153TIP3    H242875   3.252   4.653  11.758 -0.4359  1.2952 -0.0494
 7154TIP3   OH242876   1.567   4.367   5.138  0.5607 -0.3955 -0.5452
 7154TIP3    H142877   1.593   4.288   5.090 -2.1945 -0.6140 -1.8540
 7154TIP3    H242878   1.510   4.335   5.208  1.1377  0.2906  0.2544
 7155TIP3   OH242879   4.013   0.160   0.687  0.4801 -0.0764 -0.3058
 7155TIP3    H142880   4.108   0.176   0.689  0.7139 -1.4056  0.1044
 7155TIP3    H242881   3.993   0.123   0.773 -0.1711 -1.0854 -0.8765
 7156TIP3   OH242882   6.043   6.774  12.225 -0.6953  0.0430  0.2853
 7156TIP3    H142883   5.983   6.782  12.299 -1.2001  0.1369 -0.1314
 7156TIP3    H242884   6.129   6.761  12.266 -0.9351  0.3067  0.8883
 7157TIP3   OH242885   0.427   3.960  11.707 -0.2563  0.7048 -0.6157
 7157TIP3    H142886   0.360   3.926  11.647 -0.4078 -0.2283  0.0566
 7157TIP3    H242887   0.378   4.013  11.770 -0.5237 -0.6418  0.3704
 7158TIP3   OH242888   4.929   0.692  15.389 -0.0650  0.5795 -0.2316
 7158TIP3    H142889   4.935   0.755  15.461  0.1172 -0.4265  0.6722
 7158TIP3    H242890   5.020   0.680  15.361 -0.0039  0.1616  0.1217
 7159TIP3   OH242891   5.980   5.952  16.425  0.2854  0.3278 -0.1494
 7159TIP3    H142892   5.937   6.011  16.487 -0.1001  0.3313 -0.4170
 7159TIP3    H242893   6.025   6.011  16.364 -0.1148  0.3553 -0.4269
 7160TIP3   OH242894   6.585   3.031   1.365  0.6391 -0.1516 -0.8515
 7160TIP3    H142895   6.632   2.989   1.437  0.4224 -1.7953 -1.6223
 7160TIP3    H242896   6.616   3.121   1.365  0.8053 -0.1705  1.1513
 7161TIP3   OH242897   2.910   4.702   4.096 -0.0496 -0.2212 -0.1879
 7161TIP3    H142898   2.851   4.728   4.025 -0.9251 -1.9504 -0.1364
 7161TIP3    H242899   2.867   4.627   4.137  1.7051 -0.9119  0.4885
 7162TIP3   OH242900   3.116   4.899   6.355  0.0135  0.4631 -0.1439
 7162TIP3    H142901   3.201   4.920   6.316 -0.6401 -0.1088 -1.9674
 7162TIP3    H242902   3.070   4.983   6.358  0.9080  0.9397  1.6611
 7163TIP3   OH242903   3.936   4.569   2.908  0.5656  0.5311 -0.6029
 7163TIP3    H142904   3.910   4.661   2.901 -1.1293  0.1216 -0.3028
 7163TIP3    H242905   3.956   4.557   3.001 -1.9215  0.0087 -0.0506
 7164TIP3   OH242906   3.926   2.978   2.815  0.1444 -0.5006 -0.5592
 7164TIP3    H142907   3.989   2.987   2.744  1.0258 -1.4081  0.0704
 7164TIP3    H242908   3.874   3.058   2.812  0.4976 -0.3106 -1.8954
 7165TIP3   OH242909   2.059   0.779   1.111 -0.6247  0.4718 -0.2274
 7165TIP3    H142910   2.077   0.849   1.048 -0.2645  1.0199  0.4598
 7165TIP3    H242911   2.017   0.824   1.184  0.8483  0.2336  0.8291
 7166TIP3   OH242912   1.481   1.136  14.173 -0.1610  0.0207  1.0062
 7166TIP3    H142913   1.463   1.212  14.118 -1.1626 -0.6151  0.4356
 7166TIP3    H242914   1.427   1.066  14.137  0.4528 -0.8708  1.7579
 7167TIP3   OH242915   6.380   4.539  12.407 -0.0398 -0.3025  0.0332
 7167TIP3    H142916   6.457   4.577  12.365 -0.3410 -0.1931 -0.4212
 7167TIP3    H242917   6.416   4.471  12.465  0.3955 -0.2730 -0.1996
 7168TIP3   OH242918   2.108   5.159  13.588 -0.3062 -0.1123  0.3969
 7168TIP3    H142919   2.143   5.202  13.665  0.9373 -1.0310  0.3823
 7168TIP3    H242920   2.140   5.069  13.594 -0.9958 -0.4570 -0.6946
 7169TIP3   OH242921   1.517   0.047  10.563 -0.0397  0.8070  0.6610
 7169TIP3    H142922   1.605   0.018  10.585  0.0296  0.8327  0.4173
 7169TIP3    H242923   1.465  -0.033  10.561  0.4096  0.5025 -1.2880
 7170TIP3   OH242924   2.039   0.617  13.046  0.2036  0.0270 -0.3187
 7170TIP3    H142925   2.023   0.699  13.093 -0.0377  2.0062 -3.5967
 7170TIP3    H242926   2.128   0.626  13.012  0.5295 -1.5531  0.0290
 7171TIP3   OH242927   3.643   2.991  12.854  0.0266  0.1458 -0.1893
 7171TIP3    H142928   3.627   3.054  12.925 -1.7819 -1.7298  1.1547
 7171TIP3    H242929   3.732   3.013  12.824 -0.5438  3.4084  0.0629
 7172TIP3   OH242930   4.927   5.676  14.953 -0.6737  0.4812 -0.3262
 7172TIP3    H142931   4.939   5.764  14.917  1.2174 -0.1527 -1.4176
 7172TIP3    H242932   4.839   5.650  14.926 -0.3869  1.1612 -2.0471
 7173TIP3   OH242933   1.242   4.401   5.552  0.3311 -0.8617 -0.1231
 7173TIP3    H142934   1.217   4.492   5.568 -1.0338 -0.9909 -1.2923
 7173TIP3    H242935   1.236   4.359   5.637 -3.1079 -0.7377 -0.1659
 7174TIP3   OH242936   5.548   6.328   1.032 -0.3652  0.1170 -0.1966
 7174TIP3    H142937   5.549   6.250   1.087  0.4171 -1.5680 -2.4784
 7174TIP3    H242938   5.640   6.350   1.019 -0.4634 -0.3775 -1.9337
 7175TIP3   OH242939   5.269   2.168  12.093  0.1002 -0.0202 -0.4790
 7175TIP3    H142940   5.283   2.261  12.076 -0.2650 -0.3250 -2.8057
 7175TIP3    H242941   5.327   2.123  12.031 -1.0659 -1.3016 -0.7025
 7176TIP3   OH242942   3.455   3.789   1.362 -0.0070  0.2936  0.2314
 7176TIP3    H142943   3.406   3.753   1.288 -0.6888 -0.0763  0.8529
 7176TIP3    H242944   3.523   3.725   1.379 -0.3979 -0.0654  0.4804
 7177TIP3   OH242945   6.118   5.534  12.460  0.4614  0.5069  0.1162
 7177TIP3    H142946   6.210   5.561  12.463  0.9116 -0.6091 -1.8683
 7177TIP3    H242947   6.108   5.473  12.533  0.5275  2.6607  2.0303
 7178TIP3   OH242948   0.802   1.832  11.480 -0.3245 -0.0100  0.5472
 7178TIP3    H142949   0.863   1.801  11.413  0.2247  1.1038  0.5145
 7178TIP3    H242950   0.785   1.754  11.534  0.2076 -0.6117 -0.1284
 7179TIP3   OH242951   2.471   1.531  12.579 -0.3948  0.0360  0.5031
 7179TIP3    H142952   2.456   1.558  12.669  2.1442 -1.4064  1.4859
 7179TIP3    H242953   2.533   1.596  12.544  0.5932 -0.7720  0.6928
 7180TIP3   OH242954   3.352   2.665   4.664 -0.2455  0.2051  0.0446
 7180TIP3    H142955   3.296   2.731   4.623 -0.8055  0.8449  1.7612
 7180TIP3    H242956   3.292   2.611   4.716  0.4307 -0.5942  0.0288
 7181TIP3   OH242957   4.187   5.265  11.588  0.1033  0.5641  0.1408
 7181TIP3    H142958   4.158   5.319  11.662 -1.7565 -0.3028  0.1000
 7181TIP3    H242959   4.234   5.192  11.628 -1.4047 -0.2147  0.5531
 7182TIP3   OH242960   0.187   5.018  12.032  0.4970 -0.8918 -0.3927
 7182TIP3    H142961   0.222   4.950  12.090  0.1597  0.5280  1.6196
 7182TIP3    H242962   0.102   5.041  12.071  0.9196  1.1584 -0.5437
 7183TIP3   OH242963   0.807   2.436   4.010 -0.1786  0.3160 -0.0813
 7183TIP3    H142964   0.842   2.467   4.093  0.3416  1.1196 -0.5960
 7183TIP3    H242965   0.876   2.453   3.946  0.2506 -2.1109 -0.3803
 7184TIP3   OH242966   4.177   3.846  13.663 -0.2251  0.7854 -0.3981
 7184TIP3    H142967   4.269   3.871  13.674  0.5495 -2.2233  0.9722
 7184TIP3    H242968   4.171   3.812  13.574  0.2199  0.2041 -0.2095
 7185TIP3   OH242969   6.729   0.331   4.921  0.1343  0.1835  0.1071
 7185TIP3    H142970   6.783   0.382   4.981  0.5747 -0.3554  0.1765
 7185TIP3    H242971   6.748   0.239   4.944  0.2636 -0.0255 -0.8151
 7186TIP3   OH242972   5.504   0.724  16.846 -0.2980  0.4237 -0.1552
 7186TIP3    H142973   5.459   0.647  16.880 -0.7290  0.0203 -1.5682
 7186TIP3    H242974   5.439   0.767  16.791  0.7005  0.4027 -1.4028
 7187TIP3   OH242975   4.335   5.073   1.726  0.3809 -0.2066 -0.2757
 7187TIP3    H142976   4.343   5.017   1.803 -0.9621  0.4000  0.3479
 7187TIP3    H242977   4.406   5.137   1.734  1.4449 -1.3052 -0.5931
 7188TIP3   OH242978   1.006   3.503  12.290  0.3186  0.0535  0.0333
 7188TIP3    H142979   1.044   3.452  12.362  0.0455 -0.5314 -0.2282
 7188TIP3    H242980   0.923   3.535  12.324  0.8471  0.9917  0.4672
 7189TIP3   OH242981   6.611   1.168   2.383  0.1391  0.0354 -0.8857
 7189TIP3    H142982   6.629   1.087   2.432  1.5458  2.3693  2.9389
 7189TIP3    H242983   6.516   1.178   2.388  0.2308  0.3022  1.8753
 7190TIP3   OH242984   6.159   6.358  11.879 -0.0191  0.1692  0.3276
 7190TIP3    H142985   6.097   6.298  11.837  1.4016 -1.2391  0.1633
 7190TIP3    H242986   6.105   6.432  11.905 -1.3135  0.2964 -2.3111
 7191TIP3   OH242987   4.061   3.236   1.541 -0.2173 -0.2430  0.0287
 7191TIP3    H142988   4.035   3.247   1.449  0.0957 -0.3586 -0.0743
 7191TIP3    H242989   4.052   3.142   1.557  0.8590 -0.4046 -0.2317
 7192TIP3   OH242990   0.373   1.977   3.653 -0.1735  0.4046 -0.1041
 7192TIP3    H142991   0.279   1.998   3.659 -0.1441  0.2801  1.3618
 7192TIP3    H242992   0.416   2.062   3.663 -0.1317  0.2874  0.8863
 7193TIP3   OH242993   6.022   3.481  12.217  0.0421  0.9179  0.2450
 7193TIP3    H142994   6.058   3.566  12.241  0.6340  0.2794  1.7417
 7193TIP3    H242995   5.951   3.467  12.280  0.9617 -0.3644  1.0367
 7194TIP3   OH242996   3.433   0.252   1.907  0.1521  0.8102  0.1633
 7194TIP3    H142997   3.465   0.209   1.827 -3.2061 -0.3298 -0.7131
 7194TIP3    H242998   3.377   0.186   1.949 -2.1144  3.0096  0.8090
 7195TIP3   OH242999   4.221   1.776   3.859  0.3432 -0.1391 -0.5467
 7195TIP3    H143000   4.192   1.799   3.771  0.6895 -0.0962 -0.6486
 7195TIP3    H243001   4.142   1.787   3.913  1.3014  5.9454  0.3523
 7196TIP3   OH243002   6.806   6.291   6.053 -0.1122 -0.2838  0.0052
 7196TIP3    H143003   6.785   6.379   6.086  2.7446  0.0334  1.2609
 7196TIP3    H243004   6.788   6.233   6.127  0.3957 -0.4046  0.0372
 7197TIP3   OH243005   0.095   5.536  11.302 -0.0563  0.0381  0.0723
 7197TIP3    H143006   0.132   5.478  11.369  0.9898  1.0567  0.4336
 7197TIP3    H243007   0.002   5.543  11.324  0.0417 -0.5753  0.7133
 7198TIP3   OH243008   0.671   5.913  12.118  0.3990  0.1254 -0.4801
 7198TIP3    H143009   0.760   5.884  12.100  1.0624  0.9847  1.2132
 7198TIP3    H243010   0.675   6.008  12.118 -0.3780  0.1811  0.1593
 7199TIP3   OH243011   3.458   5.003   4.095  0.1977  0.2798  0.2388
 7199TIP3    H143012   3.420   4.916   4.090  1.7808 -0.4259 -0.0242
 7199TIP3    H243013   3.413   5.045   4.169  0.1148 -1.1070  1.0058
 7200TIP3   OH243014   2.944   1.205   2.979  0.3999  0.4829  0.3142
 7200TIP3    H143015   2.948   1.139   3.048 -1.5475 -0.5908 -0.5134
 7200TIP3    H243016   2.913   1.157   2.902 -1.3250  2.3628 -0.2546
 7201TIP3   OH243017   0.418   0.766   2.703  0.2386  0.5772  0.3535
 7201TIP3    H143018   0.465   0.848   2.720  0.5649  0.4098  0.2757
 7201TIP3    H243019   0.368   0.782   2.624 -0.6810  1.1122  1.0314
 7202TIP3   OH243020   2.228   2.232  16.028 -0.0578 -0.1632  0.0404
 7202TIP3    H143021   2.267   2.320  16.030  1.5596 -0.8473 -0.2508
 7202TIP3    H243022   2.134   2.249  16.022  0.1007  1.5600  1.4292
 7203TIP3   OH243023   4.000   3.155  15.723  0.0427  0.4108  0.2680
 7203TIP3    H143024   4.089   3.183  15.745 -0.1609  1.0101  0.3427
 7203TIP3    H243025   3.944   3.220  15.766 -0.4633 -0.6207  1.2076
 7204TIP3   OH243026   4.564   3.305  14.833 -0.0767 -0.1715  0.4479
 7204TIP3    H143027   4.652   3.289  14.799 -0.1439 -3.9533  1.5745
 7204TIP3    H243028   4.524   3.365  14.770  2.1508 -1.0827 -2.0114
 7205TIP3   OH243029   5.035   1.714  13.984 -0.0613 -0.5671 -0.4894
 7205TIP3    H143030   5.106   1.758  13.938  0.6657 -0.2670  0.9004
 7205TIP3    H243031   4.995   1.658  13.916  1.3266 -0.5693 -1.3590
 7206TIP3   OH243032   2.831   3.885  15.412  0.6470 -0.1825 -0.1857
 7206TIP3    H143033   2.890   3.834  15.357  0.5996 -0.8035  0.3240
 7206TIP3    H243034   2.854   3.861  15.502 -1.3309 -1.5718  0.0100
 7207TIP3   OH243035   0.666   4.970  14.806 -0.7361  0.4358  0.2347
 7207TIP3    H143036   0.577   4.953  14.774 -0.5623  0.8059 -0.4621
 7207TIP3    H243037   0.678   5.064  14.796 -0.8519  0.6531  1.8909
 7208TIP3   OH243038   4.607   2.300   2.063  0.5776 -0.2032  0.1675
 7208TIP3    H143039   4.584   2.371   2.002  1.4936  0.0146  0.0588
 7208TIP3    H243040   4.639   2.345   2.141 -0.1490 -0.4905  0.6424
 7209TIP3   OH243041   0.709   4.247   2.372 -0.2501 -0.5249 -0.3840
 7209TIP3    H143042   0.746   4.159   2.368  0.1063 -0.3495 -1.5359
 7209TIP3    H243043   0.650   4.251   2.297  0.4524  0.5170 -0.9082
 7210TIP3   OH243044   6.150   6.682   3.386 -0.5935 -0.1078 -0.0950
 7210TIP3    H143045   6.061   6.659   3.411 -0.5694  0.2717  0.3611
 7210TIP3    H243046   6.205   6.615   3.427 -0.4515  1.1716  1.9422
 7211TIP3   OH243047   3.332   1.524  11.255 -0.7667  0.2248 -0.3920
 7211TIP3    H143048   3.261   1.559  11.309 -0.3473  1.9741 -0.9116
 7211TIP3    H243049   3.321   1.429  11.260 -2.6735  0.4235  0.1524
 7212TIP3   OH243050   0.866   5.120  16.136 -0.1648  0.0409 -0.4933
 7212TIP3    H143051   0.771   5.125  16.145 -0.3029 -0.3879 -1.5492
 7212TIP3    H243052   0.895   5.211  16.131 -0.3787  0.2123  0.9723
 7213TIP3   OH243053   6.188   1.799  16.799  0.5880  0.0894  0.2149
 7213TIP3    H143054   6.210   1.892  16.808  0.9952 -0.1511  2.2398
 7213TIP3    H243055   6.265   1.760  16.758  0.3130  0.6682 -0.8794
 7214TIP3   OH243056   0.317   5.192   3.834 -0.3750 -0.0243  0.3945
 7214TIP3    H143057   0.346   5.101   3.839  0.8925  0.3496  0.2398
 7214TIP3    H243058   0.390   5.242   3.870 -0.8196  0.9701 -0.0574
 7215TIP3   OH243059   2.553   3.139   4.854 -0.2724 -0.5228 -0.1793
 7215TIP3    H143060   2.613   3.077   4.811  1.1381 -0.3232  1.4034
 7215TIP3    H243061   2.562   3.220   4.804  1.1908 -0.3543  0.3113
 7216TIP3   OH243062   1.699   0.962  15.988 -0.0275  0.6848 -0.5123
 7216TIP3    H143063   1.614   0.922  15.972  1.0868 -1.7783 -0.6461
 7216TIP3    H243064   1.712   1.021  15.914 -1.2027  0.3662 -0.9938
 7217TIP3   OH243065   1.051   3.166   0.365  0.3099 -0.2382 -0.0884
 7217TIP3    H143066   1.013   3.218   0.436 -0.3143 -1.7360  0.7212
 7217TIP3    H243067   1.143   3.157   0.390  0.4281  0.4582 -0.2437
 7218TIP3   OH243068   2.384   2.794   2.227 -0.7904  0.3672 -0.6067
 7218TIP3    H143069   2.290   2.780   2.240 -1.5311  0.5348 -4.4321
 7218TIP3    H243070   2.415   2.711   2.191 -0.1479  1.1253 -1.9035
 7219TIP3   OH243071   3.820   5.106   0.001 -0.1487  0.1688 -0.0648
 7219TIP3    H143072   3.904   5.062  -0.003  0.6667  1.5411  1.1046
 7219TIP3    H243073   3.756   5.037  -0.018  1.1941 -0.9602 -0.6525
 7220TIP3   OH243074   5.474   0.504  13.208  0.2631 -0.5747 -0.1992
 7220TIP3    H143075   5.520   0.494  13.125 -0.5777 -1.9357 -0.5320
 7220TIP3    H243076   5.397   0.558  13.186  0.1381 -0.7816 -0.2785
 7221TIP3   OH243077   4.125   5.604  14.784  0.1097 -0.1728 -0.1656
 7221TIP3    H143078   4.066   5.679  14.772 -0.6167 -0.3605  1.8702
 7221TIP3    H243079   4.209   5.642  14.808 -0.5867  0.0475  2.1728
 7222TIP3   OH243080   0.406   2.853  14.128 -0.2300 -0.1328  0.0423
 7222TIP3    H143081   0.403   2.775  14.073 -0.3484 -1.5122  1.9133
 7222TIP3    H243082   0.314   2.877  14.140 -0.2990 -0.8042  0.9263
 7223TIP3   OH243083   2.781   5.875   4.882  0.0318 -0.3340 -0.3915
 7223TIP3    H143084   2.783   5.934   4.807  1.0322 -0.6710 -0.6500
 7223TIP3    H243085   2.733   5.798   4.851  0.5429 -0.5214 -0.7315
 7224TIP3   OH243086   4.500   3.387   1.586 -0.5529  0.1449  0.1083
 7224TIP3    H143087   4.589   3.393   1.620 -0.5872  2.4064 -0.0666
 7224TIP3    H243088   4.510   3.358   1.495 -0.2274 -2.2378  0.8321
 7225TIP3   OH243089   2.936   4.070   4.132 -0.1418 -0.2171 -0.2000
 7225TIP3    H143090   2.924   4.066   4.227  0.0605 -0.8555 -0.1910
 7225TIP3    H243091   2.980   4.154   4.117  0.2675 -0.3289  0.3259
 7226TIP3   OH243092   5.566   5.876   5.918 -0.0462 -0.0001 -0.3084
 7226TIP3    H143093   5.548   5.783   5.933 -2.0390  0.0071 -2.1783
 7226TIP3    H243094   5.660   5.880   5.900  0.1613 -1.5590  0.2716
 7227TIP3   OH243095   0.288   1.084   2.150 -0.0454  0.2296 -0.2476
 7227TIP3    H143096   0.338   1.007   2.121 -0.7689 -0.4420  0.2250
 7227TIP3    H243097   0.291   1.144   2.075  1.0768  0.0253 -0.3867
 7228TIP3   OH243098   5.655   4.049  15.698  0.0982  0.2032 -0.9229
 7228TIP3    H143099   5.644   3.956  15.719  1.3523  0.2103 -0.1760
 7228TIP3    H243100   5.747   4.067  15.714 -0.7322  2.3867  2.3152
 7229TIP3   OH243101   0.632   3.725   3.741  0.7608  0.9636  0.5195
 7229TIP3    H143102   0.630   3.668   3.818 -0.7053  0.8193  0.3915
 7229TIP3    H243103   0.681   3.674   3.675 -2.6585 -1.3866 -0.4639
 7230TIP3   OH243104   2.886   3.112  14.622 -0.4245  0.6814  0.1681
 7230TIP3    H143105   2.922   3.030  14.586  1.0871  1.3988 -0.0588
 7230TIP3    H243106   2.962   3.155  14.662 -1.5350  1.2069  1.7683
 7231TIP3   OH243107   4.767   6.733   3.976 -0.1984  0.4738 -0.0903
 7231TIP3    H143108   4.762   6.789   4.054  3.1969  1.0424 -0.1460
 7231TIP3    H243109   4.724   6.784   3.908 -0.1495  1.5103  0.6291
 7232TIP3   OH243110   5.123   3.194  14.265 -0.3978  0.0366  0.2758
 7232TIP3    H143111   5.102   3.285  14.283 -1.0204 -0.0369 -0.0826
 7232TIP3    H243112   5.039   3.148  14.267  0.0481 -0.8284  2.0956
 7233TIP3   OH243113   5.174   4.913   1.104  0.0346  0.4494 -0.1197
 7233TIP3    H143114   5.081   4.904   1.083 -0.1107  0.0498  0.6531
 7233TIP3    H243115   5.216   4.930   1.020 -0.8746  1.7895 -0.3283
 7234TIP3   OH243116   3.561   2.953   0.551  0.2231  0.4254  0.2898
 7234TIP3    H143117   3.514   2.909   0.622  2.4272  0.0251  1.5983
 7234TIP3    H243118   3.654   2.938   0.571  0.9718  2.5004 -1.3036
 7235TIP3   OH243119   2.897   0.928  12.331  0.0327 -0.2521  0.0178
 7235TIP3    H143120   2.897   0.940  12.425  1.2416 -0.5934  0.0780
 7235TIP3    H243121   2.987   0.903  12.310  0.7755  3.1529 -1.6482
 7236TIP3   OH243122   5.444   5.559   0.997 -0.2676 -0.4634  0.3658
 7236TIP3    H143123   5.455   5.465   1.008 -0.7355 -0.5907 -0.2238
 7236TIP3    H243124   5.419   5.590   1.084 -1.6717 -1.1219  0.2278
 7237TIP3   OH243125   1.316   0.526   1.045  0.0973 -0.3097  0.1672
 7237TIP3    H143126   1.222   0.536   1.030  0.4627  1.5487 -1.2616
 7237TIP3    H243127   1.337   0.440   1.009 -1.0560 -0.8117  0.6386
 7238TIP3   OH243128   0.875   4.638  10.775  0.3741  0.1736  0.5169
 7238TIP3    H143129   0.891   4.625  10.868  0.9092 -1.8473  0.2011
 7238TIP3    H243130   0.934   4.708  10.749 -1.1791  2.1510  2.0496
 7239TIP3   OH243131   0.327   1.042  15.374 -0.3464  0.3157 -0.0016
 7239TIP3    H143132   0.277   1.079  15.302 -1.3793 -1.3187 -0.1891
 7239TIP3    H243133   0.262   1.023  15.442  0.4192  0.6274  0.8434
 7240TIP3   OH243134   3.282   5.229  16.919  0.4179  0.1883  0.4138
 7240TIP3    H143135   3.345   5.300  16.936  0.6726  0.2498 -0.7194
 7240TIP3    H243136   3.239   5.254  16.837 -0.1298 -0.5305  0.4708
 7241TIP3   OH243137   3.754   4.845  15.839 -0.2933  0.1937 -0.3304
 7241TIP3    H143138   3.702   4.810  15.767  1.1703 -2.3930 -0.2729
 7241TIP3    H243139   3.833   4.880  15.797 -0.5771  1.0432 -0.1672
 7242TIP3   OH243140   6.221   1.126  15.142  0.6303 -0.8469  0.0162
 7242TIP3    H143141   6.145   1.071  15.159 -0.7921  0.4751 -1.6303
 7242TIP3    H243142   6.226   1.185  15.216 -1.6102  0.7516 -1.0079
 7243TIP3   OH243143   0.754   0.143  15.360 -0.1680 -1.0355 -0.6707
 7243TIP3    H143144   0.815   0.095  15.416  0.3012 -2.3220 -2.2326
 7243TIP3    H243145   0.799   0.225  15.339 -0.5589 -0.2871  1.1785
 7244TIP3   OH243146   5.016   1.303  15.661 -0.4581  0.5331 -0.3389
 7244TIP3    H143147   4.952   1.232  15.670 -0.1072  0.2861  0.2511
 7244TIP3    H243148   5.082   1.268  15.600  0.1377  0.0275  0.5666
 7245TIP3   OH243149   2.517   5.115  12.250  0.2654  0.4991 -0.4834
 7245TIP3    H143150   2.519   5.020  12.236  0.6269  0.3526  0.5086
 7245TIP3    H243151   2.597   5.134  12.299 -1.7495  0.6924  3.0483
 7246TIP3   OH243152   2.494   4.765  11.762  0.2212  0.5134 -0.0317
 7246TIP3    H143153   2.584   4.747  11.734  0.2899 -0.4826  0.7875
 7246TIP3    H243154   2.455   4.811  11.687  1.2230  0.4208 -0.6369
 7247TIP3   OH243155   1.168   3.870  11.841  0.0253  0.4965 -0.4868
 7247TIP3    H143156   1.121   3.953  11.849  0.3895  0.6561  0.0962
 7247TIP3    H243157   1.243   3.880  11.900 -1.4829 -1.3150  1.9156
 7248TIP3   OH243158   1.100   1.685   0.479  0.7687 -0.3811  0.2401
 7248TIP3    H143159   1.117   1.665   0.388  0.1446 -0.5470  0.1524
 7248TIP3    H243160   1.018   1.640   0.499 -1.6103  3.2243 -0.4258
 7249TIP3   OH243161   4.089   0.755   1.327  0.0519 -0.0752  0.0032
 7249TIP3    H143162   4.026   0.716   1.388  1.1088  0.0295  1.2094
 7249TIP3    H243163   4.129   0.826   1.377  0.5587  0.3659 -1.0182
 7250TIP3   OH243164   5.612   6.534   1.323 -0.0762  0.3867  0.0789
 7250TIP3    H143165   5.560   6.558   1.400 -0.8182  0.2386 -0.3713
 7250TIP3    H243166   5.616   6.438   1.326  1.8105  0.4324  1.1649
 7251TIP3   OH243167   5.776   6.160  11.017 -0.0602 -0.1826 -0.3892
 7251TIP3    H143168   5.738   6.182  10.932  1.3012  0.1517 -0.9379
 7251TIP3    H243169   5.779   6.065  11.019 -1.0220 -0.2149 -0.2805
 7252TIP3   OH243170   4.269   6.154   2.043  0.2324  0.1936 -0.2669
 7252TIP3    H143171   4.271   6.237   1.996 -1.1551  0.0129 -0.6832
 7252TIP3    H243172   4.184   6.116   2.023  0.5168 -0.9676  0.5601
 7253TIP3   OH243173   4.577   2.381  14.011 -0.1881 -0.0827  0.2640
 7253TIP3    H143174   4.499   2.397  14.064 -0.2599  0.2887  0.0497
 7253TIP3    H243175   4.645   2.359  14.074 -0.1846  0.6952  0.5428
 7254TIP3   OH243176   3.130   5.916   0.321 -0.2401  0.1576  0.3267
 7254TIP3    H143177   3.198   5.979   0.343 -0.0895  0.1754 -0.1851
 7254TIP3    H243178   3.073   5.914   0.398  0.7783 -0.4545  1.0849
 7255TIP3   OH243179   4.607   2.120   6.352  0.1384 -0.4741  0.5085
 7255TIP3    H143180   4.608   2.213   6.329  4.0638 -0.4492  0.0679
 7255TIP3    H243181   4.553   2.116   6.431  1.4834  2.5971  1.7786
 7256TIP3   OH243182   2.449   5.828  12.065 -0.3240 -0.4924  0.2251
 7256TIP3    H143183   2.422   5.774  11.991 -0.2177  0.2354 -0.3629
 7256TIP3    H243184   2.499   5.899  12.025  1.4364 -1.1344  1.1586
 7257TIP3   OH243185   3.049   3.304  14.364  0.5689  0.0415 -0.0741
 7257TIP3    H143186   3.010   3.300  14.452 -1.2889 -1.7426 -0.8981
 7257TIP3    H243187   3.131   3.256  14.372  1.2254  1.2697  1.0166
 7258TIP3   OH243188   3.831   1.139  14.864 -0.0631  0.2350 -0.2220
 7258TIP3    H143189   3.906   1.177  14.910  0.1306 -1.0709  0.6027
 7258TIP3    H243190   3.755   1.170  14.912 -0.1785  2.3374 -1.6207
 7259TIP3   OH243191   1.562   3.491  14.274 -0.1484  0.4824  0.2081
 7259TIP3    H143192   1.573   3.470  14.182  2.4193  0.6535  0.4003
 7259TIP3    H243193   1.592   3.413  14.321  2.0700  1.6456  0.8580
 7260TIP3   OH243194   1.715   3.810  15.518 -0.7588  0.3640  0.0269
 7260TIP3    H143195   1.758   3.887  15.555 -0.9045 -0.1214  1.2566
 7260TIP3    H243196   1.773   3.782  15.447  1.2427 -0.5451  1.9203
 7261TIP3   OH243197   0.638   3.294   5.573  0.0830 -0.5907 -0.5453
 7261TIP3    H143198   0.564   3.275   5.516 -1.0139  0.3649  0.5115
 7261TIP3    H243199   0.692   3.215   5.569  0.0849 -0.5327 -2.9151
 7262TIP3   OH243200   4.093   6.489  16.979  0.3176  0.4153 -0.1270
 7262TIP3    H143201   4.083   6.446  17.064  0.0663 -0.4287 -0.5692
 7262TIP3    H243202   4.141   6.569  16.998 -1.2487  1.1366  1.0840
 7263TIP3   OH243203   4.411   0.968  17.054  0.5321 -0.6597  0.5815
 7263TIP3    H143204   4.390   1.037  17.117 -0.1667 -0.5974  0.2900
 7263TIP3    H243205   4.394   0.886  17.101  1.9056 -0.6649  1.1176
 7264TIP3   OH243206   3.052   1.176  15.473 -0.1102 -0.4062 -0.0966
 7264TIP3    H143207   2.987   1.161  15.541  0.3676 -2.8203 -0.0957
 7264TIP3    H243208   3.134   1.192  15.521 -0.1307 -0.2340 -0.1165
 7265TIP3   OH243209   3.250   3.635  13.772  0.3411  0.0139  0.2173
 7265TIP3    H143210   3.200   3.590  13.840  2.0089 -0.2983  1.3012
 7265TIP3    H243211   3.289   3.711  13.817 -0.2504  1.0422 -0.9358
 7266TIP3   OH243212   4.573   1.260  14.624 -0.2876  0.0242 -0.3079
 7266TIP3    H143213   4.653   1.279  14.673 -0.1029  0.3632 -0.7388
 7266TIP3    H243214   4.543   1.176  14.659  0.3084 -0.1504 -0.2120
 7267TIP3   OH243215   6.700   1.590   1.751  0.4060  0.2591  0.9109
 7267TIP3    H143216   6.690   1.660   1.815  3.8864  3.5698 -1.6918
 7267TIP3    H243217   6.789   1.556   1.766  0.7435  0.1109 -1.0913
 7268TIP3   OH243218   0.258   4.503   0.635  0.1489  0.2327 -0.6680
 7268TIP3    H143219   0.263   4.579   0.693  1.8776 -1.8561  2.1354
 7268TIP3    H243220   0.167   4.474   0.642 -0.0633  0.9724 -0.2885
 7269TIP3   OH243221   1.046   2.567  13.101  0.0810  0.2927 -0.9448
 7269TIP3    H143222   1.128   2.606  13.073  1.3436 -1.3937  0.2180
 7269TIP3    H243223   1.048   2.571  13.197 -1.3350  0.4811 -0.8963
 7270TIP3   OH243224   6.254   5.566   6.312  0.0995 -0.6480  0.1454
 7270TIP3    H143225   6.321   5.512   6.269 -0.5723 -0.7925 -0.7551
 7270TIP3    H243226   6.173   5.517   6.299  0.1219 -1.7838  3.4409
 7271TIP3   OH243227   0.014   2.977  13.323 -0.1137  0.3533  0.3581
 7271TIP3    H143228  -0.011   2.897  13.279  0.4486 -0.4629  1.4642
 7271TIP3    H243229  -0.067   3.027  13.332 -0.9098 -1.0669  1.5681
 7272TIP3   OH243230   6.631   4.344  12.977 -0.3490 -0.3538 -0.0692
 7272TIP3    H143231   6.668   4.292  12.906 -2.3832 -0.5488 -1.0637
 7272TIP3    H243232   6.605   4.426  12.936  2.1392  1.2508  1.3439
 7273TIP3   OH243233   2.734   0.294  15.724  0.2833  0.6629  0.0622
 7273TIP3    H143234   2.670   0.313  15.656  1.3564 -0.3931 -1.3043
 7273TIP3    H243235   2.771   0.380  15.747 -0.7209  1.1318 -0.0137
 7274TIP3   OH243236   0.273   1.507   0.731  0.6278 -0.2719 -0.1514
 7274TIP3    H143237   0.331   1.435   0.755  3.0893  1.1477 -1.5337
 7274TIP3    H243238   0.248   1.490   0.640 -0.8893 -0.6472  0.2930
 7275TIP3   OH243239   6.528   6.539  15.194  0.0807  0.6247 -1.0026
 7275TIP3    H143240   6.543   6.584  15.111 -0.6123  0.8508 -1.0068
 7275TIP3    H243241   6.613   6.541  15.238  0.1010  1.7689 -1.0812
 7276TIP3   OH243242   6.328   6.480  12.204  0.2236  0.2665 -0.4308
 7276TIP3    H143243   6.415   6.516  12.186  0.5385 -0.2392  0.0179
 7276TIP3    H243244   6.327   6.397  12.156  0.0983  0.1369 -0.2050
 7277TIP3   OH243245   0.040   0.393  10.846 -0.6666 -0.5477  0.0764
 7277TIP3    H143246   0.040   0.338  10.768  0.4351  1.3425 -1.3494
 7277TIP3    H243247   0.131   0.422  10.855 -1.0501  0.3783  1.2156
 7278TIP3   OH243248   5.160   5.631   4.652  0.3925 -0.4165 -0.7826
 7278TIP3    H143249   5.110   5.712   4.665  1.1322  0.1089 -1.1254
 7278TIP3    H243250   5.198   5.640   4.564  1.3098 -0.6711 -0.4266
 7279TIP3   OH243251   3.042   3.584  17.125  0.1236  0.0851  0.2513
 7279TIP3    H143252   3.017   3.528  17.198  0.1805  0.1862  0.3491
 7279TIP3    H243253   3.025   3.673  17.156 -0.4859  0.0963 -0.1032
 7280TIP3   OH243254   2.307   4.442  16.631 -0.6562  0.0620 -0.2081
 7280TIP3    H143255   2.338   4.357  16.600 -1.1365 -0.1176 -0.2016
 7280TIP3    H243256   2.215   4.446  16.604  0.0545  1.7697 -2.7373
 7281TIP3   OH243257   1.878   6.685   4.594  0.0699  0.7783  0.1056
 7281TIP3    H143258   1.817   6.723   4.657 -0.3862 -0.2704  0.3143
 7281TIP3    H243259   1.849   6.594   4.584  1.2952  0.3973 -0.1652
 7282TIP3   OH243260   1.915   0.496   6.701 -0.2358  0.3270  0.4360
 7282TIP3    H143261   1.856   0.470   6.630 -3.4653  0.0215  2.9813
 7282TIP3    H243262   1.873   0.573   6.740  0.7279 -0.2301  2.7390
 7283TIP3   OH243263   5.002   1.283  11.994  0.1477 -0.4964 -0.2924
 7283TIP3    H143264   4.987   1.376  11.975 -0.3545 -0.5519 -0.1850
 7283TIP3    H243265   5.041   1.282  12.082 -1.0968 -0.4540  0.2829
 7284TIP3   OH243266   3.817   3.131  16.141 -0.1659 -0.5529 -0.1089
 7284TIP3    H143267   3.757   3.129  16.216 -0.0363 -1.4386 -0.0242
 7284TIP3    H243268   3.902   3.106  16.177  0.7166  2.4606  0.1406
 7285TIP3   OH243269   6.085   0.136   0.475  0.1236 -0.5002  0.1138
 7285TIP3    H143270   6.114   0.222   0.505 -2.5293 -0.2530  2.2664
 7285TIP3    H243271   6.117   0.075   0.541  0.1692 -0.9096 -0.2775
 7286TIP3   OH243272   5.108   2.508  14.972 -0.7157  0.4111  0.0388
 7286TIP3    H143273   5.113   2.487  14.878  0.5305  0.4675  0.0719
 7286TIP3    H243274   5.023   2.474  14.999 -0.2822 -1.4197 -0.6942
 7287TIP3   OH243275   1.414   0.780  16.494 -0.4138  0.2788  0.6867
 7287TIP3    H143276   1.441   0.836  16.421 -1.0855 -0.0052  0.2143
 7287TIP3    H243277   1.471   0.807  16.567  1.2603 -0.4132 -0.3096
 7288TIP3   OH243278   4.507   0.568   5.291  0.0938  0.0679  0.1823
 7288TIP3    H143279   4.472   0.479   5.288 -0.0939  0.1289  0.5633
 7288TIP3    H243280   4.602   0.557   5.295  0.1917 -0.0923 -1.7215
 7289TIP3   OH243281   5.821   0.047  10.188  0.3111  0.6815 -0.1666
 7289TIP3    H143282   5.729   0.039  10.165  0.2460 -1.3459  0.5644
 7289TIP3    H243283   5.847   0.133  10.155 -2.2199  2.0237  1.0541
 7290TIP3   OH243284   6.556   0.115  16.775  0.1751 -0.1621  0.5563
 7290TIP3    H143285   6.545   0.120  16.870  3.1358 -1.2258  1.0657
 7290TIP3    H243286   6.575   0.205  16.748 -1.2080  0.2415  0.8210
 7291TIP3   OH243287   2.045   1.891  12.765 -0.0129 -0.0695 -0.1996
 7291TIP3    H143288   2.125   1.881  12.816 -0.1474  0.7417  0.1949
 7291TIP3    H243289   2.076   1.913  12.677  0.2176 -1.4438 -0.4853
 7292TIP3   OH243290   0.232   1.859   4.335  0.3213 -0.5748 -0.4478
 7292TIP3    H143291   0.277   1.942   4.350  0.2105 -0.5708 -0.1328
 7292TIP3    H243292   0.152   1.865   4.388  0.5937 -1.1186  0.0405
 7293TIP3   OH243293   1.145   0.235   0.608 -0.1853  0.3376 -0.5267
 7293TIP3    H143294   1.193   0.159   0.576 -0.1178  0.5697 -0.9826
 7293TIP3    H243295   1.153   0.300   0.539  0.3718  1.0221  0.1669
 7294TIP3   OH243296   2.072   0.000  15.982  0.0036  0.5568  0.6074
 7294TIP3    H143297   1.979   0.022  15.982  0.3272  2.0612  0.3238
 7294TIP3    H243298   2.099   0.012  15.891  0.5784  0.6209  0.7841
 7295TIP3   OH243299   2.160   3.006   4.860  0.2454 -0.3396 -0.3863
 7295TIP3    H143300   2.099   3.004   4.787  1.5013 -3.4772 -1.5288
 7295TIP3    H243301   2.105   3.008   4.938 -1.2734 -0.9355 -1.3996
 7296TIP3   OH243302   0.484   5.530  14.141  0.6121 -0.2574  0.5151
 7296TIP3    H143303   0.464   5.461  14.078  0.5145 -0.3876  0.6850
 7296TIP3    H243304   0.428   5.603  14.116 -0.1393 -0.6373  1.0199
 7297TIP3   OH243305   5.736   1.608  13.542 -0.3798  0.5049 -0.1546
 7297TIP3    H143306   5.816   1.659  13.528  0.6646 -0.7838  0.8429
 7297TIP3    H243307   5.764   1.517  13.538 -1.5959  0.0233  1.2943
 7298TIP3   OH243308   2.225   4.209  11.017  0.4655  0.1216  0.5206
 7298TIP3    H143309   2.269   4.275  10.963 -0.7320  2.1896  1.9420
 7298TIP3    H243310   2.233   4.242  11.106 -1.3652 -0.9872  1.1448
 7299TIP3   OH243311   0.552   1.722   0.811 -0.2485  0.1834 -0.2707
 7299TIP3    H143312   0.530   1.662   0.739 -3.1142  1.7546 -0.8649
 7299TIP3    H243313   0.561   1.665   0.887  0.7604 -1.3083 -1.4361
 7300TIP3   OH243314   3.574   4.456   0.904 -0.0384  0.3281  0.1132
 7300TIP3    H143315   3.603   4.367   0.927  1.0522  0.6319 -0.0090
 7300TIP3    H243316   3.497   4.443   0.849  0.9740 -0.6238 -1.1595
 7301TIP3   OH243317   1.463   1.901   6.005 -0.2195 -0.1968 -0.0957
 7301TIP3    H143318   1.443   1.869   6.093 -2.8296 -0.4203 -0.6994
 7301TIP3    H243319   1.447   1.826   5.949  0.2233  0.2973 -0.8986
 7302TIP3   OH243320   1.858   0.377  11.574  0.2421 -0.8701  0.2599
 7302TIP3    H143321   1.946   0.380  11.611  0.5795 -0.7290 -0.5400
 7302TIP3    H243322   1.827   0.467  11.578  0.6426 -0.6856 -0.6526
 7303TIP3   OH243323   3.828   5.418  15.607  0.6760 -0.1615 -0.4453
 7303TIP3    H143324   3.858   5.448  15.693  0.8262 -0.8338 -0.2593
 7303TIP3    H243325   3.734   5.403  15.618  0.8518 -1.1058 -0.1404
 7304TIP3   OH243326   2.382   5.278   3.721  0.1456 -0.1530  0.4366
 7304TIP3    H143327   2.418   5.203   3.675 -0.1831  0.2196 -0.4556
 7304TIP3    H243328   2.300   5.247   3.758 -1.1930  0.3209 -1.9039
 7305TIP3   OH243329   5.900   3.643   1.147  0.3634  0.1347 -0.3120
 7305TIP3    H143330   5.955   3.712   1.109 -1.8019  2.4791  0.5389
 7305TIP3    H243331   5.864   3.598   1.071  0.8819  0.7250 -0.9313
 7306TIP3   OH243332   3.521   2.150  13.507  0.1942  0.5043  0.1987
 7306TIP3    H143333   3.553   2.229  13.551 -1.8489  1.1557  0.6127
 7306TIP3    H243334   3.600   2.102  13.483  1.4434  1.5279  2.0257
 7307TIP3   OH243335   3.148   5.079  11.319 -0.6306 -0.0049  0.4821
 7307TIP3    H143336   3.222   5.039  11.366 -0.0420  1.4713  0.8857
 7307TIP3    H243337   3.124   5.014  11.253  1.0552 -0.5225  0.3185
 7308TIP3   OH243338   3.233   3.985  12.926  0.3402 -0.6392 -0.0030
 7308TIP3    H143339   3.156   4.011  12.876 -1.1799 -2.0156  1.4748
 7308TIP3    H243340   3.290   3.943  12.862  0.2400  1.0619 -1.2724
 7309TIP3   OH243341   2.255   6.636   3.041 -0.3057  0.0695  0.3519
 7309TIP3    H143342   2.229   6.586   2.963  0.1071 -0.1662  0.3641
 7309TIP3    H243343   2.304   6.574   3.094 -1.9434 -0.2464  1.5767
 7310TIP3   OH243344   2.969   2.414   4.315  0.0610  0.2457 -0.1717
 7310TIP3    H143345   3.052   2.426   4.361  0.2526  0.3494 -0.5401
 7310TIP3    H243346   2.930   2.501   4.312 -0.2470  0.1301  0.3441
 7311TIP3   OH243347   6.327   4.318  16.197  0.2072  0.4243 -0.5213
 7311TIP3    H143348   6.368   4.258  16.260 -1.1761 -0.7194 -0.6577
 7311TIP3    H243349   6.235   4.321  16.223  0.2657  2.6403 -0.4473
 7312TIP3   OH243350   0.150   3.040   5.186 -0.2058  0.2006  0.1898
 7312TIP3    H143351   0.199   3.121   5.198  0.8116  0.0343 -2.2371
 7312TIP3    H243352   0.212   2.971   5.208 -1.1519  0.0118  2.5190
 7313TIP3   OH243353   2.274   6.621  15.000  0.0866 -0.0520  0.1000
 7313TIP3    H143354   2.300   6.559  14.932  0.8767  0.3484  0.0321
 7313TIP3    H243355   2.288   6.707  14.962 -3.7775  0.3126 -0.9314
 7314TIP3   OH243356   5.105   4.304   3.622 -0.6662 -0.5678  0.4567
 7314TIP3    H143357   5.095   4.375   3.685 -1.0935 -2.0005  2.0905
 7314TIP3    H243358   5.155   4.342   3.550 -1.8761  1.6655  0.7442
 7315TIP3   OH243359   1.693   2.319   1.010  0.0013  0.1279  0.3958
 7315TIP3    H143360   1.699   2.310   1.105 -0.4900  2.8307  0.7718
 7315TIP3    H243361   1.620   2.263   0.985 -0.5897  0.2452  1.7707
 7316TIP3   OH243362   5.917   3.980  15.638  0.6365 -0.1460  0.1282
 7316TIP3    H143363   5.906   3.944  15.550  2.1860  1.4043 -0.7584
 7316TIP3    H243364   6.011   3.971  15.655  0.5330  0.6331  1.1550
 7317TIP3   OH243365   5.494   4.400   1.727  0.0020  0.3704  0.5584
 7317TIP3    H143366   5.444   4.329   1.687  1.0610  0.5908 -1.3042
 7317TIP3    H243367   5.429   4.453   1.773 -0.8235 -1.6718  1.8390
 7318TIP3   OH243368   0.289   6.410   3.781 -0.7309  0.0882  0.1131
 7318TIP3    H143369   0.212   6.356   3.764 -1.5904  1.8477 -2.0311
 7318TIP3    H243370   0.263   6.470   3.849 -1.2557  0.6196 -0.5452
 7319TIP3   OH243371   5.902   4.661   0.835 -0.0855 -0.2531  0.4015
 7319TIP3    H143372   5.937   4.598   0.772  2.4191  0.0081  1.3881
 7319TIP3    H243373   5.897   4.613   0.918 -0.7613  0.1161  0.5846
 7320TIP3   OH243374   2.900   0.538  12.031  0.5426 -0.3350  0.1897
 7320TIP3    H143375   2.995   0.550  12.026  0.6534  0.5570  2.7676
 7320TIP3    H243376   2.866   0.589  11.958  2.0597 -1.7511 -1.5982
 7321TIP3   OH243377   2.077   0.437  11.712 -0.5558 -0.0285 -1.0237
 7321TIP3    H143378   2.124   0.490  11.648 -0.4200 -0.1710 -1.0445
 7321TIP3    H243379   2.147   0.400  11.767 -0.6516 -0.1577 -0.9901
 7322TIP3   OH243380   0.122   5.914   2.500  0.1834  0.3749 -0.0225
 7322TIP3    H143381   0.215   5.903   2.519  0.3804  1.6967 -0.1511
 7322TIP3    H243382   0.083   5.941   2.583 -0.0578  0.0394 -0.0220
 7323TIP3   OH243383   0.716   1.000   4.246 -0.1268  0.3944 -0.3104
 7323TIP3    H143384   0.758   0.960   4.322  0.6559 -0.1383 -1.0074
 7323TIP3    H243385   0.758   1.086   4.237  1.3881 -0.4266 -1.4400
 7324TIP3   OH243386   5.605   3.184   5.940  0.1832  0.0446  0.6389
 7324TIP3    H143387   5.510   3.183   5.927  0.2316 -0.6271  0.2851
 7324TIP3    H243388   5.616   3.199   6.034 -0.2011  3.7643  0.2419
 7325TIP3   OH243389   2.624   2.008   1.346  0.0934 -0.8278  0.5566
 7325TIP3    H143390   2.644   1.975   1.434 -1.0562 -2.5704  0.2196
 7325TIP3    H243391   2.545   1.961   1.320 -1.0090  1.4383 -0.4709
 7326TIP3   OH243392   1.330   4.214  16.923 -0.5112  0.1466  0.0709
 7326TIP3    H143393   1.259   4.238  16.983 -1.7750 -2.3129 -0.3467
 7326TIP3    H243394   1.287   4.165  16.853  1.2882  0.7335 -1.5346
 7327TIP3   OH243395   5.582   5.245  11.350 -0.3310  0.3928  0.3374
 7327TIP3    H143396   5.590   5.321  11.408 -2.8064  0.8194  0.2258
 7327TIP3    H243397   5.602   5.170  11.406 -2.2570  0.8205  1.7079
 7328TIP3   OH243398   4.441   5.892  10.380 -0.9148 -0.0502 -0.3013
 7328TIP3    H143399   4.375   5.936  10.326 -1.0641  0.4854  0.2981
 7328TIP3    H243400   4.480   5.962  10.431 -0.5251 -0.4993  0.0247
 7329TIP3   OH243401   3.290   3.487   0.557 -0.2436 -0.6209  0.0286
 7329TIP3    H143402   3.315   3.546   0.628 -0.5766  1.3823 -1.4021
 7329TIP3    H243403   3.208   3.525   0.523  0.7125 -0.5282 -2.3917
 7330TIP3   OH243404   4.608   0.056   0.131 -0.6081 -0.1413 -0.0627
 7330TIP3    H143405   4.630  -0.029   0.093 -0.2427 -0.9830  1.8740
 7330TIP3    H243406   4.520   0.044   0.166 -0.0031 -0.2320  1.5053
 7331TIP3   OH243407   3.182   3.906   1.269 -0.4589 -0.3609  0.0471
 7331TIP3    H143408   3.183   3.943   1.358  1.2332  0.9560 -0.4610
 7331TIP3    H243409   3.089   3.900   1.247 -0.8870  2.1266  0.8194
 7332TIP3   OH243410   1.614   4.705  13.499  0.1107 -0.6262  0.9296
 7332TIP3    H143411   1.658   4.778  13.457 -0.1103 -0.5059  0.9027
 7332TIP3    H243412   1.578   4.653  13.427  3.3051 -2.7903  0.6949
 7333TIP3   OH243413   5.882   2.971   6.022 -0.0359  0.5460 -0.2347
 7333TIP3    H143414   5.818   3.040   6.038 -0.4705 -0.2183  1.6689
 7333TIP3    H243415   5.964   3.005   6.059  0.1104  0.6397 -0.6467
 7334TIP3   OH243416   5.647   6.719  11.866 -0.2121  0.2820  0.3682
 7334TIP3    H143417   5.564   6.704  11.911  0.3380  1.3280  1.8402
 7334TIP3    H243418   5.713   6.683  11.926  0.4024 -0.8595 -0.9424
 7335TIP3   OH243419   0.422   1.300  14.069  0.3629 -0.6157 -0.3402
 7335TIP3    H143420   0.502   1.306  14.017  0.8720 -0.3306  0.4419
 7335TIP3    H243421   0.357   1.351  14.021  0.9996  0.1687 -0.3880
 7336TIP3   OH243422   6.694   3.073   5.219  0.0529 -0.2039  0.9085
 7336TIP3    H143423   6.774   3.022   5.228 -0.0259 -0.5911 -0.4431
 7336TIP3    H243424   6.723   3.164   5.231  0.2139 -0.4923  3.1619
 7337TIP3   OH243425   0.112   3.398   4.580  0.2174 -0.2425 -0.4114
 7337TIP3    H143426   0.128   3.369   4.670 -2.7923 -1.9303 -0.2850
 7337TIP3    H243427   0.042   3.462   4.588  0.8800  0.6497 -1.4860
 7338TIP3   OH243428   1.157   4.507   1.714  1.0118  0.4631 -0.1190
 7338TIP3    H143429   1.089   4.537   1.653  1.7423  2.6492  0.0733
 7338TIP3    H243430   1.176   4.583   1.769  3.1377 -0.2827  0.2742
 7339TIP3   OH243431   5.991   6.258   5.977  0.2254 -0.1840 -0.0416
 7339TIP3    H143432   5.966   6.291   5.891  0.3621 -1.4672 -0.5939
 7339TIP3    H243433   5.935   6.307   6.038  0.5433  1.1673 -0.7862
 7340TIP3   OH243434   3.674   3.052  14.858  0.2903  0.4559  0.0364
 7340TIP3    H143435   3.756   3.067  14.811  1.2134  3.9011  2.3627
 7340TIP3    H243436   3.605   3.080  14.798  1.0257  0.2629 -0.9120
 7341TIP3   OH243437   2.004   2.765  12.896  0.4775  0.0723  0.3250
 7341TIP3    H143438   1.932   2.735  12.842 -0.2996  0.9841  0.8265
 7341TIP3    H243439   2.028   2.690  12.950 -0.1777 -0.2007  0.2378
 7342TIP3   OH243440   5.364   0.471   1.657  0.4126 -0.0445 -0.6281
 7342TIP3    H143441   5.336   0.560   1.681 -0.7863 -0.7971  0.9296
 7342TIP3    H243442   5.306   0.414   1.707  0.1630 -1.7398 -2.7558
 7343TIP3   OH243443   6.796   2.201   1.387  0.2746  0.6406  0.4956
 7343TIP3    H143444   6.752   2.132   1.436  1.1654  1.1672  2.1264
 7343TIP3    H243445   6.886   2.169   1.376  1.1605  2.1293  2.6908
 7344TIP3   OH243446   4.128   4.467  14.938  0.7917 -0.6106  0.1570
 7344TIP3    H143447   4.076   4.413  14.998  1.4215 -0.7474  0.5854
 7344TIP3    H243448   4.072   4.543  14.921  0.4496 -0.7512  0.6129
 7345TIP3   OH243449   2.505   2.910  14.421  0.7285 -0.6648  0.2815
 7345TIP3    H143450   2.481   2.993  14.461 -0.3480 -0.4015 -0.8552
 7345TIP3    H243451   2.446   2.846  14.463  1.9878 -1.0063  1.6257
 7346TIP3   OH243452   2.046   4.266   4.504 -0.2674 -0.3408  0.1433
 7346TIP3    H143453   2.079   4.301   4.421 -1.3157 -0.2310 -0.2484
 7346TIP3    H243454   2.043   4.342   4.563  1.3350 -0.5897  0.5878
 7347TIP3   OH243455   2.081   4.516   3.486 -0.6912 -0.6699 -0.0989
 7347TIP3    H143456   2.093   4.610   3.475  0.6956 -0.8899 -0.6438
 7347TIP3    H243457   1.993   4.507   3.522  0.3273  1.0362  3.2001
 7348TIP3   OH243458   6.384   6.322   3.984  0.0763 -0.6798  0.1198
 7348TIP3    H143459   6.361   6.410   4.013 -0.3379 -1.0498  0.9885
 7348TIP3    H243460   6.477   6.326   3.964  1.0657 -0.8979  3.8464
 7349TIP3   OH243461   1.855   4.847  14.561  0.2769  0.3036 -0.2785
 7349TIP3    H143462   1.841   4.753  14.563 -0.9791  0.4514 -1.0834
 7349TIP3    H243463   1.840   4.876  14.651  1.8461 -0.3863  0.2414
 7350TIP3   OH243464   6.666   1.968  12.372  0.2144 -0.1249  0.2650
 7350TIP3    H143465   6.585   2.014  12.395  0.6018  0.7494 -0.0694
 7350TIP3    H243466   6.645   1.925  12.288 -0.1641 -0.6131  0.6025
 7351TIP3   OH243467   1.169   3.775   1.880  0.2936  0.5875  0.3336
 7351TIP3    H143468   1.254   3.759   1.921  0.1473  0.7038  0.6883
 7351TIP3    H243469   1.109   3.790   1.953 -0.2910 -0.6849  0.1309
 7352TIP3   OH243470   4.976   2.795   1.171  0.4710  0.5499 -0.1657
 7352TIP3    H143471   5.057   2.837   1.198  0.6243  1.1998 -1.5799
 7352TIP3    H243472   4.913   2.867   1.163  0.1539  0.2418 -0.5006
 7353TIP3   OH243473   4.981   3.355  15.023  0.2273  0.4326  0.4909
 7353TIP3    H143474   4.994   3.436  15.073  0.1453 -0.8474  2.7034
 7353TIP3    H243475   4.898   3.320  15.055 -0.2351 -0.0697 -1.1563
 7354TIP3   OH243476   3.828   6.126   4.399 -0.3432 -0.0870  0.1444
 7354TIP3    H143477   3.896   6.141   4.333 -0.0317  1.4098  0.7439
 7354TIP3    H243478   3.745   6.139   4.353 -0.1916 -0.7435 -0.3217
 7355TIP3   OH243479   3.297   4.017   0.648  0.0453  0.4468  0.5890
 7355TIP3    H143480   3.323   3.962   0.573 -0.4660  1.4104 -0.3221
 7355TIP3    H243481   3.335   4.103   0.629  1.5395  0.2556  2.4011
 7356TIP3   OH243482   0.251   4.788  12.212  0.6636  0.0037  0.2485
 7356TIP3    H143483   0.252   4.701  12.173 -1.7151 -0.7816  1.6885
 7356TIP3    H243484   0.285   4.775  12.301  0.1039  0.4883  0.5418
 7357TIP3   OH243485   2.239   0.423  12.379  0.0715 -0.7729 -0.7447
 7357TIP3    H143486   2.268   0.365  12.449 -1.8365  0.1659  0.9225
 7357TIP3    H243487   2.312   0.483  12.365  0.3068 -0.6691  0.8035
 7358TIP3   OH243488   0.265   0.640  11.875  0.2688 -0.0520 -0.1430
 7358TIP3    H143489   0.237   0.666  11.962  1.9681 -1.1953  0.8140
 7358TIP3    H243490   0.210   0.565  11.853 -1.1800  1.1382 -0.7448
 7359TIP3   OH243491   1.248   4.965  15.133 -0.5212  0.2738  0.0814
 7359TIP3    H143492   1.246   4.952  15.039 -0.1647 -1.7732  0.3132
 7359TIP3    H243493   1.171   5.019  15.152 -0.9906  0.1144 -1.2808
 7360TIP3   OH243494   0.681   1.655  14.354 -0.2566 -0.0841 -0.2788
 7360TIP3    H143495   0.601   1.685  14.311 -0.8914 -0.6538  0.4560
 7360TIP3    H243496   0.718   1.734  14.393 -0.1620  0.2767 -1.0756
 7361TIP3   OH243497   6.768   6.697  14.778 -0.1656  0.4530 -0.0184
 7361TIP3    H143498   6.739   6.661  14.694 -0.4215  0.2442  0.1563
 7361TIP3    H243499   6.859   6.723  14.763 -0.0200 -0.1445 -0.1853
 7362TIP3   OH243500   6.668   5.225   3.292  0.0050 -0.5295 -0.2433
 7362TIP3    H143501   6.655   5.132   3.312 -0.3699 -0.2989  0.5956
 7362TIP3    H243502   6.596   5.246   3.232 -1.7863 -0.0436  1.9449
 7363TIP3   OH243503   5.575   1.481  14.309  0.0773 -0.5172 -0.2210
 7363TIP3    H143504   5.627   1.561  14.318 -0.0278 -0.3147 -1.2472
 7363TIP3    H243505   5.605   1.424  14.380  0.8202  0.0722 -0.0496
 7364TIP3   OH243506   6.665   6.195  14.572 -0.7742 -0.4959  0.1129
 7364TIP3    H143507   6.748   6.152  14.554  0.5806  2.2101 -0.6764
 7364TIP3    H243508   6.631   6.218  14.485 -0.4248  1.6567  0.4851
 7365TIP3   OH243509   6.458   0.867   2.523  0.5075 -0.4231  0.2500
 7365TIP3    H143510   6.404   0.936   2.562  0.9486 -0.6897  1.3638
 7365TIP3    H243511   6.424   0.858   2.434  1.6138  2.4952 -0.5654
 7366TIP3   OH243512   2.574   2.424   2.307  0.3400 -0.1388  0.0583
 7366TIP3    H143513   2.614   2.370   2.240  0.0363  0.0078 -0.2429
 7366TIP3    H243514   2.644   2.440   2.371  0.2559 -1.4534  0.5000
 7367TIP3   OH243515   1.973   3.404  12.644  0.1673 -0.0682 -1.0710
 7367TIP3    H143516   2.022   3.484  12.662  1.3594 -0.8965 -0.4800
 7367TIP3    H243517   2.017   3.337  12.696 -0.3769 -1.2444 -2.0683
 7368TIP3   OH243518   2.982   6.259  13.829  0.4131  0.1198  0.1404
 7368TIP3    H143519   3.023   6.254  13.915 -0.6109  1.1665  0.7085
 7368TIP3    H243520   3.044   6.307  13.775  0.8934 -0.2189  0.3803
 7369TIP3   OH243521   6.665   3.686   3.656  0.0089  0.6633 -0.3097
 7369TIP3    H143522   6.626   3.697   3.569 -1.2806  0.2219  0.1921
 7369TIP3    H243523   6.658   3.773   3.696 -1.3944  0.3847  0.1236
 7370TIP3   OH243524   3.961   1.981   3.864 -0.1924  0.4329  0.2802
 7370TIP3    H143525   3.983   1.933   3.944 -0.3528 -0.6463 -0.3090
 7370TIP3    H243526   3.885   1.936   3.829 -0.6127  1.3917 -0.0706
 7371TIP3   OH243527   5.596   0.132  17.089  0.2134  0.0092 -0.2015
 7371TIP3    H143528   5.684   0.148  17.056  0.5446  1.0379  1.0701
 7371TIP3    H243529   5.607   0.061  17.153  0.2939  0.7256  0.5971
 7372TIP3   OH243530   6.059   5.492  12.190  0.1660  0.2964 -0.2772
 7372TIP3    H143531   6.009   5.556  12.140  0.3799  1.2177  0.6505
 7372TIP3    H243532   6.063   5.528  12.278  1.2905 -0.4264 -0.0068
 7373TIP3   OH243533   6.526   0.882   4.738  0.3931 -0.5847  0.3702
 7373TIP3    H143534   6.508   0.879   4.644 -0.9976  1.3044  0.5345
 7373TIP3    H243535   6.616   0.849   4.745  0.8756  0.1106 -1.7242
 7374TIP3   OH243536   3.264   5.988  12.937  0.0962  0.2453 -0.2713
 7374TIP3    H143537   3.323   6.048  12.983  0.0060 -1.0096  1.6197
 7374TIP3    H243538   3.277   5.904  12.981 -2.1781 -0.3619 -0.6474
 7375TIP3   OH243539   6.337   1.348  13.197 -0.3206 -0.2586 -0.3827
 7375TIP3    H143540   6.342   1.285  13.125  0.2374  0.1085 -0.6776
 7375TIP3    H243541   6.399   1.418  13.172  0.1152 -0.2778  0.5933
 7376TIP3   OH243542   2.395   1.870   1.317  0.2406 -0.4691  0.2259
 7376TIP3    H143543   2.345   1.949   1.334 -1.5259 -1.1548 -1.3882
 7376TIP3    H243544   2.335   1.798   1.340  1.3343 -1.3449  0.4388
 7377TIP3   OH243545   4.983   3.013   3.827  0.0577 -0.1469 -0.1778
 7377TIP3    H143546   4.948   3.085   3.774 -0.8817 -0.9890 -0.7461
 7377TIP3    H243547   5.048   2.971   3.771  0.4767  0.1430  0.0864
 7378TIP3   OH243548   4.090   3.412  11.532 -0.7010 -0.4934  0.2580
 7378TIP3    H143549   4.155   3.481  11.543 -0.8148 -0.2065 -0.7240
 7378TIP3    H243550   4.091   3.364  11.614  1.1166 -0.8163  0.0711
 7379TIP3   OH243551   4.955   5.470   1.692 -0.3556  0.1646  0.6435
 7379TIP3    H143552   4.988   5.528   1.624 -1.5651 -0.2864 -0.3568
 7379TIP3    H243553   5.006   5.390   1.682 -0.3086  0.2154  0.4727
 7380TIP3   OH243554   6.447   2.384  12.090 -0.4250 -0.3513  0.6018
 7380TIP3    H143555   6.362   2.340  12.086 -1.4055  1.4377  0.7547
 7380TIP3    H243556   6.460   2.418  12.002  1.0772 -2.2121  0.0505
 7381TIP3   OH243557   1.619   0.738  12.611  0.1370 -0.2832 -0.6042
 7381TIP3    H143558   1.597   0.649  12.638 -1.6840 -0.2609 -1.8631
 7381TIP3    H243559   1.618   0.789  12.692  0.7532 -1.3072  0.0616
 7382TIP3   OH243560   3.920   1.885   0.735 -0.3838  0.3456  0.4601
 7382TIP3    H143561   3.838   1.835   0.735 -0.6383  0.7440  1.5871
 7382TIP3    H243562   3.987   1.821   0.755 -0.6213  0.3029  1.1486
 7383TIP3   OH243563   6.708   5.776  12.689 -0.0179 -0.1432 -0.2587
 7383TIP3    H143564   6.613   5.773  12.679  0.0417 -2.5314 -0.7310
 7383TIP3    H243565   6.743   5.746  12.605  1.1527  0.5022 -0.0272
 7384TIP3   OH243566   4.006   2.411  13.286 -0.2291 -0.1966  0.3002
 7384TIP3    H143567   4.065   2.379  13.355  2.5757  0.9285 -1.3897
 7384TIP3    H243568   4.026   2.504  13.279 -2.4708  0.2927 -0.2136
 7385TIP3   OH243569   3.364   1.668   1.065  0.1410  0.1345 -0.5721
 7385TIP3    H143570   3.304   1.594   1.073  2.5211 -1.7727  1.1429
 7385TIP3    H243571   3.350   1.718   1.145  0.3997  0.0092 -0.4462
 7386TIP3   OH243572   0.938   4.464   0.392  0.1365 -0.4271 -0.2018
 7386TIP3    H143573   0.915   4.476   0.300  1.0392 -2.1065 -0.6861
 7386TIP3    H243574   0.897   4.382   0.417  0.5452 -0.3806  0.6555
 7387TIP3   OH243575   0.795   6.195  14.417 -0.6837 -0.4640 -0.6203
 7387TIP3    H143576   0.849   6.215  14.341 -2.2128  2.4018 -1.0965
 7387TIP3    H243577   0.717   6.152  14.381 -0.4434 -1.0924 -0.3997
 7388TIP3   OH243578   1.652   0.802  14.376  0.1904 -0.0853  0.5394
 7388TIP3    H143579   1.660   0.882  14.428  0.3267 -0.4152  1.0378
 7388TIP3    H243580   1.715   0.741  14.416  1.6732  0.2540 -1.1773
 7389TIP3   OH243581   1.378   5.668  12.779 -0.0738  0.2212 -0.6770
 7389TIP3    H143582   1.421   5.721  12.712 -0.4096  1.1916 -0.1507
 7389TIP3    H243583   1.350   5.589  12.733  1.0444  0.1799 -1.3339
 7390TIP3   OH243584   2.582   5.580   4.272  0.2406  0.0893  0.1496
 7390TIP3    H143585   2.556   5.545   4.187  2.2627  0.9546 -0.9008
 7390TIP3    H243586   2.663   5.533   4.293 -0.7033 -0.7608  2.0718
 7391TIP3   OH243587   6.131   3.107  13.217 -0.1387  0.1135  0.0503
 7391TIP3    H143588   6.179   3.168  13.272 -0.6741 -0.9316  1.7439
 7391TIP3    H243589   6.042   3.107  13.252 -1.3564  1.6431 -2.7183
 7392TIP3   OH243590   6.689   5.523   2.257 -0.0557  0.2805 -0.1283
 7392TIP3    H143591   6.601   5.557   2.241  0.2765  1.5195  0.5123
 7392TIP3    H243592   6.734   5.595   2.302  1.3518 -0.2433 -0.6568
 7393TIP3   OH243593   3.471   6.019  15.746 -0.2789 -0.0764 -0.5239
 7393TIP3    H143594   3.510   5.986  15.826  1.1758  2.8658  0.1370
 7393TIP3    H243595   3.538   6.006  15.679 -0.4058 -0.0825 -0.6513
 7394TIP3   OH243596   6.032   3.302   4.170  0.0545 -0.1385 -0.6173
 7394TIP3    H143597   6.122   3.274   4.183 -0.5093 -1.4056  0.9341
 7394TIP3    H243598   5.980   3.243   4.226 -1.6020  1.4275 -0.4017
 7395TIP3   OH243599   4.830   0.432  15.430  0.9171  0.0319  0.4974
 7395TIP3    H143600   4.916   0.399  15.457  2.3035  0.6747 -2.6548
 7395TIP3    H243601   4.848   0.522  15.401 -0.6286 -0.0677 -0.9005
 7396TIP3   OH243602   0.347   0.061  14.090 -0.5556 -0.4351  0.2991
 7396TIP3    H143603   0.391  -0.024  14.093  0.2369 -0.0338  0.3082
 7396TIP3    H243604   0.311   0.066  14.001  1.2520  0.1173 -0.4401
 7397TIP3   OH243605   1.424   0.848  13.686  0.7502 -0.0861 -0.4081
 7397TIP3    H143606   1.477   0.922  13.717  0.4454 -0.4991  1.2123
 7397TIP3    H243607   1.427   0.854  13.591  2.1166  1.0274 -0.3234
 7398TIP3   OH243608   1.158   5.821  15.521  0.0951  0.4237  0.4346
 7398TIP3    H143609   1.194   5.777  15.598 -3.1880 -1.3457  1.1490
 7398TIP3    H243610   1.188   5.769  15.446 -1.4710 -1.5507  1.0746
 7399TIP3   OH243611   0.944   0.221  13.453 -0.1675 -0.5234  0.5996
 7399TIP3    H143612   0.990   0.182  13.379 -0.7767 -2.1218  1.0134
 7399TIP3    H243613   0.858   0.178  13.453 -0.4233 -0.0711  1.8351
 7400TIP3   OH243614   4.486   1.859  15.191  0.7345  0.4817  0.2225
 7400TIP3    H143615   4.416   1.802  15.158  0.4673  0.2727  1.1319
 7400TIP3    H243616   4.558   1.847  15.129  0.1371  0.3406 -0.4627
 7401TIP3   OH243617   1.580   3.782   5.062  0.7316 -0.3769  0.3442
 7401TIP3    H143618   1.529   3.846   5.111 -2.1665 -2.4284  0.2792
 7401TIP3    H243619   1.589   3.819   4.975 -0.3059  0.2267  0.4856
 7402TIP3   OH243620   3.223   3.384   4.152  0.5888  0.0909 -0.0764
 7402TIP3    H143621   3.172   3.440   4.094 -0.6307  0.0328  0.8981
 7402TIP3    H243622   3.174   3.302   4.155  1.3010 -0.3391  0.0708
 7403TIP3   OH243623   5.058   1.624  12.928  0.2204 -0.2492  0.0102
 7403TIP3    H143624   4.978   1.669  12.900 -0.2756 -1.5890 -0.8340
 7403TIP3    H243625   5.129   1.676  12.891 -0.3724 -0.7926 -2.0756
 7404TIP3   OH243626   5.734   6.709  15.053 -0.1061  0.2902 -0.7454
 7404TIP3    H143627   5.688   6.757  15.123  0.3281 -0.2418 -0.0839
 7404TIP3    H243628   5.810   6.670  15.097  0.7120  0.7492 -1.7251
 7405TIP3   OH243629   3.737   4.602  12.955  1.0674 -0.3665  0.4579
 7405TIP3    H143630   3.665   4.555  12.913 -0.1719 -0.0130  2.0679
 7405TIP3    H243631   3.797   4.625  12.884 -0.5632 -0.4009 -0.9650
 7406TIP3   OH243632   0.605   1.348  13.374 -0.2652 -0.4815  0.1767
 7406TIP3    H143633   0.572   1.422  13.324 -0.3669 -1.3854 -1.1252
 7406TIP3    H243634   0.527   1.299  13.399 -0.4771  1.2196  3.4160
 7407TIP3   OH243635   3.713   4.288   6.118  0.4919 -0.0426  0.9195
 7407TIP3    H143636   3.701   4.350   6.190  3.4848  0.1150  1.3945
 7407TIP3    H243637   3.726   4.203   6.162  2.6896  0.1145  0.6549
 7408TIP3   OH243638   4.084   3.344  12.575  0.3811 -0.0367  0.5777
 7408TIP3    H143639   4.138   3.282  12.624  1.2468 -0.2615 -0.6113
 7408TIP3    H243640   4.064   3.298  12.493 -1.7217  0.0062  1.0107
 7409TIP3   OH243641   2.629   0.413  11.920  0.1778 -0.1890  0.7694
 7409TIP3    H143642   2.714   0.408  11.877 -0.3960  0.1844 -0.4313
 7409TIP3    H243643   2.619   0.327  11.962 -0.4231 -1.6667 -2.1411
 7410TIP3   OH243644   5.480   1.107  12.525  0.1096 -0.2791  0.6117
 7410TIP3    H143645   5.560   1.158  12.514  0.0817 -0.5623 -1.4141
 7410TIP3    H243646   5.468   1.064  12.440 -0.7600 -2.3495  1.7147
 7411TIP3   OH243647   3.974   1.919  11.569 -0.1509  0.2454  0.1466
 7411TIP3    H143648   3.989   1.910  11.663 -0.8522  2.1808  0.4989
 7411TIP3    H243649   3.924   2.000  11.560  0.5873  0.5486 -1.9679
 7412TIP3   OH243650   2.427   1.536  13.344  0.2100 -0.4479  0.2625
 7412TIP3    H143651   2.511   1.569  13.313 -0.1946 -0.6757 -1.1485
 7412TIP3    H243652   2.421   1.447  13.308 -1.5758  0.3347 -1.5884
 7413TIP3   OH243653   6.701   4.874   3.046 -0.6947  0.5471 -0.4489
 7413TIP3    H143654   6.725   4.810   3.113  4.2286  1.1004 -1.3016
 7413TIP3    H243655   6.650   4.823   2.982 -0.4361 -1.4432  0.8367
 7414TIP3   OH243656   5.182   6.272   0.919  0.1205 -0.2345  0.1984
 7414TIP3    H143657   5.204   6.295   0.829 -0.3679 -1.7309 -0.3324
 7414TIP3    H243658   5.143   6.186   0.913  1.5316 -1.0852  2.0253
 7415TIP3   OH243659   0.899   2.233   4.606  0.5752 -0.5722  0.5365
 7415TIP3    H143660   0.831   2.267   4.548  0.7648 -0.0732  0.6060
 7415TIP3    H243661   0.963   2.193   4.547  0.7286 -0.1348  0.4055
 7416TIP3   OH243662   0.136   1.854  10.848  0.0809 -0.6160 -0.5329
 7416TIP3    H143663   0.195   1.860  10.772 -0.3299  1.6955 -0.7361
 7416TIP3    H243664   0.194   1.850  10.924  0.4816 -1.8439 -0.8710
 7417TIP3   OH243665   5.310   1.805  17.106  0.3716  0.2131  0.3588
 7417TIP3    H143666   5.356   1.790  17.024  0.9918  0.2597  0.6953
 7417TIP3    H243667   5.312   1.720  17.150  2.1774  0.7474  1.4006
 7418TIP3   OH243668   0.154   0.390  14.319 -0.3469 -0.1501 -0.3792
 7418TIP3    H143669   0.247   0.407  14.307 -0.2001 -1.6689 -1.6187
 7418TIP3    H243670   0.111   0.468  14.285  0.4483  0.8148  0.7168
 7419TIP3   OH243671   5.270   4.479  14.805  0.2334 -0.3353 -0.0883
 7419TIP3    H143672   5.363   4.501  14.808  0.5868 -1.4660 -1.6539
 7419TIP3    H243673   5.257   4.422  14.881  0.9692 -0.6929 -0.2230
 7420TIP3   OH243674   5.316   3.862   4.948  0.2104 -0.1246  0.4328
 7420TIP3    H143675   5.337   3.840   4.858  1.6418 -2.6074  1.2805
 7420TIP3    H243676   5.365   3.799   5.001  0.4542  2.0398  3.0186
 7421TIP3   OH243677   1.577   6.691  16.482 -0.8834 -0.0338  0.2992
 7421TIP3    H143678   1.655   6.724  16.438 -1.9993  0.4385 -1.4303
 7421TIP3    H243679   1.608   6.665  16.568  1.2312 -0.0938 -0.4046
 7422TIP3   OH243680   5.699   4.015   2.964  0.1385 -0.0649 -0.3289
 7422TIP3    H143681   5.771   4.077   2.952  0.8850 -1.3042 -2.5759
 7422TIP3    H243682   5.723   3.938   2.913 -2.0328 -1.1680  0.1784
 7423TIP3   OH243683   1.132   1.808  11.565 -0.2990 -0.1014  0.2131
 7423TIP3    H143684   1.120   1.903  11.568 -1.8056 -0.2938  1.5837
 7423TIP3    H243685   1.115   1.779  11.655  1.4612 -1.5490  0.1307
 7424TIP3   OH243686   0.092   3.789  14.467 -0.4019  0.6140 -0.0655
 7424TIP3    H143687   0.145   3.720  14.507  0.5164  0.4855 -1.4642
 7424TIP3    H243688   0.034   3.743  14.406 -1.3566  0.8756  0.6097
 7425TIP3   OH243689   5.500   0.096  14.110 -0.5440 -0.5659  0.5516
 7425TIP3    H143690   5.550   0.132  14.037  2.4867 -2.6602  1.4021
 7425TIP3    H243691   5.506   0.162  14.179 -2.6654  1.0251 -0.6560
 7426TIP3   OH243692   3.963   4.279   5.080  0.0111 -0.0850 -0.0709
 7426TIP3    H143693   4.043   4.322   5.110 -1.1110  0.2344  2.7449
 7426TIP3    H243694   3.915   4.347   5.032  0.9186  0.0201 -0.8521
 7427TIP3   OH243695   5.071   1.531   4.951 -0.2942  0.6672  0.2214
 7427TIP3    H143696   5.028   1.569   5.028 -3.1976 -0.0752 -0.9097
 7427TIP3    H243697   5.060   1.597   4.883  0.4565  0.4597 -0.1095
 7428TIP3   OH243698   2.300   4.163   0.503 -0.7899  0.6844  0.5131
 7428TIP3    H143699   2.269   4.078   0.472  1.5478  0.8826 -2.7699
 7428TIP3    H243700   2.246   4.181   0.581 -1.7565 -3.4626  1.0091
 7429TIP3   OH243701   1.414   5.852   4.329  0.2433 -0.2621 -0.5361
 7429TIP3    H143702   1.496   5.894   4.302 -0.0710  1.0465  0.3945
 7429TIP3    H243703   1.367   5.922   4.375 -0.6154 -1.4741  0.4825
 7430TIP3   OH243704   6.159   5.319  12.671  0.2930 -0.1683 -0.8153
 7430TIP3    H143705   6.166   5.315  12.767 -1.0219  0.0485 -0.6953
 7430TIP3    H243706   6.144   5.228  12.645  1.2125 -0.3126 -0.8813
 7431TIP3   OH243707   4.818   4.884   3.344 -0.2234  0.4183  0.2664
 7431TIP3    H143708   4.903   4.917   3.314 -0.4654  2.5030  1.6951
 7431TIP3    H243709   4.839   4.830   3.420  0.0048 -1.4583 -1.0405
 7432TIP3   OH243710   5.473   1.477  15.156 -0.1664  0.3256 -0.5920
 7432TIP3    H143711   5.507   1.391  15.180 -0.1933  0.4420 -0.1392
 7432TIP3    H243712   5.381   1.475  15.181  0.1475  0.9549  0.6681
 7433TIP3   OH243713   5.969   3.238   1.100  0.2734 -0.1807 -0.3124
 7433TIP3    H143714   5.899   3.278   1.048 -0.2375 -1.7397 -0.8763
 7433TIP3    H243715   5.938   3.150   1.118  0.8301  0.0142  1.9428
 7434TIP3   OH243716   3.846   1.323   6.056 -0.3270 -0.2530 -0.0036
 7434TIP3    H143717   3.928   1.335   6.007  0.7278 -1.7181  1.3182
 7434TIP3    H243718   3.866   1.352   6.145 -1.4844  0.0767  0.1715
 7435TIP3   OH243719   4.550   5.980   4.196 -0.2725  0.2191 -0.2548
 7435TIP3    H143720   4.514   6.062   4.230 -0.7808  0.6044 -1.6413
 7435TIP3    H243721   4.571   5.999   4.104  0.1483 -1.0330 -0.4403
 7436TIP3   OH243722   0.791   2.612  17.125  0.6349  0.0306  0.1130
 7436TIP3    H143723   0.807   2.700  17.160 -0.3292 -0.0597  0.8271
 7436TIP3    H243724   0.760   2.561  17.201 -0.9354 -0.3266 -0.7223
 7437TIP3   OH243725   2.934   5.510   5.330 -0.2883 -0.2243  0.1356
 7437TIP3    H143726   2.970   5.523   5.243 -0.3390 -1.8077 -0.1534
 7437TIP3    H243727   2.956   5.590   5.378 -1.1812  1.1187 -1.6139
 7438TIP3   OH243728   2.268   2.710   3.322  0.0803  0.5627 -0.8345
 7438TIP3    H143729   2.247   2.802   3.306 -2.0797  0.6591  1.7252
 7438TIP3    H243730   2.306   2.709   3.410 -1.1115 -1.0595 -0.2792
 7439TIP3   OH243731   3.336   2.184  15.206 -0.4494 -0.4565  0.3268
 7439TIP3    H143732   3.415   2.139  15.236 -0.5563  0.3404  1.9069
 7439TIP3    H243733   3.368   2.253  15.148 -0.0499 -0.6892  0.2702
 7440TIP3   OH243734   0.776   3.630  13.329  0.0106  0.1985  0.3123
 7440TIP3    H143735   0.815   3.608  13.413 -0.3351  0.0912  0.4455
 7440TIP3    H243736   0.809   3.718  13.309  0.7849 -0.1128  0.1439
 7441TIP3   OH243737   5.319   4.194  11.783 -0.0051 -0.4461  0.6058
 7441TIP3    H143738   5.230   4.165  11.801  0.0141 -0.8569  0.0758
 7441TIP3    H243739   5.329   4.184  11.688  0.4814 -0.0543  0.6107
 7442TIP3   OH243740   3.540   1.486   2.760 -0.3362 -0.1893  0.1148
 7442TIP3    H143741   3.493   1.403   2.750  1.0617 -0.8365 -1.9622
 7442TIP3    H243742   3.626   1.460   2.795  0.1944  0.3059 -0.7694
 7443TIP3   OH243743   5.307   4.931  10.317 -0.0822 -0.0451 -0.4150
 7443TIP3    H143744   5.336   5.000  10.377 -2.2263 -0.0243  0.6983
 7443TIP3    H243745   5.241   4.882  10.367 -4.0153  1.5662 -3.4693
 7444TIP3   OH243746   5.450   6.167   4.508  0.2258  0.5192  0.2466
 7444TIP3    H143747   5.423   6.076   4.519  1.1105  0.0080 -1.3844
 7444TIP3    H243748   5.537   6.161   4.467 -0.1136  2.0706 -0.7920
 7445TIP3   OH243749   6.274   6.572   4.116  0.1727 -0.5580  0.3637
 7445TIP3    H143750   6.203   6.635   4.113  0.5072 -0.1511  0.7860
 7445TIP3    H243751   6.275   6.540   4.207  0.4781 -0.6167  0.3430
 7446TIP3   OH243752   5.600   4.844   0.431 -0.1325  0.6988 -0.1607
 7446TIP3    H143753   5.520   4.885   0.397 -0.1788  0.8102  0.0766
 7446TIP3    H243754   5.668   4.909   0.418 -0.3229  1.1011  0.7694
 7447TIP3   OH243755   0.458   2.977  13.484 -0.2331  0.2455 -0.4369
 7447TIP3    H143756   0.486   3.031  13.410  0.0605  0.3063 -0.2808
 7447TIP3    H243757   0.364   2.989  13.488 -0.2797  0.0706 -0.9428
 7448TIP3   OH243758   2.100   0.987   4.918 -0.0111 -0.5439  0.1147
 7448TIP3    H143759   2.154   1.025   4.849  0.2058 -2.2628 -0.7120
 7448TIP3    H243760   2.026   0.948   4.872 -2.6983  2.6949  1.2735
 7449TIP3   OH243761   0.280   0.831  14.229  0.2820 -0.5681  0.2422
 7449TIP3    H143762   0.271   0.836  14.324 -0.2566  1.2424  0.1484
 7449TIP3    H243763   0.198   0.869  14.196  0.5223 -1.0385 -0.9453
 7450TIP3   OH243764   3.608   6.419  12.922 -0.7702  0.0186 -0.0185
 7450TIP3    H143765   3.651   6.464  12.851  1.9240 -1.3596  0.6162
 7450TIP3    H243766   3.630   6.470  13.000 -1.7370  0.2254  0.1317
 7451TIP3   OH243767   0.181   6.727  12.622  0.7941  0.3234 -0.0451
 7451TIP3    H143768   0.254   6.686  12.576 -0.0069 -0.3946 -0.7044
 7451TIP3    H243769   0.133   6.654  12.662  0.4010  0.7807  0.3367
 7452TIP3   OH243770   5.447   0.406   3.028  0.2357  0.4001 -0.0840
 7452TIP3    H143771   5.411   0.466   2.963  0.5670 -0.2900 -0.9349
 7452TIP3    H243772   5.539   0.397   3.004  0.1826 -0.4746 -0.0003
 7453TIP3   OH243773   6.693   1.769  15.866  0.5075 -0.5933 -0.3054
 7453TIP3    H143774   6.721   1.777  15.775  1.1817  1.3366  0.0274
 7453TIP3    H243775   6.654   1.681  15.872 -0.7375 -0.2937 -2.7673
 7454TIP3   OH243776   5.389   1.078   5.978 -0.1169 -0.1444  0.3864
 7454TIP3    H143777   5.457   1.111   5.919  0.1174  0.5167  1.0026
 7454TIP3    H243778   5.393   1.137   6.054  0.3555 -1.6373  1.5817
 7455TIP3   OH243779   6.177   2.842   2.944  0.0661 -0.0734 -0.2251
 7455TIP3    H143780   6.106   2.849   3.009  0.3636  1.0634  0.0122
 7455TIP3    H243781   6.133   2.850   2.860 -0.0748  1.1043 -0.0682
 7456TIP3   OH243782   5.263   0.753   4.079 -0.8360  0.0851  0.2065
 7456TIP3    H143783   5.306   0.835   4.102 -2.5990  1.1727 -0.2154
 7456TIP3    H243784   5.268   0.749   3.984 -2.1685  0.5503  0.0955
 7457TIP3   OH243785   6.748   0.976  12.329  0.0787 -0.1203 -0.4432
 7457TIP3    H143786   6.818   0.946  12.386  0.4275  0.7988 -0.3657
 7457TIP3    H243787   6.726   0.900  12.275 -0.6041 -1.1717  1.2394
 7458TIP3   OH243788   4.905   1.461   1.626 -0.4236 -0.7014  0.5941
 7458TIP3    H143789   4.959   1.419   1.559  0.4439  1.6501 -0.3162
 7458TIP3    H243790   4.908   1.401   1.700  0.7097 -2.2075 -0.5847
 7459TIP3   OH243791   3.628   4.811  13.140  0.0055  0.2174  0.0114
 7459TIP3    H143792   3.586   4.892  13.108 -1.3561 -0.2606  0.5240
 7459TIP3    H243793   3.655   4.766  13.060 -0.0209  0.7657 -0.3175
 7460TIP3   OH243794   5.953   2.343   2.541  0.4210  0.1186  0.0647
 7460TIP3    H143795   6.023   2.385   2.491  0.4374  1.0074  0.8077
 7460TIP3    H243796   5.956   2.384   2.627 -1.9172  1.2525 -0.3025
 7461TIP3   OH243797   4.401   0.321   2.824  0.2256  0.7774  0.1105
 7461TIP3    H143798   4.335   0.387   2.844  0.2203  0.0018  3.0680
 7461TIP3    H243799   4.352   0.248   2.787 -0.4390  0.6713  1.1738
 7462TIP3   OH243800   3.754   5.384   0.885  0.2831 -0.0001  1.0250
 7462TIP3    H143801   3.770   5.472   0.919  1.4076  1.1793 -2.1941
 7462TIP3    H243802   3.659   5.380   0.873  0.0536  0.1540  2.5967
 7463TIP3   OH243803   2.249   0.454  14.921  0.1262 -0.2851  1.0314
 7463TIP3    H143804   2.216   0.515  14.987  0.8763  0.5318  0.6677
 7463TIP3    H243805   2.322   0.500  14.880  0.6544 -1.4039  0.6903
 7464TIP3   OH243806   2.584   4.446  14.200 -0.5437  0.0810 -0.1700
 7464TIP3    H143807   2.559   4.454  14.108 -2.0340  1.3292  0.2895
 7464TIP3    H243808   2.597   4.352  14.213  1.7875  0.0490 -2.1162
 7465TIP3   OH243809   6.394   5.786   3.707  0.4112 -0.3646 -0.5436
 7465TIP3    H143810   6.388   5.809   3.614 -2.0639 -0.0987 -0.3883
 7465TIP3    H243811   6.307   5.806   3.742  0.7377 -2.1399  1.4562
 7466TIP3   OH243812   3.949   0.928  12.991 -0.5232  0.3315 -0.5145
 7466TIP3    H143813   3.972   1.019  13.007 -1.2115  0.2261  1.3590
 7466TIP3    H243814   4.031   0.880  13.001 -0.8483  0.2698  3.2958
 7467TIP3   OH243815   1.251   1.180  13.613 -0.2991  0.6592 -0.9472
 7467TIP3    H143816   1.342   1.204  13.627 -0.2992  0.6898 -0.9993
 7467TIP3    H243817   1.248   1.086  13.634 -0.6154  1.0108  0.7375
 7468TIP3   OH243818   3.062   4.498   2.461  0.0336  0.6107 -0.8538
 7468TIP3    H143819   3.105   4.537   2.537  1.1599 -0.4033 -0.9269
 7468TIP3    H243820   3.055   4.569   2.398  0.4746  1.1084 -0.3532
 7469TIP3   OH243821   0.828   2.574  12.859 -0.0229  0.3894 -0.2457
 7469TIP3    H143822   0.861   2.573  12.949 -0.2187 -0.9566 -0.1724
 7469TIP3    H243823   0.765   2.647  12.858  2.1980  2.4324 -0.1645
 7470TIP3   OH243824   4.262   6.496   4.030 -0.1222  0.2919  0.1940
 7470TIP3    H143825   4.199   6.518   4.100 -0.0184 -1.6235  0.9551
 7470TIP3    H243826   4.209   6.493   3.951 -0.6315  0.5797  0.5147
 7471TIP3   OH243827   6.633   0.546  15.308 -0.3564  0.0638  0.4138
 7471TIP3    H143828   6.686   0.624  15.324 -0.2172 -0.2700  1.7231
 7471TIP3    H243829   6.589   0.563  15.225 -0.5749  1.6646  0.8298
 7472TIP3   OH243830   4.657   0.954  11.227 -0.6218  0.0451 -0.2546
 7472TIP3    H143831   4.685   0.984  11.140  3.2817 -1.7810  0.1786
 7472TIP3    H243832   4.632   1.034  11.273 -0.0703  1.4001 -2.1771
 7473TIP3   OH243833   0.040   5.960   0.861 -0.2787 -0.3283  0.3343
 7473TIP3    H143834   0.007   5.872   0.842  1.8644 -0.7457 -1.9843
 7473TIP3    H243835   0.012   6.013   0.786  1.2737  0.1376  0.0527
 7474TIP3   OH243836   4.237   0.644   6.049 -0.5706 -0.0759 -0.1885
 7474TIP3    H143837   4.142   0.654   6.035 -0.7381 -0.3008  0.6936
 7474TIP3    H243838   4.253   0.688   6.132  0.2287  0.5356 -0.6604
 7475TIP3   OH243839   0.369   0.823  13.307 -0.1849 -0.5266  0.3108
 7475TIP3    H143840   0.293   0.842  13.252  0.0580 -0.7432 -0.1005
 7475TIP3    H243841   0.335   0.763  13.374 -0.5262 -0.0999  0.5207
 7476TIP3   OH243842   4.325   0.122  12.442  0.0391  0.2740  0.4982
 7476TIP3    H143843   4.338   0.034  12.409  1.1916  0.6826 -0.1927
 7476TIP3    H243844   4.299   0.110  12.534 -0.0098 -0.7743  0.3539
 7477TIP3   OH243845   1.542   3.164   4.915  0.0097 -0.0779 -0.3168
 7477TIP3    H143846   1.606   3.134   4.851  0.9143  1.7785 -0.3511
 7477TIP3    H243847   1.546   3.259   4.910 -2.8669  0.1264 -0.3994
 7478TIP3   OH243848   5.685   3.846  16.218 -0.0730 -0.4115  0.1581
 7478TIP3    H143849   5.716   3.810  16.301 -0.6069 -0.5562  0.3029
 7478TIP3    H243850   5.754   3.826  16.155  1.8440  2.4350  1.1509
 7479TIP3   OH243851   0.416   4.457   4.739 -0.0480 -0.2639  0.1265
 7479TIP3    H143852   0.322   4.457   4.721 -0.3236  2.4859  1.1289
 7479TIP3    H243853   0.457   4.465   4.653 -0.9325  2.3824 -0.1258
 7480TIP3   OH243854   3.629   1.322  11.973 -0.3577  0.9061  0.3351
 7480TIP3    H143855   3.551   1.374  11.954 -1.7126 -0.9335  0.6015
 7480TIP3    H243856   3.654   1.349  12.062 -1.4377  0.6480  0.7362
 7481TIP3   OH243857   0.952   4.511   3.930  0.6179 -0.2790 -0.5539
 7481TIP3    H143858   0.932   4.427   3.888 -2.2402  1.0996 -2.2537
 7481TIP3    H243859   0.968   4.571   3.857 -0.2009  1.2421  0.4674
 7482TIP3   OH243860   5.277   5.340  11.756  0.1611 -0.0140 -0.0205
 7482TIP3    H143861   5.196   5.389  11.741  1.2450  1.2982 -2.1280
 7482TIP3    H243862   5.341   5.381  11.698  1.5851 -2.9081 -0.7284
 7483TIP3   OH243863   1.125   3.848  11.585  0.6895  0.6032  0.3676
 7483TIP3    H143864   1.089   3.931  11.556  1.7496  0.9339 -0.0318
 7483TIP3    H243865   1.145   3.862  11.678  1.4674  1.0134  0.1438
 7484TIP3   OH243866   1.049   0.225  10.519 -0.2340 -0.7138  0.1390
 7484TIP3    H143867   1.081   0.244  10.430 -0.8078  0.9551  0.2461
 7484TIP3    H243868   0.965   0.271  10.524 -0.0696 -0.5337  1.6458
 7485TIP3   OH243869   4.455   2.927  15.917  0.2703  0.4569 -0.1925
 7485TIP3    H143870   4.455   3.021  15.898 -1.7501  0.0496 -2.7691
 7485TIP3    H243871   4.380   2.914  15.975  0.7660  0.4173  0.4666
 7486TIP3   OH243872   5.599   5.362  14.628  0.0200  1.1924  0.1691
 7486TIP3    H143873   5.601   5.306  14.705 -0.2900 -0.1762 -0.7889
 7486TIP3    H243874   5.675   5.335  14.576 -2.1189 -0.9883 -2.0574
 7487TIP3   OH243875   2.282   4.457  13.722 -0.0785 -0.2948  0.6169
 7487TIP3    H143876   2.246   4.413  13.799 -1.2326 -2.6221 -1.1286
 7487TIP3    H243877   2.347   4.395  13.688 -0.4147  0.1511 -0.9090
 7488TIP3   OH243878   5.268   6.061  14.055 -0.0093 -0.5406 -0.2304
 7488TIP3    H143879   5.286   6.089  14.145  0.7025  0.6977 -0.7235
 7488TIP3    H243880   5.204   6.125  14.023  0.1226 -0.6687 -0.7566
 7489TIP3   OH243881   3.835   2.477   5.381  0.7561 -0.5893 -0.1580
 7489TIP3    H143882   3.799   2.401   5.335  0.4731 -0.0805 -0.7966
 7489TIP3    H243883   3.875   2.530   5.311  0.7409 -0.0387  0.2498
 7490TIP3   OH243884   6.419   1.591  11.333  0.1278  0.2003  0.2346
 7490TIP3    H143885   6.510   1.564  11.337  0.9104  1.7191 -3.6477
 7490TIP3    H243886   6.422   1.686  11.323 -2.1023  0.6709  2.7762
 7491TIP3   OH243887   0.818   1.940  12.537 -0.2170  0.0654  0.0680
 7491TIP3    H143888   0.814   1.865  12.596 -1.1357  1.5568  2.0417
 7491TIP3    H243889   0.772   1.911  12.458  0.0797 -1.6509  0.4934
 7492TIP3   OH243890   1.369   6.744  13.075  0.5037  0.3526 -0.4042
 7492TIP3    H143891   1.291   6.688  13.084  0.9438 -0.0790  0.9466
 7492TIP3    H243892   1.342   6.813  13.015 -0.2693 -0.9314 -1.6174
 7493TIP3   OH243893   3.025   5.595   3.652 -0.2663 -0.0500 -0.4478
 7493TIP3    H143894   3.018   5.531   3.723  0.3734 -0.6503 -0.9112
 7493TIP3    H243895   3.117   5.622   3.654 -0.3633  0.3057 -0.7262
 7494TIP3   OH243896   6.266   3.323   0.645  0.3651  0.8015 -0.0174
 7494TIP3    H143897   6.211   3.390   0.685  1.5957  2.0751 -0.3660
 7494TIP3    H243898   6.325   3.372   0.587 -0.3180 -0.8206 -2.2179
 7495TIP3   OH243899   5.226   5.650  16.704 -0.0196  0.6049  0.1706
 7495TIP3    H143900   5.306   5.652  16.757  1.0506  0.3661 -1.3821
 7495TIP3    H243901   5.216   5.558  16.680 -0.9216  0.5914  0.5328
 7496TIP3   OH243902   3.798   0.182   1.993 -0.5189 -0.0870  0.0800
 7496TIP3    H143903   3.757   0.267   2.010  1.7612  0.7855  1.9893
 7496TIP3    H243904   3.758   0.123   2.056  2.2176  1.2408  3.4419
 7497TIP3   OH243905   6.143   1.162  13.523 -0.0638  0.1327  0.5455
 7497TIP3    H143906   6.090   1.192  13.449  0.4439 -0.9341 -0.2793
 7497TIP3    H243907   6.086   1.174  13.599 -0.8457  0.6218 -0.0951
 7498TIP3   OH243908   3.894   6.179  14.737  0.4304 -0.1369 -0.4025
 7498TIP3    H143909   3.845   6.135  14.668  1.1584 -1.7164  0.0288
 7498TIP3    H243910   3.986   6.167  14.713  0.8411 -2.9800  2.0073
 7499TIP3   OH243911   1.923   5.255   5.461  0.0627 -0.3862  0.2979
 7499TIP3    H143912   1.989   5.185   5.459  1.4076  0.8231  0.2089
 7499TIP3    H243913   1.851   5.219   5.511  0.8013 -1.7755  0.4068
 7500TIP3   OH243914   3.732   2.990  12.033 -0.2487  0.1436  0.5583
 7500TIP3    H143915   3.802   2.936  11.997  0.6971  2.1589 -0.7596
 7500TIP3    H243916   3.760   3.009  12.123  0.2033 -0.2173  0.4974
 7501TIP3   OH243917   5.040   3.807   5.876 -0.4318  0.2730  0.3279
 7501TIP3    H143918   5.104   3.878   5.871 -1.6485  1.4330  0.6170
 7501TIP3    H243919   5.053   3.758   5.795 -0.3258  1.5108 -0.4390
 7502TIP3   OH243920   5.306   6.567  11.380 -0.2911 -0.0451 -0.0142
 7502TIP3    H143921   5.342   6.479  11.369  0.0207 -0.1913  1.9150
 7502TIP3    H243922   5.257   6.563  11.462  0.8934  1.9142  0.8724
 7503TIP3   OH243923   0.820   0.439   1.657 -0.2467 -0.5328 -0.0639
 7503TIP3    H143924   0.856   0.505   1.598 -0.1763  0.4826  1.0712
 7503TIP3    H243925   0.732   0.471   1.679 -1.0321 -1.8762 -1.0976
 7504TIP3   OH243926   6.646   5.641  13.828 -0.2577 -0.3268  0.1980
 7504TIP3    H143927   6.649   5.698  13.751  0.5781 -0.4809  0.1055
 7504TIP3    H243928   6.693   5.689  13.895 -1.6653  0.1606  0.8821
 7505TIP3   OH243929   3.260   0.583   4.009  1.0263  0.1727  0.1915
 7505TIP3    H143930   3.174   0.543   4.023  0.7064  0.0579 -1.8241
 7505TIP3    H243931   3.241   0.669   3.972  1.7829  0.1008 -0.3804
 7506TIP3   OH243932   5.322   3.049   4.605 -0.1101  0.3592 -0.1785
 7506TIP3    H143933   5.293   3.035   4.515  0.5586 -0.4616 -0.2780
 7506TIP3    H243934   5.397   2.991   4.616  0.7536  1.5517  0.4466
 7507TIP3   OH243935   5.794   4.566  13.594  0.7655 -0.2009  0.0645
 7507TIP3    H143936   5.838   4.491  13.633 -1.6268 -1.8817 -0.2522
 7507TIP3    H243937   5.709   4.533  13.567 -0.5703  2.7384  0.2368
 7508TIP3   OH243938   4.356   1.367   1.863 -0.2763  0.2141 -0.7056
 7508TIP3    H143939   4.310   1.392   1.782  1.6323  1.5841 -1.4545
 7508TIP3    H243940   4.437   1.326   1.832 -0.0313 -0.2645  0.5365
 7509TIP3   OH243941   4.444   3.561  15.576 -0.1863  0.5790  0.4490
 7509TIP3    H143942   4.444   3.561  15.672  1.2759  0.3963  0.4787
 7509TIP3    H243943   4.379   3.495  15.552 -0.5876  0.6428  1.3093
 7510TIP3   OH243944   1.887   6.798   1.711 -0.2169  0.6431 -0.0542
 7510TIP3    H143945   1.938   6.772   1.788 -2.0608  0.7322  1.2671
 7510TIP3    H243946   1.908   6.891   1.699 -0.2840  0.7586  0.6590
 7511TIP3   OH243947   3.414   2.172   2.988 -0.2906 -0.4944 -0.0763
 7511TIP3    H143948   3.342   2.226   2.956  1.1316  1.1274 -0.7556
 7511TIP3    H243949   3.422   2.101   2.924  0.4809  0.9317 -1.6751
 7512TIP3   OH243950   3.999   4.663  11.401  0.2255  0.6699  0.2332
 7512TIP3    H143951   3.976   4.723  11.330 -0.5412  0.0243 -0.0860
 7512TIP3    H243952   4.090   4.638  11.382  0.0052  0.4425 -0.5854
 7513TIP3   OH243953   3.902   1.093   1.046  0.2487  0.5474 -0.1464
 7513TIP3    H143954   3.874   1.097   1.138 -1.3528 -0.8600 -0.5306
 7513TIP3    H243955   3.970   1.025   1.045 -0.9890 -0.7148 -0.2721
 7514TIP3   OH243956   2.515   3.581   0.910 -0.8075 -0.4520 -0.3619
 7514TIP3    H143957   2.501   3.643   0.838  0.8957 -0.8108 -1.0455
 7514TIP3    H243958   2.450   3.606   0.976 -0.8366  1.4021 -1.0309
 7515TIP3   OH243959   5.072   0.653  13.784 -0.2114 -0.1923  0.2840
 7515TIP3    H143960   5.052   0.731  13.731  2.4881 -0.1441 -0.8307
 7515TIP3    H243961   5.038   0.580  13.732 -0.2685  0.0572 -0.0390
 7516TIP3   OH243962   0.865   4.110  15.491 -0.5112 -0.4401 -0.0090
 7516TIP3    H143963   0.777   4.077  15.474 -1.2627  2.1681 -1.6411
 7516TIP3    H243964   0.897   4.138  15.406  0.4089  2.0819  1.0776
 7517TIP3   OH243965   0.746   0.672   1.888  0.4431  0.2918  0.3129
 7517TIP3    H143966   0.817   0.614   1.915 -0.2652  0.8589  3.9332
 7517TIP3    H243967   0.780   0.761   1.901  1.0234  0.8866 -3.8034
 7518TIP3   OH243968   5.813   5.990  14.627 -0.1479 -0.2357  0.6223
 7518TIP3    H143969   5.833   5.921  14.564  0.2895  1.0546 -0.7351
 7518TIP3    H243970   5.895   6.040  14.634 -0.2524 -0.2252  2.0764
 7519TIP3   OH243971   4.309   0.588  10.741 -0.3153 -0.0194  0.6180
 7519TIP3    H143972   4.350   0.651  10.801  1.5594 -1.0866  0.5220
 7519TIP3    H243973   4.280   0.517  10.799 -2.9225  1.0832  0.7976
 7520TIP3   OH243974   1.037   6.588  10.730  0.2396  0.1688  0.1580
 7520TIP3    H143975   1.101   6.519  10.712  0.9917  0.7487  0.5306
 7520TIP3    H243976   1.024   6.632  10.646 -0.0608 -0.2700 -0.0280
 7521TIP3   OH243977   2.274   3.540  14.991 -0.6857  0.6341 -0.5122
 7521TIP3    H143978   2.294   3.494  15.072  0.3876 -0.6007 -1.4323
 7521TIP3    H243979   2.179   3.535  14.982 -0.7619  0.3551  0.4089
 7522TIP3   OH243980   1.214   4.176  11.467  0.3465 -0.3022  0.1025
 7522TIP3    H143981   1.289   4.204  11.519 -0.2415 -0.3042  0.9587
 7522TIP3    H243982   1.252   4.151  11.383  1.5692 -2.0435  1.1126
 7523TIP3   OH243983   5.265   3.812  15.666 -0.5688  0.0120  0.2829
 7523TIP3    H143984   5.190   3.815  15.606 -1.7334 -0.8487  1.6105
 7523TIP3    H243985   5.225   3.797  15.752  0.9442  2.3457  1.4872
 7524TIP3   OH243986   2.265   5.994  10.871  0.0762  0.5637  0.0723
 7524TIP3    H143987   2.311   5.918  10.837  0.7162  0.9415  0.0846
 7524TIP3    H243988   2.245   6.047  10.794  0.4177  0.8132  0.1550
 7525TIP3   OH243989   2.259   4.135  17.146  0.0813 -0.0732 -0.5506
 7525TIP3    H143990   2.317   4.207  17.171 -0.6974  0.5410 -0.4654
 7525TIP3    H243991   2.235   4.093  17.228 -1.4076  1.1089 -0.3467
 7526TIP3   OH243992   5.314   3.102   3.902  0.1016  0.1525 -0.0384
 7526TIP3    H143993   5.323   3.011   3.874 -1.0969 -0.5122  1.6130
 7526TIP3    H243994   5.385   3.115   3.965 -0.0211  0.2023  0.0912
 7527TIP3   OH243995   2.493   3.564  14.429  0.3467  0.1371  0.0322
 7527TIP3    H143996   2.529   3.481  14.459  0.9809  0.2733 -0.3262
 7527TIP3    H243997   2.483   3.616  14.509 -0.1972 -0.3262  0.2751
 7528TIP3   OH243998   3.857   3.918  11.742 -0.0749 -0.1588 -0.1507
 7528TIP3    H143999   3.900   3.954  11.664 -0.6063  0.3812 -0.2001
 7528TIP3    H244000   3.881   3.826  11.742 -0.5464 -0.2960 -1.2784
 7529TIP3   OH244001   4.483   0.660   5.927 -0.1945 -0.2032 -0.4135
 7529TIP3    H144002   4.545   0.619   5.987  0.6292 -0.0006 -1.0971
 7529TIP3    H244003   4.399   0.658   5.973  0.5460  0.6123  1.0428
 7530TIP3   OH244004   0.118   0.058   0.900 -0.4229  0.3141 -0.2208
 7530TIP3    H144005   0.036   0.028   0.940 -1.5088  1.9671 -1.0901
 7530TIP3    H244006   0.185   0.000   0.936 -1.7992 -0.3265  1.4410
 7531TIP3   OH244007   1.448   6.527  13.758 -0.3034 -0.1988 -0.0044
 7531TIP3    H144008   1.422   6.619  13.768  1.3744  0.0830  2.7126
 7531TIP3    H244009   1.530   6.531  13.708  0.2793 -0.0891  0.9326
 7532TIP3   OH244010   3.312   6.344   2.748  0.2368  0.6101 -0.1968
 7532TIP3    H144011   3.405   6.358   2.765 -0.1031  2.3335  0.4270
 7532TIP3    H244012   3.267   6.412   2.799 -1.2957  0.5742 -1.4079
 7533TIP3   OH244013   2.069   5.999   6.092  0.1947  0.3095  0.3765
 7533TIP3    H144014   2.115   6.082   6.077 -1.2927  1.2822  0.8960
 7533TIP3    H244015   2.130   5.932   6.063  1.0467  1.6361 -1.0773
 7534TIP3   OH244016   1.734   3.206  17.107 -0.3633 -0.2258 -0.0723
 7534TIP3    H144017   1.683   3.168  17.036 -1.8236 -1.7309  1.6667
 7534TIP3    H244018   1.776   3.283  17.068 -3.5574  0.8529 -1.8031
 7535TIP3   OH244019   0.467   5.675   2.073 -0.7686  0.4754  0.6618
 7535TIP3    H144020   0.404   5.678   2.001  1.0616 -1.9578 -1.2557
 7535TIP3    H244021   0.421   5.629   2.143 -2.3641  2.2640  0.8600
 7536TIP3   OH244022   5.687   1.029  12.858  0.1529  0.2326 -0.2856
 7536TIP3    H144023   5.756   0.978  12.815 -0.5838 -1.7527  0.7914
 7536TIP3    H244024   5.639   0.966  12.911 -0.5275  2.1252  1.5131
 7537TIP3   OH244025   1.946   2.106  15.544 -0.7821 -0.0467  0.2905
 7537TIP3    H144026   1.991   2.189  15.560  1.6894 -0.7594 -2.0615
 7537TIP3    H244027   1.921   2.074  15.630 -0.9707  2.6483  1.3287
 7538TIP3   OH244028   4.755   2.034  12.467  0.5277 -0.0505 -0.1161
 7538TIP3    H144029   4.764   1.938  12.464 -0.1913 -0.1005 -0.7341
 7538TIP3    H244030   4.661   2.049  12.477  0.6672  0.5969  0.2993
 7539TIP3   OH244031   5.262   6.364  12.771  0.1189 -0.3235  0.5413
 7539TIP3    H144032   5.265   6.408  12.856 -0.7213  0.8395 -0.0187
 7539TIP3    H244033   5.171   6.337  12.761  0.3129 -0.8759  0.2074
 7540TIP3   OH244034   4.253   6.513  15.207  0.6319  0.1682 -0.8236
 7540TIP3    H144035   4.283   6.447  15.270 -1.0123  0.8716  0.7926
 7540TIP3    H244036   4.234   6.590  15.261 -1.8273  0.4734 -1.9985
 7541TIP3   OH244037   2.879   6.554   0.480 -0.4417 -0.0276 -0.6846
 7541TIP3    H144038   2.845   6.575   0.567 -1.3381  0.3636 -1.1149
 7541TIP3    H244039   2.938   6.626   0.459 -0.7115  0.2001 -0.6613
 7542TIP3   OH244040   0.514   1.438  11.747 -0.3268  0.4054 -0.3534
 7542TIP3    H144041   0.459   1.465  11.820 -2.3502 -1.1155 -1.2175
 7542TIP3    H244042   0.592   1.401  11.788 -0.8960  0.6380  0.9949
 7543TIP3   OH244043   6.071   0.199   2.484 -0.2572  0.0136  0.4673
 7543TIP3    H144044   6.105   0.248   2.559 -0.8678 -1.2606  1.6099
 7543TIP3    H244045   6.051   0.266   2.419  1.2283  1.0755  1.0336
 7544TIP3   OH244046   0.491   1.582   6.419 -0.0135 -0.3023 -0.6152
 7544TIP3    H144047   0.585   1.587   6.435 -0.0306 -1.7611  0.0981
 7544TIP3    H244048   0.458   1.668   6.445  0.8169 -0.5519  1.4900
 7545TIP3   OH244049   5.039   1.183   3.589 -0.4804 -0.0328  0.4195
 7545TIP3    H144050   4.992   1.266   3.593 -0.6507 -0.1524  1.0187
 7545TIP3    H244051   4.977   1.119   3.625 -0.0683 -0.2928  0.6778
 7546TIP3   OH244052   3.712   0.748   1.027 -0.7949  0.1161  0.1548
 7546TIP3    H144053   3.701   0.831   0.981 -1.7773 -0.3175 -0.4397
 7546TIP3    H244054   3.662   0.758   1.108  1.4482  1.1029  1.4820
 7547TIP3   OH244055   4.096   2.626  14.730 -0.2601 -0.9624  0.1790
 7547TIP3    H144056   4.146   2.685  14.786  0.0112 -2.3012  1.4008
 7547TIP3    H244057   4.123   2.648  14.641  0.7915 -0.1349  0.6857
 7548TIP3   OH244058   3.328   1.776  14.849  0.6450 -0.1669 -0.6761
 7548TIP3    H144059   3.405   1.721  14.861 -0.0381 -1.6843 -2.5838
 7548TIP3    H244060   3.258   1.714  14.828 -0.5979  1.3029 -1.0905
 7549TIP3   OH244061   2.760   0.171   1.536 -0.3677 -0.2353 -0.2307
 7549TIP3    H144062   2.809   0.121   1.472 -0.4360 -1.3092  0.5202
 7549TIP3    H244063   2.765   0.262   1.506  0.3230 -0.6050 -1.2636
 7550TIP3   OH244064   1.023   6.673   3.331 -0.0426 -0.1167 -0.3529
 7550TIP3    H144065   1.015   6.663   3.426 -0.4752  0.4108 -0.3260
 7550TIP3    H244066   1.110   6.711   3.318 -0.9074  2.1736  0.0479
 7551TIP3   OH244067   6.639   0.521  11.828  0.1436 -0.2386 -0.1307
 7551TIP3    H144068   6.639   0.425  11.828 -1.8185 -0.2926  1.1979
 7551TIP3    H244069   6.588   0.545  11.751 -0.6912 -0.3293  0.3770
 7552TIP3   OH244070   0.919   5.882  12.040  0.6641  0.2270  0.0038
 7552TIP3    H144071   0.930   5.970  12.076  0.5492  0.6387 -0.9288
 7552TIP3    H244072   1.008   5.857  12.013  0.2349  1.6996 -3.3360
 7553TIP3   OH244073   1.543   4.833   5.100 -0.2571 -0.7089 -0.9603
 7553TIP3    H144074   1.498   4.917   5.091 -0.7789 -0.9936 -1.0505
 7553TIP3    H244075   1.552   4.801   5.010  0.9773 -0.2241 -1.0342
 7554TIP3   OH244076   0.815   6.481   0.459  0.2319  0.3641 -0.4655
 7554TIP3    H144077   0.742   6.420   0.468  0.9522 -1.0535 -3.0909
 7554TIP3    H244078   0.791   6.556   0.513 -1.3961 -1.5953  1.7177
 7555TIP3   OH244079   5.718   4.321  15.006  0.1464  0.6516 -0.1949
 7555TIP3    H144080   5.647   4.384  15.017 -0.2625  0.5265 -1.7896
 7555TIP3    H244081   5.780   4.365  14.947  1.5043  0.8174  1.2864
 7556TIP3   OH244082   1.021   3.010  13.776  0.5247 -0.6872  0.1388
 7556TIP3    H144083   0.942   3.013  13.831  0.1927 -1.3519 -0.2993
 7556TIP3    H244084   1.055   3.100  13.779 -0.4758 -0.2932  0.0032
 7557TIP3   OH244085   4.680   4.632   0.468  0.6528  0.2366 -0.6380
 7557TIP3    H144086   4.654   4.689   0.540 -1.7857  0.9358 -1.9800
 7557TIP3    H244087   4.639   4.548   0.488 -0.4973  0.5873 -1.4386
 7558TIP3   OH244088   0.209   3.030  12.046  0.0151  0.2646 -0.7458
 7558TIP3    H144089   0.164   3.087  12.109  0.7633  0.0011  0.0550
 7558TIP3    H244090   0.146   2.961  12.027  0.0379 -0.0613  0.3062
 7559TIP3   OH244091   2.028   3.241  12.229  0.2091 -0.7134 -0.4202
 7559TIP3    H144092   2.063   3.329  12.213  3.0025 -1.8093 -0.9959
 7559TIP3    H244093   2.000   3.242  12.320 -1.8901  1.3362 -0.9847
 7560TIP3   OH244094   2.889   0.171  13.761 -0.1060 -0.0044  0.2737
 7560TIP3    H144095   2.893   0.193  13.854  1.4937 -1.1815  0.5038
 7560TIP3    H244096   2.881   0.076  13.759  0.4988 -0.0431 -0.7947
 7561TIP3   OH244097   0.863   3.746  12.137 -0.4379  0.0471 -0.0256
 7561TIP3    H144098   0.928   3.677  12.128 -0.3318  0.1355  0.0690
 7561TIP3    H244099   0.802   3.732  12.064 -0.0652  0.2391 -0.3732
 7562TIP3   OH244100   5.864   2.736   2.754 -0.2689  0.0669 -0.1767
 7562TIP3    H144101   5.772   2.744   2.779 -0.2418 -1.0551  0.3333
 7562TIP3    H244102   5.900   2.824   2.765 -0.7670  0.0621  1.7295
 7563TIP3   OH244103   1.357   5.031  12.806 -0.2063 -0.2626  0.4414
 7563TIP3    H144104   1.369   4.978  12.884  0.1857 -0.2909  0.3660
 7563TIP3    H244105   1.297   4.981  12.751 -0.6746 -0.1280  0.8272
 7564TIP3   OH244106   4.358   2.855   0.150  0.0267  0.6239 -0.3813
 7564TIP3    H144107   4.413   2.784   0.116 -0.3276  0.4843 -0.6700
 7564TIP3    H244108   4.307   2.884   0.075 -2.8367 -1.5620  0.5278
 7565TIP3   OH244109   6.289   4.721  14.422  0.4727  0.1982  0.0280
 7565TIP3    H144110   6.242   4.801  14.448 -2.1312 -1.5801  1.1797
 7565TIP3    H244111   6.301   4.730  14.328 -0.7551  1.4593 -0.0421
 7566TIP3   OH244112   5.238   2.232   2.345 -0.1133  0.3909  0.0326
 7566TIP3    H144113   5.244   2.182   2.427 -0.4946  1.2827  0.6223
 7566TIP3    H244114   5.281   2.316   2.365 -0.5339  0.7581 -0.5721
 7567TIP3   OH244115   5.649   1.929   5.671 -0.3679  0.1788 -0.0749
 7567TIP3    H144116   5.638   1.922   5.766  1.7396 -1.2879  0.1268
 7567TIP3    H244117   5.699   2.009   5.658  0.2283 -0.1546  0.1506
 7568TIP3   OH244118   0.853   3.648   0.915  0.6719  0.5173 -0.6109
 7568TIP3    H144119   0.855   3.594   0.836 -0.4553 -0.3697 -0.0607
 7568TIP3    H244120   0.816   3.732   0.887 -0.3034 -0.0073 -0.9188
 7569TIP3   OH244121   1.059   0.843   3.430 -0.3224 -0.7183 -0.1555
 7569TIP3    H144122   1.094   0.904   3.494 -3.5548  0.9743  0.2008
 7569TIP3    H244123   1.107   0.761   3.446  0.5162  0.2397  2.9323
 7570TIP3   OH244124   3.536   0.230  13.288 -0.4525 -0.1885 -0.3690
 7570TIP3    H144125   3.609   0.225  13.349 -0.2614  0.4004 -0.5447
 7570TIP3    H244126   3.572   0.272  13.210 -1.1233  0.6973 -0.2200
 7571TIP3   OH244127   4.160   6.524   3.754  0.1965  0.0123  0.2225
 7571TIP3    H144128   4.078   6.558   3.717  0.7734  2.0964  0.7078
 7571TIP3    H244129   4.182   6.448   3.700 -1.0439  0.5837 -1.1406
 7572TIP3   OH244130   6.334   0.729  13.672  0.2289 -0.0518  0.5529
 7572TIP3    H144131   6.304   0.654  13.620  2.0831 -0.3494 -0.1939
 7572TIP3    H244132   6.280   0.728  13.751 -1.7618 -0.3950 -0.7653
 7573TIP3   OH244133   5.626   0.847  14.278 -0.2206  0.4177  0.6907
 7573TIP3    H144134   5.536   0.826  14.255  0.5108 -1.6357 -0.6103
 7573TIP3    H244135   5.643   0.931  14.236 -0.6981 -0.5374 -1.5841
 7574TIP3   OH244136   2.105   2.662   1.106 -0.7282 -0.2338 -0.3762
 7574TIP3    H144137   2.038   2.621   1.051 -0.6255  0.6091 -1.1542
 7574TIP3    H244138   2.184   2.611   1.089 -0.8071 -0.2649 -0.6537
 7575TIP3   OH244139   1.957   6.495   4.907 -0.0765  0.4457  0.1334
 7575TIP3    H144140   1.874   6.475   4.951  0.0332 -0.2704  0.0166
 7575TIP3    H244141   1.954   6.444   4.826  1.1841 -0.8875  0.8795
 7576TIP3   OH244142   6.212   0.418  13.769  0.1615  0.4162 -0.1207
 7576TIP3    H144143   6.299   0.448  13.744  0.0770  0.7359 -0.0482
 7576TIP3    H244144   6.160   0.427  13.689  0.6742 -1.7924 -0.7747
 7577TIP3   OH244145   1.250   3.673   5.231  0.0173 -0.0742 -0.3726
 7577TIP3    H144146   1.217   3.593   5.272 -0.3762  0.0687 -0.4085
 7577TIP3    H244147   1.182   3.738   5.249 -0.5657 -0.2029 -1.9606
 7578TIP3   OH244148   0.833   6.485  12.953  0.1275 -0.0677 -0.2631
 7578TIP3    H144149   0.806   6.572  12.983  0.5801 -0.1043  0.2663
 7578TIP3    H244150   0.765   6.426  12.985 -0.4579  0.1429 -1.0704
 7579TIP3   OH244151   2.642   3.810   4.159 -0.2472 -0.6312  0.3252
 7579TIP3    H144152   2.645   3.757   4.238  1.9975 -0.9604  0.0776
 7579TIP3    H244153   2.636   3.900   4.191 -2.4893 -0.8885  0.7700
 7580TIP3   OH244154   6.453   6.332  12.421  0.0937  0.5198 -0.5977
 7580TIP3    H144155   6.409   6.382  12.352  2.0133  1.7926 -0.9911
 7580TIP3    H244156   6.487   6.255  12.377 -2.3301 -0.9488 -0.1168
 7581TIP3   OH244157   2.896   4.052   5.425  0.3425 -0.5923  0.2911
 7581TIP3    H144158   2.858   4.133   5.456 -0.6915 -0.4437 -1.2311
 7581TIP3    H244159   2.849   3.983   5.471  0.7975 -0.3528  1.1269
 7582TIP3   OH244160   5.647   1.825   5.381 -0.1857  0.0458  0.0793
 7582TIP3    H144161   5.605   1.782   5.307 -0.0904  0.8297 -0.4479
 7582TIP3    H244162   5.581   1.886   5.414 -0.3960 -0.6431  0.9516
 7583TIP3   OH244163   5.961   3.244  16.119  0.1594  0.9526  0.1698
 7583TIP3    H144164   6.019   3.277  16.187  0.5773 -0.2116  0.3987
 7583TIP3    H244165   5.874   3.244  16.160  0.4611 -0.0618  0.8323
 7584TIP3   OH244166   4.504   0.342   3.307  0.6302 -0.0536 -0.8911
 7584TIP3    H144167   4.521   0.359   3.400 -3.0204  1.9655 -0.3830
 7584TIP3    H244168   4.409   0.332   3.302  0.5669  0.9792 -4.5371
 7585TIP3   OH244169   4.210   1.689   3.398 -0.5720  0.4084  0.0048
 7585TIP3    H144170   4.221   1.719   3.308 -1.2602  2.7004  0.6124
 7585TIP3    H244171   4.219   1.594   3.393  0.1161  0.5357 -2.3530
 7586TIP3   OH244172   2.892   3.869   3.032 -0.1650  0.1446 -0.2893
 7586TIP3    H144173   2.969   3.815   3.014 -0.8843 -0.3949 -1.9063
 7586TIP3    H244174   2.928   3.953   3.061  1.0794  0.1577 -1.7549
 7587TIP3   OH244175   5.135   4.882  14.271  0.2637 -0.2878 -0.0051
 7587TIP3    H144176   5.205   4.858  14.210 -0.4411  0.2295 -1.0569
 7587TIP3    H244177   5.068   4.923  14.216 -0.0401  0.9882  1.2349
 7588TIP3   OH244178   3.259   3.528  12.372  0.2113 -0.0893  0.8202
 7588TIP3    H144179   3.203   3.505  12.446 -1.6970 -0.6826 -0.7160
 7588TIP3    H244180   3.222   3.480  12.298  0.4076  2.4495 -1.0750
 7589TIP3   OH244181   2.078   6.019   0.138 -0.7940 -0.0446  0.3743
 7589TIP3    H144182   2.159   6.022   0.086 -0.7715 -2.9729  0.0360
 7589TIP3    H244183   2.047   6.109   0.140  3.3040  1.6002  1.8943
 7590TIP3   OH244184   1.283   4.171   1.414  0.1352 -0.5288  0.0660
 7590TIP3    H144185   1.321   4.085   1.429 -1.2909 -1.1526  0.2514
 7590TIP3    H244186   1.283   4.213   1.500 -2.1688 -1.6436  0.6809
 7591TIP3   OH244187   6.431   3.208  11.076 -0.3191 -0.4281 -0.3735
 7591TIP3    H144188   6.446   3.180  10.986  1.3737  1.1522 -0.6242
 7591TIP3    H244189   6.344   3.248  11.074 -0.6229 -1.0920 -1.1100
 7592TIP3   OH244190   1.592   2.917  13.293  0.2296 -0.6776 -0.0380
 7592TIP3    H144191   1.647   2.967  13.232 -0.1109  1.3909  1.2646
 7592TIP3    H244192   1.506   2.916  13.252  0.2285 -0.1381 -0.0550
 7593TIP3   OH244193   4.191   3.702   2.353  1.0220 -0.2837  0.2086
 7593TIP3    H144194   4.241   3.729   2.277  1.7002  1.1588  1.1155
 7593TIP3    H244195   4.234   3.621   2.383  0.4782 -1.0979 -1.1543
 7594TIP3   OH244196   3.685   3.635   1.390  0.5735 -0.2937 -0.5395
 7594TIP3    H144197   3.694   3.641   1.485 -1.3364  0.3651 -0.3734
 7594TIP3    H244198   3.693   3.541   1.371 -0.7043 -0.6282  0.4736
 7595TIP3   OH244199   4.253   0.453  15.383  0.5390  0.4727  0.6976
 7595TIP3    H144200   4.180   0.412  15.429  0.4631  0.6120  0.7003
 7595TIP3    H244201   4.216   0.481  15.299  0.7847 -0.2001  0.3552
 7596TIP3   OH244202   4.615   5.518   4.759 -0.2063 -0.3628 -0.0000
 7596TIP3    H144203   4.539   5.551   4.807 -0.8630  1.5593 -2.1782
 7596TIP3    H244204   4.591   5.427   4.738 -0.7154 -0.6273  1.5791
 7597TIP3   OH244205   2.166   4.645   1.162  0.4398  0.4490  0.1389
 7597TIP3    H144206   2.258   4.647   1.188  1.1420  0.8386 -2.1710
 7597TIP3    H244207   2.160   4.707   1.090 -1.9058  1.2735  0.9332
 7598TIP3   OH244208   1.047   2.003  13.312 -0.1395 -0.1304  0.4133
 7598TIP3    H144209   1.102   2.074  13.345 -1.0055  0.6102  0.2885
 7598TIP3    H244210   0.980   2.047  13.260 -0.3900 -1.0824 -0.0887
 7599TIP3   OH244211   6.500   5.226   3.592  0.1910  0.1304 -0.5331
 7599TIP3    H144212   6.504   5.214   3.686 -1.2006 -2.2033 -0.6949
 7599TIP3    H244213   6.552   5.305   3.575 -0.4289  1.2458  2.2547
 7600TIP3   OH244214   2.673   2.635   5.658  0.0671 -0.4510  0.4331
 7600TIP3    H144215   2.713   2.672   5.736 -1.4824  0.7238  0.7215
 7600TIP3    H244216   2.583   2.667   5.660 -0.5294 -1.9441 -0.8499
 7601TIP3   OH244217   4.430   4.262   0.823  0.0738  0.0454  0.1489
 7601TIP3    H144218   4.509   4.216   0.850 -0.2782 -0.5365  0.2108
 7601TIP3    H244219   4.359   4.200   0.839 -0.3086  0.2530 -0.6634
 7602TIP3   OH244220   5.163   1.496  14.489 -0.4991 -0.1473  0.0483
 7602TIP3    H144221   5.238   1.497  14.548 -0.7438  0.3479  0.3579
 7602TIP3    H244222   5.089   1.523  14.543 -0.7596  0.1413 -0.4407
 7603TIP3   OH244223   4.862   0.220  14.070  0.0980  0.0335  0.2336
 7603TIP3    H144224   4.848   0.160  14.142  0.2016  0.2207  0.4105
 7603TIP3    H244225   4.794   0.198  14.006 -0.9938  0.8897  1.0612
 7604TIP3   OH244226   1.286   5.236  15.307 -0.1423 -0.7195  0.0932
 7604TIP3    H144227   1.289   5.227  15.212  0.9283  2.6632 -0.3406
 7604TIP3    H244228   1.194   5.221  15.329 -0.7713  0.0635 -1.7353
 7605TIP3   OH244229   5.605   3.419   2.166 -0.0153 -0.5324 -0.1655
 7605TIP3    H144230   5.522   3.425   2.212 -0.4025  0.6894 -0.9587
 7605TIP3    H244231   5.582   3.386   2.079  0.2216  0.4876 -0.6261
 7606TIP3   OH244232   0.266   1.802   2.908  0.1865  0.6028 -0.1080
 7606TIP3    H144233   0.253   1.730   2.846 -2.1360  1.7382 -1.0646
 7606TIP3    H244234   0.266   1.881   2.854  0.6422  1.4752  1.1128
 7607TIP3   OH244235   4.213   4.218  11.948 -0.3563  0.2826 -0.2437
 7607TIP3    H144236   4.158   4.190  12.022 -1.4060  2.0908 -0.2867
 7607TIP3    H244237   4.190   4.159  11.877 -1.3865  0.2745  0.0840
 7608TIP3   OH244238   1.635   0.455   2.816  0.1674  0.0668 -0.2309
 7608TIP3    H144239   1.594   0.371   2.794 -0.2199  0.6723 -2.0369
 7608TIP3    H244240   1.725   0.446   2.786  1.7138 -1.4003  4.0798
 7609TIP3   OH244241   4.707   4.146   4.832  0.7002 -0.0812  0.0218
 7609TIP3    H144242   4.674   4.115   4.915 -0.8286  2.4061  0.4460
 7609TIP3    H244243   4.773   4.081   4.806 -2.1354 -3.5437  0.7378
 7610TIP3   OH244244   6.420   1.835  11.233 -0.1201  0.2503  0.5521
 7610TIP3    H144245   6.414   1.841  11.138 -3.5334 -2.8055  0.3554
 7610TIP3    H244246   6.360   1.902  11.265 -1.8138 -1.0668  0.2934
 7611TIP3   OH244247   4.074   5.909  15.587  0.0173 -0.5511 -0.0935
 7611TIP3    H144248   4.089   5.854  15.664 -0.1691 -0.4771 -0.0035
 7611TIP3    H244249   3.991   5.877  15.551  0.4423 -1.0482 -0.6628
 7612TIP3   OH244250   2.087   4.959  10.945  0.2746  0.1874 -0.2109
 7612TIP3    H144251   1.996   4.990  10.947  0.1168 -0.2856  0.9790
 7612TIP3    H244252   2.101   4.933  10.854 -1.0655 -0.4811 -0.2626
 7613TIP3   OH244253   1.824   5.648  11.686 -0.2102  0.0439  0.4442
 7613TIP3    H144254   1.847   5.556  11.695  1.0751  0.4435  1.4143
 7613TIP3    H244255   1.784   5.672  11.770  2.6581  1.2180  1.5800
 7614TIP3   OH244256   1.699   3.103  11.717 -0.2582 -0.5580  0.2060
 7614TIP3    H144257   1.790   3.123  11.694  0.6828 -4.1477  0.0841
 7614TIP3    H244258   1.653   3.103  11.633 -0.2545  0.6248  0.1863
 7615TIP3   OH244259   0.889   5.744   0.049  0.0793  0.0771  0.1098
 7615TIP3    H144260   0.971   5.696   0.038 -1.4133 -2.6283 -0.2848
 7615TIP3    H244261   0.870   5.739   0.143 -0.4829 -0.9380 -0.0393
 7616TIP3   OH244262   2.041   2.983  16.289 -0.4807 -0.4323 -0.6924
 7616TIP3    H144263   1.957   2.939  16.277 -0.7785 -0.5823  1.5601
 7616TIP3    H244264   2.047   2.998  16.383  2.2805 -0.9276 -0.7157
 7617TIP3   OH244265   5.776   4.934   1.823 -0.4494 -0.2362  0.4849
 7617TIP3    H144266   5.829   4.891   1.890 -0.4850 -3.5179 -1.3843
 7617TIP3    H244267   5.685   4.917   1.850 -0.4920 -0.1836  0.3751
 7618TIP3   OH244268   0.732   0.061  17.078 -0.2404  0.1152  0.5306
 7618TIP3    H144269   0.756   0.136  17.133  1.3177  0.7229 -0.8868
 7618TIP3    H244270   0.805  -0.000  17.089 -0.0381  0.1327 -0.6118
 7619TIP3   OH244271   6.386   0.805   5.053  0.1335 -0.1127 -0.0835
 7619TIP3    H144272   6.340   0.806   5.137  1.8439  1.7191  0.9100
 7619TIP3    H244273   6.360   0.886   5.010  1.4690  0.3775 -0.0095
 7620TIP3   OH244274   0.279   6.410  14.319 -0.4711  0.4316 -0.2384
 7620TIP3    H144275   0.258   6.500  14.343 -1.4495 -0.3200  1.9356
 7620TIP3    H244276   0.373   6.401  14.337 -0.5029  0.8402  0.1231
 7621TIP3   OH244277   5.222   6.499  15.641 -0.6505  0.0462  0.4661
 7621TIP3    H144278   5.281   6.429  15.670 -0.1745  0.6520  0.9697
 7621TIP3    H244279   5.206   6.480  15.548 -0.4438 -0.6690  0.5746
 7622TIP3   OH244280   3.819   3.262  12.989 -0.4191  0.6202 -0.0184
 7622TIP3    H144281   3.802   3.289  12.898  0.6826 -0.3862 -0.5575
 7622TIP3    H244282   3.906   3.295  13.008  0.2123 -0.9334 -0.0767
 7623TIP3   OH244283   0.103   6.221   3.633  0.1379 -0.0807 -0.0893
 7623TIP3    H144284   0.013   6.199   3.657  0.3662 -0.0187  0.8947
 7623TIP3    H244285   0.105   6.217   3.538 -0.7823 -0.5601 -0.0969
 7624TIP3   OH244286   1.564   5.828  10.044 -0.3958  0.3426 -0.4595
 7624TIP3    H144287   1.580   5.811   9.951 -2.1743  0.5104 -0.8363
 7624TIP3    H244288   1.474   5.861  10.047 -0.1954  0.8400  1.2745
 7625TIP3   OH244289   1.215   6.610  16.571 -0.6049 -0.2467  0.4040
 7625TIP3    H144290   1.215   6.633  16.664  0.1998  0.2781  0.2807
 7625TIP3    H244291   1.222   6.694  16.526 -2.6486 -0.3342 -0.1980
 7626TIP3   OH244292   1.272   6.616  16.850  0.4460 -0.4840  0.6711
 7626TIP3    H144293   1.204   6.608  16.916 -1.3576 -0.6653 -1.1164
 7626TIP3    H244294   1.297   6.525  16.830 -2.1808 -0.7974 -1.8983
 7627TIP3   OH244295   0.090   6.092  13.870 -0.2222  0.3049  0.3799
 7627TIP3    H144296   0.144   6.169  13.854  0.1636  0.0737  0.5659
 7627TIP3    H244297   0.000   6.123  13.861 -0.0581  0.6670 -0.0336
 7628TIP3   OH244298   3.732   2.565  14.384  0.1843  0.0833  0.6345
 7628TIP3    H144299   3.692   2.598  14.464 -0.6154 -0.0948  0.3181
 7628TIP3    H244300   3.668   2.504  14.348  0.2094  0.6980 -0.5142
 7629TIP3   OH244301   5.533   4.709   3.255  0.6727 -0.1386 -0.5404
 7629TIP3    H144302   5.480   4.710   3.335 -0.1653  2.2412 -1.0411
 7629TIP3    H244303   5.623   4.713   3.286  0.4436 -1.1560  0.2946
 7630TIP3   OH244304   0.753   6.795  11.767 -0.8846  0.3516 -0.6079
 7630TIP3    H144305   0.698   6.748  11.829 -1.6108 -1.2386 -2.3257
 7630TIP3    H244306   0.764   6.882  11.804 -2.3621 -0.1300  1.0679
 7631TIP3   OH244307   0.715   1.474   2.056 -0.0391 -0.0929  0.0110
 7631TIP3    H144308   0.665   1.406   2.011 -0.1442  0.0004 -0.0136
 7631TIP3    H244309   0.656   1.549   2.058  0.0367 -0.0377  0.1363
 7632TIP3   OH244310   0.470   5.577   4.201  0.0027 -0.3777 -0.6911
 7632TIP3    H144311   0.383   5.560   4.238 -1.3399  3.4913 -1.6741
 7632TIP3    H244312   0.527   5.582   4.278 -1.3961  0.7936  0.3324
 7633TIP3   OH244313   4.110   1.950   2.831 -0.3720  0.7195 -0.1631
 7633TIP3    H144314   4.178   1.892   2.798 -0.3579  0.6635 -0.0344
 7633TIP3    H244315   4.154   2.008   2.892 -0.5427  0.3171  0.3497
 7634TIP3   OH244316   0.646   4.682  16.235  0.1744  0.8387  0.3098
 7634TIP3    H144317   0.723   4.693  16.292  0.7015  1.0928 -0.4310
 7634TIP3    H244318   0.682   4.684  16.147 -0.6468  0.5489 -0.0360
 7635TIP3   OH244319   0.034   5.322   2.162  0.3069  0.3753 -0.4534
 7635TIP3    H144320  -0.008   5.392   2.210  0.1668  1.1999 -1.7240
 7635TIP3    H244321   0.122   5.316   2.199 -0.0287  0.4871  0.3773
 7636TIP3   OH244322   5.582   2.244   2.785 -0.2180  0.8299 -0.4078
 7636TIP3    H144323   5.494   2.218   2.811 -0.4949 -0.7709 -2.6609
 7636TIP3    H244324   5.639   2.185   2.833 -0.6683 -1.2762 -2.2810
 7637TIP3   OH244325   3.962   6.556  10.981  0.0901 -0.3472 -0.2385
 7637TIP3    H144326   3.955   6.537  10.887 -1.3021 -0.3907 -0.1396
 7637TIP3    H244327   4.001   6.477  11.018 -1.2526 -1.1619 -0.5046
 7638TIP3   OH244328   5.712   0.149   1.785  0.0597 -0.2455  0.6874
 7638TIP3    H144329   5.732   0.060   1.813 -0.4420 -0.3444  0.7276
 7638TIP3    H244330   5.619   0.161   1.806  0.5236  0.8813  2.3132
 7639TIP3   OH244331   3.498   5.143   6.307  0.1574  0.0323  0.2795
 7639TIP3    H144332   3.484   5.198   6.385  0.0914 -0.1263  0.3795
 7639TIP3    H244333   3.589   5.160   6.283  0.2341 -0.0535  0.4998
 7640TIP3   OH244334   1.359   2.398  14.426  0.0859 -0.0780 -0.0047
 7640TIP3    H144335   1.432   2.460  14.418  0.1161 -0.2705 -1.6087
 7640TIP3    H244336   1.288   2.448  14.465  0.7430  0.3926  0.6186
 7641TIP3   OH244337   2.338   6.315   3.576 -0.2328 -0.1138 -0.4133
 7641TIP3    H144338   2.275   6.325   3.648 -0.7800 -2.7675 -0.4224
 7641TIP3    H244339   2.416   6.278   3.616 -0.0374 -0.3231 -0.9694
 7642TIP3   OH244340   1.445   4.818   5.379 -0.0042 -0.2621 -0.4928
 7642TIP3    H144341   1.501   4.793   5.306  0.3850 -0.6895 -0.0580
 7642TIP3    H244342   1.357   4.792   5.352  0.4457 -2.7199  0.1596
 7643TIP3   OH244343   2.443   0.820  14.028 -0.4420  0.1514 -0.0075
 7643TIP3    H144344   2.387   0.779  14.094  0.3300 -1.4487 -0.2689
 7643TIP3    H244345   2.445   0.912  14.051 -4.1387  0.5685 -0.7037
 7644TIP3   OH244346   5.031   1.658   2.756 -0.6166 -0.6599  0.0579
 7644TIP3    H144347   4.936   1.657   2.742 -0.6575 -1.7299  0.3056
 7644TIP3    H244348   5.043   1.712   2.835 -0.9191  0.3010 -0.5423
 7645TIP3   OH244349   1.396   4.889   4.504 -0.0558 -0.1497  0.6093
 7645TIP3    H144350   1.438   4.940   4.573 -0.4331 -0.3453  0.9906
 7645TIP3    H244351   1.423   4.798   4.522 -0.7734 -0.2995  0.9631
 7646TIP3   OH244352   1.436   5.587   0.114  0.3336  0.0034 -0.0397
 7646TIP3    H144353   1.350   5.618   0.140  1.0654  2.2699 -0.1097
 7646TIP3    H244354   1.454   5.513   0.172 -0.3837  1.4340  2.1182
 7647TIP3   OH244355   4.299   1.493   5.169 -0.5378 -0.5271 -0.4757
 7647TIP3    H144356   4.340   1.498   5.082 -1.0499 -2.5495 -0.8874
 7647TIP3    H244357   4.371   1.478   5.229 -0.3647 -1.1801 -0.8342
 7648TIP3   OH244358   2.036   2.517  11.672  0.0845 -0.0212  0.5352
 7648TIP3    H144359   2.107   2.459  11.700  1.1405  0.5856 -0.7657
 7648TIP3    H244360   2.078   2.577  11.610 -1.4797  0.6697  0.1107
 7649TIP3   OH244361   6.711   0.252  15.080  0.0891  0.6448  0.1469
 7649TIP3    H144362   6.758   0.172  15.061  0.3559  0.8787 -0.1812
 7649TIP3    H244363   6.724   0.266  15.174  1.8115  1.4200 -0.1713
 7650TIP3   OH244364   6.454   5.312  12.319  0.0511  0.7687 -0.0002
 7650TIP3    H144365   6.369   5.269  12.327  1.1497 -1.5061  0.4784
 7650TIP3    H244366   6.473   5.311  12.225  0.3721 -0.5464  0.0574
 7651TIP3   OH244367   4.568   1.323  15.471 -0.6392 -0.2010 -0.2873
 7651TIP3    H144368   4.611   1.238  15.480 -0.3811 -0.0317  0.0927
 7651TIP3    H244369   4.536   1.324  15.381  4.0929  1.5008 -2.2502
 7652TIP3   OH244370   6.023   4.577  11.568  0.1425  0.5645 -0.3795
 7652TIP3    H144371   6.046   4.500  11.620  1.0892  1.5487  0.7496
 7652TIP3    H244372   6.010   4.544  11.480  3.2170 -0.5705 -0.5565
 7653TIP3   OH244373   0.145   5.210   4.857 -0.1266  0.2310 -0.2326
 7653TIP3    H144374   0.114   5.290   4.900 -0.8679 -0.0648 -0.2013
 7653TIP3    H244375   0.080   5.191   4.790 -0.6866 -1.0746  0.6369
 7654TIP3   OH244376   3.570   0.124   3.524  0.5001 -0.2552  0.7242
 7654TIP3    H144377   3.593   0.059   3.458  0.2267 -1.2883  1.6050
 7654TIP3    H244378   3.481   0.101   3.550  0.4578  0.3807  1.1593
 7655TIP3   OH244379   4.166   3.824   0.559 -0.2525 -0.5832  0.5083
 7655TIP3    H144380   4.129   3.899   0.606 -0.4057 -0.7601  0.6729
 7655TIP3    H244381   4.150   3.843   0.467 -0.1800 -0.3550  0.5424
 7656TIP3   OH244382   3.675   3.878   5.531 -0.2066 -0.1124  0.6675
 7656TIP3    H144383   3.673   3.796   5.481  2.3048  0.0667  0.1445
 7656TIP3    H244384   3.604   3.930   5.493 -0.0504 -1.0003 -0.9537
 7657TIP3   OH244385   2.908   4.965  15.360 -0.0339 -0.0608 -0.0041
 7657TIP3    H144386   2.814   4.952  15.352 -0.0894 -0.1173  0.7184
 7657TIP3    H244387   2.919   5.060  15.361 -0.0710 -0.0535 -0.1784
 7658TIP3   OH244388   0.337   6.710  15.543  0.5529  0.1581  0.1435
 7658TIP3    H144389   0.367   6.735  15.630 -0.5622  1.0335  0.3043
 7658TIP3    H244390   0.343   6.791  15.492  1.1774 -0.3414 -0.5965
 7659TIP3   OH244391   3.394   6.062   5.179 -0.1193 -0.0805 -0.4826
 7659TIP3    H144392   3.299   6.067   5.190 -0.0155 -0.1021  0.4775
 7659TIP3    H244393   3.409   5.973   5.146 -0.4945  0.2007 -1.4640
 7660TIP3   OH244394   1.938   2.877  12.029  0.0236 -0.5787  0.0299
 7660TIP3    H144395   1.870   2.897  12.093 -0.9936  0.2187 -1.2330
 7660TIP3    H244396   1.927   2.783  12.011 -0.1562 -0.6469  0.4856
 7661TIP3   OH244397   6.416   1.991  13.317  0.1582 -0.8958  0.0126
 7661TIP3    H144398   6.341   2.007  13.260 -0.8756  2.3022  2.0206
 7661TIP3    H244399   6.484   2.050  13.283 -0.0358  0.0696  1.2235
 7662TIP3   OH244400   3.005   6.161   1.280  0.0257  0.2401  0.0398
 7662TIP3    H144401   2.976   6.112   1.357  0.1384  1.2515  0.7440
 7662TIP3    H244402   3.089   6.197   1.306  0.3207  0.1456 -0.7678
 7663TIP3   OH244403   2.293   3.766   4.487  0.4517 -0.5040  0.1431
 7663TIP3    H144404   2.353   3.785   4.559  0.7400 -0.3728 -0.1310
 7663TIP3    H244405   2.292   3.846   4.434 -0.3623 -0.3191  0.4281
 7664TIP3   OH244406   5.500   0.827   4.337 -0.5233 -0.4662  0.0656
 7664TIP3    H144407   5.429   0.766   4.351 -1.8040  1.2623  1.6689
 7664TIP3    H244408   5.521   0.860   4.425  0.4655  0.9969 -0.6707
 7665TIP3   OH244409   4.233   5.332   0.476  0.0272  0.0655 -0.5021
 7665TIP3    H144410   4.275   5.396   0.418  1.3052 -0.4802 -0.2165
 7665TIP3    H244411   4.164   5.382   0.520 -0.1763  0.7909 -1.5854
 7666TIP3   OH244412   6.570   5.936  16.830  0.4455 -0.0269  0.2328
 7666TIP3    H144413   6.619   5.871  16.779  0.8827  0.2394  0.3090
 7666TIP3    H244414   6.506   5.884  16.879 -0.7105 -0.1863 -1.3745
 7667TIP3   OH244415   5.518   2.605  14.180  0.2869  0.0144 -0.4742
 7667TIP3    H144416   5.602   2.652  14.183  0.3957 -0.1286 -1.0960
 7667TIP3    H244417   5.486   2.607  14.270  0.5134  0.8732 -0.4083
 7668TIP3   OH244418   0.451   4.765   1.881 -0.2606  0.3028 -0.1115
 7668TIP3    H144419   0.484   4.847   1.919  0.9122  0.2907 -1.0417
 7668TIP3    H244420   0.375   4.792   1.829 -1.1736  0.4757  1.2407
 7669TIP3   OH244421   1.002   5.578  15.949  0.9378  0.3414 -0.6390
 7669TIP3    H144422   1.030   5.655  15.999  2.2442  1.1365 -2.4585
 7669TIP3    H244423   0.971   5.613  15.866 -2.2259 -0.8568 -0.0756
 7670TIP3   OH244424   0.896   4.044   1.656  0.8184  0.0368  0.5936
 7670TIP3    H144425   0.876   4.032   1.749  2.0165  1.9463  1.1487
 7670TIP3    H244426   0.986   4.012   1.646  0.4385 -0.8577 -0.0986
 7671TIP3   OH244427   1.718   1.226  12.779  0.6938 -0.8098 -0.2036
 7671TIP3    H144428   1.755   1.138  12.779  0.6311 -0.8993 -2.3227
 7671TIP3    H244429   1.771   1.274  12.715  0.3420  0.5130  0.4673
 7672TIP3   OH244430   3.578   1.497   1.656 -0.0920 -0.0841  0.5042
 7672TIP3    H144431   3.673   1.502   1.661 -0.1393 -0.0473  1.6216
 7672TIP3    H244432   3.554   1.563   1.591  0.6394 -0.1631  0.1401
 7673TIP3   OH244433   5.895   3.525   1.799 -1.0481 -0.0430 -0.3094
 7673TIP3    H144434   5.844   3.551   1.722 -0.4447 -0.6686 -0.9372
 7673TIP3    H244435   5.888   3.429   1.801 -1.9210  0.0176  1.0353
 7674TIP3   OH244436   3.139   1.545  14.837 -0.2958  0.0067 -0.1260
 7674TIP3    H144437   3.057   1.595  14.845 -0.4705 -0.2549 -0.2653
 7674TIP3    H244438   3.118   1.475  14.775 -0.1712 -0.4723  0.3622
 7675TIP3   OH244439   0.464   4.672  11.120  0.2561  0.2889 -0.1079
 7675TIP3    H144440   0.539   4.613  11.108  1.1637  1.1992  0.8987
 7675TIP3    H244441   0.491   4.754  11.078  0.0987  0.8323  0.8346
 7676TIP3   OH244442   0.498   4.023   0.825  0.3999  0.0980 -0.3471
 7676TIP3    H144443   0.439   4.049   0.895 -0.1863 -1.7155 -0.1217
 7676TIP3    H244444   0.581   4.006   0.868  0.1968 -0.4610 -0.1701
 7677TIP3   OH244445   3.753   4.229  12.788 -0.0368  0.1800  0.2311
 7677TIP3    H144446   3.683   4.241  12.852 -0.1638  2.0753 -0.2133
 7677TIP3    H244447   3.812   4.303  12.803  1.0995 -0.5713 -0.3901
 7678TIP3   OH244448   3.605   4.625  16.596  0.3474 -0.1317 -0.7978
 7678TIP3    H144449   3.617   4.630  16.501  1.9311  1.1012 -0.5659
 7678TIP3    H244450   3.522   4.670  16.612  1.5641  2.4804 -1.3502
 7679TIP3   OH244451   5.252   3.476  12.621 -0.3474 -0.5501 -0.4302
 7679TIP3    H144452   5.218   3.545  12.678  0.5145 -0.3982 -0.0900
 7679TIP3    H244453   5.305   3.522  12.556  0.9608 -0.9413  0.3257
 7680TIP3   OH244454   0.367   3.165  13.730  0.4404 -0.3322  0.0698
 7680TIP3    H144455   0.279   3.197  13.711  0.9979  1.5066  0.3470
 7680TIP3    H244456   0.424   3.211  13.668  1.3754 -0.2213  0.9713
 7681TIP3   OH244457   0.192   3.686  16.818  0.3805 -0.3968 -0.7981
 7681TIP3    H144458   0.198   3.703  16.912  1.7153 -0.8973 -0.7779
 7681TIP3    H244459   0.151   3.765  16.782  0.6346  0.1525  0.0937
 7682TIP3   OH244460   0.401   1.858  13.686 -0.2077  0.2868 -0.3874
 7682TIP3    H144461   0.457   1.839  13.610  0.6461 -0.3091  0.3727
 7682TIP3    H244462   0.462   1.890  13.753 -0.7241 -0.6329  0.5456
 7683TIP3   OH244463   2.114   3.966  16.983  0.0161  0.8959  0.3238
 7683TIP3    H144464   2.166   4.034  17.025 -1.3881  1.5789  1.0160
 7683TIP3    H244465   2.027   3.974  17.022 -0.4704 -0.6018 -0.3609
 7684TIP3   OH244466   2.089   5.412  16.960  0.1188  0.3930  0.4565
 7684TIP3    H144467   2.174   5.438  16.995  1.0169 -1.7026 -0.0032
 7684TIP3    H244468   2.031   5.412  17.037  0.6202  1.4244  0.8506
 7685TIP3   OH244469   5.434   4.678  15.959 -0.0025  0.2956  0.4197
 7685TIP3    H144470   5.458   4.753  15.905  0.3588  0.5929  0.9814
 7685TIP3    H244471   5.517   4.633  15.976 -0.1642 -0.0063  0.4136
 7686TIP3   OH244472   4.462   2.766   4.940  0.7997  0.1863 -0.5362
 7686TIP3    H144473   4.435   2.825   4.870  1.1408 -0.7739 -1.5126
 7686TIP3    H244474   4.537   2.718   4.904  0.5024 -0.8758  0.1969
 7687TIP3   OH244475   2.391   3.081   1.002 -0.0394  0.2430  0.2730
 7687TIP3    H144476   2.421   2.990   0.999 -0.2395  0.1723  0.3886
 7687TIP3    H244477   2.376   3.098   1.095 -1.0126  0.0593  0.1563
 7688TIP3   OH244478   1.250   0.804  14.886 -0.3571 -0.6431 -1.4984
 7688TIP3    H144479   1.323   0.747  14.909  0.8039  0.5063 -2.1698
 7688TIP3    H244480   1.202   0.756  14.819 -0.0006 -1.2686 -1.3109
 7689TIP3   OH244481   5.626   3.161  16.784 -0.0043 -0.4691  0.4128
 7689TIP3    H144482   5.687   3.234  16.768 -1.6662  1.0304  0.6383
 7689TIP3    H244483   5.605   3.167  16.877 -0.6928 -0.7968  0.2856
 7690TIP3   OH244484   0.839   1.912   5.545  0.5274  0.0179  0.5253
 7690TIP3    H144485   0.884   1.827   5.548  1.7183  0.5070 -1.3730
 7690TIP3    H244486   0.855   1.950   5.631  1.6291 -0.8863  0.7540
 7691TIP3   OH244487   2.287   0.929   4.265 -0.0480  0.1412 -0.1058
 7691TIP3    H144488   2.288   0.844   4.221  1.0022 -1.3448  2.5336
 7691TIP3    H244489   2.240   0.914   4.347  2.0746  1.4348  1.4997
 7692TIP3   OH244490   5.015   4.499   2.537  0.4796  0.1800  0.3467
 7692TIP3    H144491   4.994   4.454   2.455  2.3851 -0.5747  0.2328
 7692TIP3    H244492   4.935   4.493   2.589 -0.1562 -0.9981 -0.7119
 7693TIP3   OH244493   2.581   6.036   4.734 -0.0659  0.0045 -0.2389
 7693TIP3    H144494   2.553   5.979   4.662 -1.8207  0.0479  0.3766
 7693TIP3    H244495   2.530   6.006   4.809  2.7045 -0.9852  1.4253
 7694TIP3   OH244496   5.855   5.956  12.380  0.3426  0.0828 -0.2441
 7694TIP3    H144497   5.822   6.028  12.433 -1.5873 -0.3317 -0.8055
 7694TIP3    H244498   5.782   5.895  12.374  1.7566 -1.6860 -0.2348
 7695TIP3   OH244499   4.347   4.493   2.682  0.5132  0.8985  0.3718
 7695TIP3    H144500   4.407   4.439   2.734  0.2027  1.7856  1.6848
 7695TIP3    H244501   4.262   4.451   2.693  0.6014  0.5742 -0.1623
 7696TIP3   OH244502   5.307   3.644  11.700 -0.1771  0.5223 -0.1544
 7696TIP3    H144503   5.278   3.669  11.613  0.2365  0.0919 -0.4202
 7696TIP3    H244504   5.349   3.559  11.688  1.2558  1.1502  0.2109
 7697TIP3   OH244505   2.888   2.589   5.290  0.4087 -0.2743 -0.0731
 7697TIP3    H144506   2.900   2.496   5.269 -1.9300 -0.7243  0.3174
 7697TIP3    H244507   2.800   2.594   5.326  0.9273  1.9341  1.0629
 7698TIP3   OH244508   1.646   4.148  15.284 -0.2311 -0.2584  0.3058
 7698TIP3    H144509   1.727   4.105  15.256 -0.0270  1.2329 -1.6103
 7698TIP3    H244510   1.670   4.240  15.295 -1.3609 -0.0412  1.1436
 7699TIP3   OH244511   3.433   3.547  13.093 -0.1082  0.1191 -0.4316
 7699TIP3    H144512   3.498   3.482  13.117 -0.3800 -0.6248 -1.6386
 7699TIP3    H244513   3.443   3.616  13.158 -0.1608 -1.3522  1.2031
 7700TIP3   OH244514   3.079   3.461  12.983  0.6959  0.1993  0.5163
 7700TIP3    H144515   3.167   3.483  12.953  0.5253  0.6444  0.3344
 7700TIP3    H244516   3.091   3.384  13.039  1.4866  1.4559  2.1948
 7701TIP3   OH244517   0.350   4.964   0.792 -0.1458 -0.1080  0.3067
 7701TIP3    H144518   0.319   4.875   0.777  0.6593 -0.2531 -0.5461
 7701TIP3    H244519   0.409   4.956   0.867 -0.9610 -0.0767  0.9787
 7702TIP3   OH244520   0.738   4.851  12.685 -0.1051  0.7449 -0.4312
 7702TIP3    H144521   0.714   4.848  12.777 -2.5313  0.4486 -1.0046
 7702TIP3    H244522   0.688   4.780  12.644  1.0420  0.7548 -1.9637
 7703TIP3   OH244523   5.545   2.806   1.851  0.4716 -0.0768  0.2837
 7703TIP3    H144524   5.564   2.865   1.778  0.1855  1.2174  1.2210
 7703TIP3    H244525   5.618   2.818   1.911  0.1781 -0.3454  0.6957
 7704TIP3   OH244526   1.373   6.635  11.721 -0.4739  0.0198  0.2556
 7704TIP3    H144527   1.467   6.620  11.719 -0.1242  1.7247  1.2154
 7704TIP3    H244528   1.334   6.551  11.700  1.2479 -1.0047  0.9690
 7705TIP3   OH244529   1.847   0.839  12.944 -0.1134  0.0855  0.1197
 7705TIP3    H144530   1.760   0.879  12.934  0.6609  1.2095 -3.5285
 7705TIP3    H244531   1.832   0.745  12.931 -0.9460  0.0927  0.9589
 7706TIP3   OH244532   4.371   3.192  11.181  0.5079  0.5424  0.1389
 7706TIP3    H144533   4.312   3.212  11.109 -1.1106 -1.3945  0.8387
 7706TIP3    H244534   4.412   3.109  11.156  1.5645  0.9332  0.5078
 7707TIP3   OH244535   0.068   2.763  12.114 -0.0509 -0.2947  0.4322
 7707TIP3    H144536   0.007   2.722  12.052  1.0385 -3.7498  1.3904
 7707TIP3    H244537   0.154   2.747  12.077  0.4686  1.3832  0.8314
 7708TIP3   OH244538   5.616   5.085  16.657 -0.0442 -0.0131 -0.4220
 7708TIP3    H144539   5.593   5.177  16.670  1.0531  0.2877 -0.5201
 7708TIP3    H244540   5.643   5.055  16.744  0.5619  0.0464 -0.5830
 7709TIP3   OH244541   4.861   0.030  15.077  0.3037  0.0568  0.5302
 7709TIP3    H144542   4.798   0.063  15.140  0.4247 -1.1000  1.2816
 7709TIP3    H244543   4.922  -0.022  15.128  0.6987 -0.4974 -0.4647
 7710TIP3   OH244544   0.173   1.933  11.247 -0.3004 -0.4211  0.0213
 7710TIP3    H144545   0.189   1.900  11.336 -0.2356  1.7487  0.8819
 7710TIP3    H244546   0.080   1.917  11.232 -0.1393 -1.5705  0.0963
 7711TIP3   OH244547   6.388   4.051   0.411  0.0567  0.1026 -0.1954
 7711TIP3    H144548   6.405   4.070   0.318 -1.4487  1.4035 -0.2485
 7711TIP3    H244549   6.351   4.133   0.445  0.2803 -0.4651  1.4820
 7712TIP3   OH244550   2.902   1.805  11.435 -0.5809  0.1637 -0.1857
 7712TIP3    H144551   2.894   1.900  11.423 -0.0543  0.2484  0.0927
 7712TIP3    H244552   2.853   1.787  11.515  0.7459  0.4781  0.7518
 7713TIP3   OH244553   6.066   4.953  14.979  0.6662 -0.2836 -0.3428
 7713TIP3    H144554   6.002   4.973  15.046  1.0884 -0.1673  0.0307
 7713TIP3    H244555   6.141   4.918  15.027  1.5060  1.0681 -0.6140
 7714TIP3   OH244556   2.334   6.423  16.634 -0.1828 -0.2678 -0.2309
 7714TIP3    H144557   2.323   6.366  16.711  1.6409  0.7035  0.8219
 7714TIP3    H244558   2.287   6.503  16.656  2.5766  1.1067  1.1933
 7715TIP3   OH244559   3.528   3.914  15.763 -0.4763  0.2956 -0.1235
 7715TIP3    H144560   3.573   3.906  15.847  0.2040 -2.3844 -0.6367
 7715TIP3    H244561   3.570   3.848  15.707 -2.8605 -0.0592 -1.6466
 7716TIP3   OH244562   0.067   0.304   3.897  0.3056  0.4184 -0.5129
 7716TIP3    H144563  -0.015   0.256   3.914  0.7178  0.8816  4.4320
 7716TIP3    H244564   0.135   0.238   3.904  0.5506  0.6652 -0.5727
 7717TIP3   OH244565   0.770   3.553   4.263  0.2509 -0.1839  0.3361
 7717TIP3    H144566   0.795   3.507   4.183 -1.4182 -0.1997 -0.2154
 7717TIP3    H244567   0.720   3.489   4.313 -0.4097  0.4176  0.4628
 7718TIP3   OH244568   5.097   0.239  16.901  0.0717 -0.7637  0.4364
 7718TIP3    H144569   5.124   0.209  16.987 -2.0013  1.4040  1.9561
 7718TIP3    H244570   5.015   0.192  16.884 -0.5752  0.2876  0.5813
 7719TIP3   OH244571   0.150   6.299   4.985 -0.1611  0.6458 -0.5693
 7719TIP3    H144572   0.222   6.281   4.925 -0.3515 -0.4472 -0.4958
 7719TIP3    H244573   0.072   6.266   4.939 -0.3132 -0.1847  0.2521
 7720TIP3   OH244574   0.289   0.480  10.960  0.6869 -0.0535 -0.2324
 7720TIP3    H144575   0.291   0.507  11.052 -1.4083  1.4175 -0.5513
 7720TIP3    H244576   0.284   0.562  10.911  2.3024 -0.7911 -1.7328
 7721TIP3   OH244577   1.575   0.821  11.383  0.1807 -0.2542 -0.4593
 7721TIP3    H144578   1.541   0.744  11.428 -1.2820  1.2623  1.1928
 7721TIP3    H244579   1.547   0.895  11.436  0.6817  1.5198 -2.4855
 7722TIP3   OH244580   3.249   4.035  10.922  0.1504  0.5526 -0.6695
 7722TIP3    H144581   3.293   3.970  10.868 -2.3239 -1.8434  0.0151
 7722TIP3    H244582   3.167   4.053  10.875 -0.5465  0.8969  0.6434
 7723TIP3   OH244583   5.825   4.970  16.476 -0.5762 -0.7612  0.0658
 7723TIP3    H144584   5.802   4.891  16.525 -0.3632 -1.0494 -0.2876
 7723TIP3    H244585   5.806   5.042  16.535 -0.8273 -1.0762  0.3743
 7724TIP3   OH244586   2.832   1.004   4.294 -0.5777  0.4012  0.3209
 7724TIP3    H144587   2.822   0.932   4.231 -1.3192 -1.6949  2.6706
 7724TIP3    H244588   2.927   1.016   4.301 -0.4601  0.0836 -0.5488
 7725TIP3   OH244589   5.824   1.941  13.319 -0.0029 -0.1161 -0.6301
 7725TIP3    H144590   5.891   1.874  13.323  0.1821  0.1138  1.4862
 7725TIP3    H244591   5.850   1.998  13.247  0.5656 -1.5430 -1.5783
 7726TIP3   OH244592   6.792   6.519   1.490 -0.0323 -0.1209 -0.3116
 7726TIP3    H144593   6.748   6.435   1.506  1.3816 -1.2734 -2.0843
 7726TIP3    H244594   6.728   6.585   1.517 -0.9324 -1.7365  1.7902
 7727TIP3   OH244595   4.348   5.439   3.923 -0.5635 -0.0078 -0.2202
 7727TIP3    H144596   4.374   5.348   3.928 -0.7130 -0.0373  0.0358
 7727TIP3    H244597   4.291   5.444   3.846 -0.8871 -0.2140  0.0031
 7728TIP3   OH244598   1.426   3.432   2.467 -0.0249 -0.3453 -0.0535
 7728TIP3    H144599   1.490   3.428   2.396 -1.9744  1.7851 -2.1292
 7728TIP3    H244600   1.425   3.524   2.493 -2.4468 -0.2290 -0.3567
 7729TIP3   OH244601   2.327   3.717  13.510 -0.0521  0.3197 -0.0407
 7729TIP3    H144602   2.384   3.732  13.585 -0.0749  1.6976 -0.2603
 7729TIP3    H244603   2.272   3.796  13.506 -2.1973 -1.0665  0.3373
 7730TIP3   OH244604   6.012   6.187  13.162  0.2615 -0.0238 -0.4267
 7730TIP3    H144605   6.090   6.240  13.179  0.5804 -0.7513  0.4506
 7730TIP3    H244606   6.000   6.193  13.067  1.2563  0.2775 -0.5508
 7731TIP3   OH244607   1.927   2.866   5.354  0.5670  0.7512 -0.0651
 7731TIP3    H144608   1.856   2.819   5.310  1.6985  0.5210 -1.7126
 7731TIP3    H244609   1.940   2.818   5.436 -1.3457  0.9732  0.4061
 7732TIP3   OH244610   6.116   3.165   3.288  0.7022  0.1812  0.1649
 7732TIP3    H144611   6.064   3.245   3.296 -1.7626 -1.2363 -0.4222
 7732TIP3    H244612   6.143   3.162   3.197  0.7611  0.3220  0.1780
 7733TIP3   OH244613   3.550   3.345   4.581 -0.0503  1.0504 -0.1318
 7733TIP3    H144614   3.555   3.251   4.596 -1.0775  0.4952 -2.8025
 7733TIP3    H244615   3.512   3.380   4.662  1.5728 -0.6043  1.4176
 7734TIP3   OH244616   2.062   6.685   0.513  0.7578 -0.2247  0.4739
 7734TIP3    H144617   1.992   6.639   0.466 -0.2528  1.1286  0.6011
 7734TIP3    H244618   2.058   6.775   0.482  2.8344 -0.2127  0.0755
 7735TIP3   OH244619   2.865   0.836  13.797 -0.1504  0.1379 -0.3466
 7735TIP3    H144620   2.940   0.857  13.852 -2.4367  3.3871  1.8773
 7735TIP3    H244621   2.893   0.860  13.708  1.8171  0.0093  0.1876
 7736TIP3   OH244622   2.480   4.480  12.285 -0.3173  0.1988 -0.6109
 7736TIP3    H144623   2.431   4.560  12.266 -1.0097  0.0570  0.4728
 7736TIP3    H244624   2.415   4.422  12.325  0.8415  0.1911  1.3799
 7737TIP3   OH244625   0.201   2.030  14.169  0.2726 -0.9910  0.3427
 7737TIP3    H144626   0.276   2.088  14.177 -0.4931  0.0207  0.3870
 7737TIP3    H244627   0.127   2.082  14.200 -1.0362 -0.7338 -2.7668
 7738TIP3   OH244628   1.010   3.036   3.397  0.7976  0.1799 -0.1200
 7738TIP3    H144629   0.987   2.972   3.465  0.8572  0.7770  0.4653
 7738TIP3    H244630   0.962   3.007   3.320  0.7062 -0.4891  0.1815
 7739TIP3   OH244631   3.673   2.867  10.572 -0.0205  0.5403 -0.0629
 7739TIP3    H144632   3.605   2.914  10.525 -0.7774 -0.1687  0.2903
 7739TIP3    H244633   3.683   2.785  10.525  0.8132  0.7638 -0.2870
 7740TIP3   OH244634   1.794   1.470   0.616 -0.4026 -0.6708 -0.3071
 7740TIP3    H144635   1.739   1.436   0.687  1.0001 -4.0445 -0.6550
 7740TIP3    H244636   1.881   1.432   0.633  0.4278 -0.0786 -2.7974
 7741TIP3   OH244637   1.968   5.924  14.950  0.0850  0.1882 -0.2590
 7741TIP3    H144638   2.052   5.885  14.927  0.4026  0.2214  0.8308
 7741TIP3    H244639   1.991   6.003  14.998 -0.5692 -0.1381  0.6018
 7742TIP3   OH244640   2.346   6.396   3.232  0.4281  0.0491  0.1907
 7742TIP3    H144641   2.271   6.356   3.275 -0.1676 -0.9701 -1.7051
 7742TIP3    H244642   2.353   6.351   3.148  2.7308  0.6166  0.0106
 7743TIP3   OH244643   4.746   2.920   1.107  0.1974 -0.5607 -0.5304
 7743TIP3    H144644   4.663   2.895   1.147  0.3052  1.6944  1.3875
 7743TIP3    H244645   4.724   2.989   1.045  0.4609 -1.2124 -1.3569
 7744TIP3   OH244646   1.788   4.188   4.766  0.2584  0.2227 -0.4347
 7744TIP3    H144647   1.798   4.139   4.684 -0.6632 -1.7084  0.5282
 7744TIP3    H244648   1.698   4.220   4.765  0.1184 -0.1466 -0.0206
 7745TIP3   OH244649   5.998   6.236  10.390  0.2793 -0.0172 -0.0848
 7745TIP3    H144650   6.000   6.153  10.437  0.5883 -0.8497 -1.4825
 7745TIP3    H244651   5.961   6.213  10.304  1.3823  1.0702 -0.8820
 7746TIP3   OH244652   2.943   1.725   3.456  0.1365  0.4468  0.0862
 7746TIP3    H144653   2.959   1.774   3.537 -2.4589 -0.9190  1.5523
 7746TIP3    H244654   3.030   1.715   3.417  1.4914  1.2454  2.6523
 7747TIP3   OH244655   2.509   5.274  13.236  0.5367 -0.2957 -0.2513
 7747TIP3    H144656   2.414   5.284  13.238  0.5558 -0.1588 -0.0933
 7747TIP3    H244657   2.525   5.195  13.288  0.4207 -0.9548 -1.1726
 7748TIP3   OH244658   1.239   4.554   1.008  0.7310  0.3325  0.2569
 7748TIP3    H144659   1.259   4.525   1.098  1.9323  0.0535 -0.0776
 7748TIP3    H244660   1.322   4.589   0.976 -0.2740  2.6383  0.0479
 7749TIP3   OH244661   2.776   5.610  15.244  0.3743  0.0908  0.4965
 7749TIP3    H144662   2.802   5.677  15.180  1.9070 -0.4036  0.5640
 7749TIP3    H244663   2.729   5.659  15.311  2.6346  1.3810  1.2442
 7750TIP3   OH244664   1.130   6.783   2.690 -0.4940 -0.1339  0.4356
 7750TIP3    H144665   1.209   6.753   2.735  0.0531  0.7278  0.0840
 7750TIP3    H244666   1.109   6.712   2.630  0.6984  0.0808 -0.2864
 7751TIP3   OH244667   3.080   2.035  15.026  0.0563 -0.0084 -0.3535
 7751TIP3    H144668   2.989   2.022  14.999  0.4226 -0.6009 -1.3683
 7751TIP3    H244669   3.129   2.036  14.943  0.8742  1.1655  0.1240
 7752TIP3   OH244670   2.171   6.659  11.774 -0.4736 -0.4584 -0.3210
 7752TIP3    H144671   2.220   6.740  11.787 -1.5969  0.1778  0.0779
 7752TIP3    H244672   2.235   6.598  11.737  0.5675  0.3855  0.0414
 7753TIP3   OH244673   5.177   1.269   0.097 -0.5940 -0.1286 -0.5096
 7753TIP3    H144674   5.203   1.234   0.012  1.4273  0.6556 -0.2707
 7753TIP3    H244675   5.086   1.241   0.108 -1.2910  0.6630 -3.4127
 7754TIP3   OH244676   5.205   1.095   1.119  0.0649 -0.0029 -0.5502
 7754TIP3    H144677   5.133   1.083   1.180 -0.9195 -0.3390 -1.7310
 7754TIP3    H244678   5.250   1.174   1.148 -0.6441  0.0814  0.3272
 7755TIP3   OH244679   3.270   3.854   0.885  0.6691 -0.1206  0.1796
 7755TIP3    H144680   3.280   3.867   0.791 -1.0452 -2.5262 -0.4288
 7755TIP3    H244681   3.212   3.925   0.913  0.7884  0.3209 -0.6753
 7756TIP3   OH244682   5.682   5.939  13.465  0.1767  0.0859  0.2291
 7756TIP3    H144683   5.720   6.010  13.412  1.7642 -1.3332 -0.6232
 7756TIP3    H244684   5.660   5.981  13.548  0.4891  1.7158 -0.4672
 7757TIP3   OH244685   6.769   0.071  13.993  0.1447  0.7205  0.4986
 7757TIP3    H144686   6.682   0.110  13.984 -1.9773 -3.1705  1.9317
 7757TIP3    H244687   6.796   0.093  14.082  0.1932  1.1086  0.3898
 7758TIP3   OH244688   2.837   3.941   0.904 -0.0388  0.0035  0.1757
 7758TIP3    H144689   2.906   4.007   0.904 -0.8732  1.0663 -2.6791
 7758TIP3    H244690   2.767   3.980   0.850 -0.1561 -3.5549 -2.6547
 7759TIP3   OH244691   5.531   5.350  16.701 -0.6440 -0.3842  0.4276
 7759TIP3    H144692   5.437   5.353  16.688 -0.6372 -0.7217  0.2891
 7759TIP3    H244693   5.566   5.416  16.641 -0.6492 -1.6120 -0.9680
 7760TIP3   OH244694   3.160   4.381   3.459  0.6358  0.5268 -0.5454
 7760TIP3    H144695   3.226   4.439   3.422  0.2411  2.8624  2.0951
 7760TIP3    H244696   3.199   4.348   3.540 -0.4908 -0.0290 -0.2045
 7761TIP3   OH244697   0.852   2.089  14.747 -0.0688 -0.1490  0.0065
 7761TIP3    H144698   0.839   2.002  14.785  0.3206  0.5502  1.8775
 7761TIP3    H244699   0.946   2.105  14.758  0.1399 -0.0672 -1.6935
 7762TIP3   OH244700   1.012   6.135   1.812  0.0595 -0.0946 -0.9820
 7762TIP3    H144701   0.943   6.096   1.758  0.0310  1.1712 -1.9132
 7762TIP3    H244702   1.008   6.229   1.791  1.6754  0.0821 -0.6059
 7763TIP3   OH244703   3.363   1.925  11.129 -0.4687 -0.0238 -0.3081
 7763TIP3    H144704   3.406   2.010  11.121 -2.2458  0.7992 -1.9282
 7763TIP3    H244705   3.326   1.908  11.043 -0.5464 -2.2778  0.0820
 7764TIP3   OH244706   1.102   6.187  16.135 -0.5107 -1.1430 -0.5006
 7764TIP3    H144707   1.060   6.172  16.219  1.3730  1.3559  1.0338
 7764TIP3    H244708   1.149   6.105  16.117  2.9039 -0.3784  3.3816
 7765TIP3   OH244709   1.916   3.445   4.117  0.0117 -0.3367 -0.0668
 7765TIP3    H144710   2.003   3.469   4.149 -0.0637  1.0293 -0.8008
 7765TIP3    H244711   1.857   3.505   4.163 -0.3208  0.1342 -1.0935
 7766TIP3   OH244712   4.254   0.237   3.320  0.7351  0.0023  0.4625
 7766TIP3    H144713   4.306   0.171   3.365 -0.6100 -2.6832 -1.6479
 7766TIP3    H244714   4.165   0.223   3.351  0.0510 -0.8420 -1.6488
 7767TIP3   OH244715   4.317   6.219   0.578  0.1424  0.3865 -0.0742
 7767TIP3    H144716   4.380   6.249   0.512 -0.0691 -0.8469 -0.8740
 7767TIP3    H244717   4.314   6.124   0.567  0.8378  0.0163  2.4089
 7768TIP3   OH244718   5.576   6.225   2.838 -0.4344  0.2496 -0.2842
 7768TIP3    H144719   5.636   6.287   2.879 -1.8471  0.5733  1.3821
 7768TIP3    H244720   5.496   6.230   2.891 -0.8063 -2.5619 -0.4711
 7769TIP3   OH244721   5.872   1.568  17.093  0.3688  0.0934 -0.4860
 7769TIP3    H144722   5.861   1.481  17.133  1.2366  0.4643  0.6238
 7769TIP3    H244723   5.956   1.563  17.049  0.2316  0.2527 -0.7662
 7770TIP3   OH244724   2.087   2.910  15.508 -0.1552  0.6593 -0.1490
 7770TIP3    H144725   2.070   3.004  15.516 -0.9988  0.5626 -0.6238
 7770TIP3    H244726   2.063   2.874  15.594 -1.1541  0.7119 -0.3863
 7771TIP3   OH244727   4.055   0.054  13.602 -0.9191  0.2780 -0.1560
 7771TIP3    H144728   4.096   0.140  13.607 -1.6542  0.5892  1.0957
 7771TIP3    H244729   4.051   0.024  13.694 -0.8348 -1.0129 -0.5483
 7772TIP3   OH244730   3.815   2.876   5.866  0.0292 -0.2813  0.3285
 7772TIP3    H144731   3.738   2.831   5.831  1.9986 -2.0400 -2.1512
 7772TIP3    H244732   3.834   2.945   5.801  1.1878 -0.6442  0.2611
 7773TIP3   OH244733   5.203   4.269  13.715  0.0732 -0.0242 -0.4262
 7773TIP3    H144734   5.114   4.274  13.751 -0.0178  0.5371 -0.7082
 7773TIP3    H244735   5.194   4.301  13.625  0.3098 -1.3871 -0.9504
 7774TIP3   OH244736   5.276   6.270   5.119  0.4449 -0.4486 -0.1443
 7774TIP3    H144737   5.248   6.234   5.035  1.3083 -1.2947 -0.0910
 7774TIP3    H244738   5.370   6.251   5.122  0.4486 -0.2785  0.9397
 7775TIP3   OH244739   4.537   0.704   4.130 -0.2571  0.2567  0.2546
 7775TIP3    H144740   4.589   0.657   4.065 -1.3090 -0.5776 -0.0121
 7775TIP3    H244741   4.465   0.645   4.150 -1.6717  1.7697 -0.1379
 7776TIP3   OH244742   5.731   3.252  11.400 -0.1824  0.0635  0.0672
 7776TIP3    H144743   5.713   3.345  11.412 -0.1890  0.1075 -0.2880
 7776TIP3    H244744   5.819   3.249  11.365 -1.4057  0.1460 -3.3452
 7777TIP3   OH244745   0.070   5.460  13.541 -0.3301 -0.1028  0.8902
 7777TIP3    H144746   0.124   5.403  13.486  1.6816  1.0781  1.5281
 7777TIP3    H244747  -0.011   5.471  13.491  1.5638  1.3531 -2.2387
 7778TIP3   OH244748   3.427   1.308  13.678 -0.0150 -0.6307  0.4081
 7778TIP3    H144749   3.414   1.371  13.607  1.5128  3.0197  3.0490
 7778TIP3    H244750   3.355   1.325  13.738  1.3503 -0.1389  1.9618
 7779TIP3   OH244751   6.044   4.343  16.195  0.6272  0.3535  0.4970
 7779TIP3    H144752   5.951   4.324  16.199  0.5696  0.8074  2.2691
 7779TIP3    H244753   6.053   4.406  16.124 -0.2722 -0.3282 -0.2509
 7780TIP3   OH244754   3.047   5.822   2.621 -0.1757  0.4731 -0.0826
 7780TIP3    H144755   3.099   5.863   2.690 -0.7065  1.2323 -0.1120
 7780TIP3    H244756   3.013   5.896   2.570 -0.5927 -0.0376 -0.5565
 7781TIP3   OH244757   3.527   0.727  12.975  0.5358  0.3021  0.1529
 7781TIP3    H144758   3.568   0.748  13.059  2.5377  1.2227 -0.9805
 7781TIP3    H244759   3.581   0.771  12.910  1.0855 -3.0438 -1.9091
 7782TIP3   OH244760   1.342   1.991  14.727 -0.1041 -0.8498 -0.1009
 7782TIP3    H144761   1.403   1.948  14.786 -0.4145  1.0004  1.6816
 7782TIP3    H244762   1.260   1.943  14.738  0.0032 -0.8958  0.5171
 7783TIP3   OH244763   0.035   5.275  10.641  0.3262  0.1198  0.8345
 7783TIP3    H144764  -0.005   5.337  10.702  0.4028  2.0205 -0.9247
 7783TIP3    H244765  -0.029   5.204  10.634  0.1906  0.0007  2.8480
 7784TIP3   OH244766   1.038   2.532   2.158  0.4804 -0.4327 -0.1010
 7784TIP3    H144767   0.965   2.543   2.098 -1.0234 -1.1862  1.4972
 7784TIP3    H244768   1.048   2.437   2.168  0.5535 -0.3266  0.9777
 7785TIP3   OH244769   5.807   6.072   2.392  0.0117 -0.0606 -0.5967
 7785TIP3    H144770   5.888   6.111   2.425  0.2605 -0.7458 -0.3742
 7785TIP3    H244771   5.790   6.116   2.309 -0.9237  2.1186  0.6723
 7786TIP3   OH244772   1.658   1.406  13.202  0.0587  0.1346 -0.5959
 7786TIP3    H144773   1.730   1.350  13.231 -1.6013 -1.2955  0.9715
 7786TIP3    H244774   1.694   1.495  13.205  1.6489 -0.4996  0.4859
 7787TIP3   OH244775   5.033   2.907   1.697  0.1491 -0.0873 -0.3444
 7787TIP3    H144776   5.126   2.920   1.718 -0.0276  0.0070  0.4026
 7787TIP3    H244777   4.987   2.967   1.756 -0.3250  0.9199 -1.6950
 7788TIP3   OH244778   6.683   4.774  12.958  0.6113 -0.3831  0.1179
 7788TIP3    H144779   6.654   4.796  13.046  1.6115 -2.9003  1.1609
 7788TIP3    H244780   6.772   4.810  12.952  0.7492 -0.6900  0.3357
 7789TIP3   OH244781   3.940   2.869   5.530  0.1579  0.0310 -0.0638
 7789TIP3    H144782   3.876   2.857   5.460 -1.3495 -1.3765  1.4846
 7789TIP3    H244783   3.933   2.962   5.552 -1.3340 -0.0759  0.0236
 7790TIP3   OH244784   5.366   2.280   3.691 -0.5775 -0.2121  0.6948
 7790TIP3    H144785   5.348   2.252   3.602  0.1519 -0.4972  0.6375
 7790TIP3    H244786   5.320   2.364   3.699 -0.1902  0.0814 -0.1226
 7791TIP3   OH244787   3.147   6.569   2.889 -0.0635  0.2533  0.3512
 7791TIP3    H144788   3.138   6.616   2.971 -1.0276 -1.2170  1.1356
 7791TIP3    H244789   3.059   6.564   2.853  0.5743  2.4475 -1.7530
 7792TIP3   OH244790   5.539   3.872   5.584 -0.0917 -0.1011  0.6505
 7792TIP3    H144791   5.486   3.880   5.663  1.8732  1.0399  1.9425
 7792TIP3    H244792   5.536   3.958   5.543  0.9419  0.0659  0.8896
 7793TIP3   OH244793   5.543   1.822   0.399  0.9451  0.8401  0.0193
 7793TIP3    H144794   5.485   1.819   0.475  0.5735 -1.0992 -0.2717
 7793TIP3    H244795   5.541   1.732   0.365  1.1421  1.6533 -2.2609
 7794TIP3   OH244796   5.274   2.275  13.259  0.3281 -0.1225  0.1506
 7794TIP3    H144797   5.227   2.298  13.178 -1.3140  0.9341  1.3387
 7794TIP3    H244798   5.308   2.359  13.290  1.5304 -0.6262  0.2446
 7795TIP3   OH244799   0.304   0.641   2.968 -0.1872  0.1866  0.0749
 7795TIP3    H144800   0.362   0.704   2.925  0.0367 -0.0745 -0.0066
 7795TIP3    H244801   0.224   0.642   2.915  0.0622 -0.0822 -0.3052
 7796TIP3   OH244802   5.980   4.916   6.182 -0.3953 -0.3284 -0.7117
 7796TIP3    H144803   5.979   4.820   6.178 -0.6120 -0.4274  0.9475
 7796TIP3    H244804   5.896   4.939   6.221  0.5495  0.3743  1.0088
 7797TIP3   OH244805   3.034   2.493  15.090 -0.1446 -0.3919 -0.0220
 7797TIP3    H144806   3.098   2.523  15.154  0.8296 -0.2856 -1.0115
 7797TIP3    H244807   3.087   2.465  15.015 -1.2229 -1.0262 -0.5709
 7798TIP3   OH244808   1.903   1.947   5.546  0.5006 -0.0758 -0.2578
 7798TIP3    H144809   1.858   1.886   5.605  0.3963  0.2141 -0.0353
 7798TIP3    H244810   1.959   1.998   5.604 -0.6410  1.1717 -0.2042
 7799TIP3   OH244811   6.304   5.337   5.082 -0.2197 -0.8660 -0.4683
 7799TIP3    H144812   6.282   5.265   5.141 -1.0648 -0.8288 -0.7221
 7799TIP3    H244813   6.342   5.294   5.005 -1.8845 -1.1627 -1.1591
 7800TIP3   OH244814   0.509   1.825  12.082 -0.2581  0.4251 -0.2446
 7800TIP3    H144815   0.578   1.878  12.120 -0.5987  0.6512  0.0686
 7800TIP3    H244816   0.520   1.739  12.121  2.7977 -0.9853 -3.6791
 7801TIP3   OH244817   0.398   0.602   0.010 -0.3452 -0.5498 -0.5569
 7801TIP3    H144818   0.412   0.689   0.047 -0.4021 -0.0947 -1.5858
 7801TIP3    H244819   0.469   0.591  -0.053 -0.8658 -0.8727 -1.0913
 7802TIP3   OH244820   5.497   2.270  14.887 -0.2479  0.3825  0.1188
 7802TIP3    H144821   5.535   2.220  14.814  0.1063 -1.0527  1.2361
 7802TIP3    H244822   5.554   2.251  14.961 -0.2330  2.3296  0.6610
 7803TIP3   OH244823   5.338   1.480   4.441  0.1281 -0.1582  0.0118
 7803TIP3    H144824   5.403   1.460   4.508 -0.6409  1.8167  1.4550
 7803TIP3    H244825   5.260   1.433   4.468  0.8125 -2.5174 -1.7134
 7804TIP3   OH244826   1.294   4.593  12.626 -0.2228  0.1966 -0.0656
 7804TIP3    H144827   1.223   4.616  12.566  0.8122  0.1370 -1.3691
 7804TIP3    H244828   1.310   4.672  12.677 -2.1177 -0.1937  1.2469
 7805TIP3   OH244829   1.610   5.101  15.618 -0.3355 -0.1228 -0.1341
 7805TIP3    H144830   1.682   5.127  15.561  0.0773 -0.4356  0.2388
 7805TIP3    H244831   1.650   5.088  15.704 -0.4532 -2.2733 -0.3646
 7806TIP3   OH244832   6.091   1.160  12.851 -0.1163  0.4889  0.1010
 7806TIP3    H144833   6.176   1.146  12.892 -0.3356 -3.4088 -0.3494
 7806TIP3    H244834   6.027   1.142  12.919 -0.5317  0.0089 -0.4009
 7807TIP3   OH244835   0.791   0.598  15.086 -0.5214  0.0275  0.3468
 7807TIP3    H144836   0.815   0.564  15.172 -1.2259 -0.0593  0.5147
 7807TIP3    H244837   0.722   0.661  15.103 -0.9951 -0.3378 -0.1942
 7808TIP3   OH244838   0.513   4.609   3.739 -0.5730 -0.1777 -0.1480
 7808TIP3    H144839   0.502   4.562   3.656 -0.1621  0.9081 -0.8401
 7808TIP3    H244840   0.432   4.658   3.750 -1.5094 -1.9273  1.1897
 7809TIP3   OH244841   5.531   1.515   1.669 -0.3719 -0.3667 -0.5474
 7809TIP3    H144842   5.515   1.564   1.749 -0.9795 -2.0498  0.4200
 7809TIP3    H244843   5.519   1.578   1.598 -0.9251  0.8891  0.6457
 7810TIP3   OH244844   1.587   5.881  16.587 -0.3703 -0.2537 -0.2850
 7810TIP3    H144845   1.632   5.865  16.503  0.4135  2.0345 -0.3613
 7810TIP3    H244846   1.498   5.848  16.573  0.2043 -1.4010 -1.4454
 7811TIP3   OH244847   5.984   1.603   3.084  0.1548 -0.6433  0.0279
 7811TIP3    H144848   6.027   1.538   3.140 -0.2407 -1.0139 -0.0981
 7811TIP3    H244849   6.035   1.683   3.097  0.5029 -0.9169  0.3625
 7812TIP3   OH244850   4.818   3.030  11.607 -0.1038 -0.3975 -0.6717
 7812TIP3    H144851   4.884   3.061  11.669  0.1537 -4.7411  1.5892
 7812TIP3    H244852   4.862   3.034  11.521  1.7417  0.2122  0.2393
 7813TIP3   OH244853   4.596   5.467  10.448  0.2523  0.5224 -0.5144
 7813TIP3    H144854   4.518   5.424  10.482  0.7920  1.4521  2.1064
 7813TIP3    H244855   4.669   5.426  10.493  1.3450 -0.2766 -2.8691
 7814TIP3   OH244856   4.580   0.323  11.962 -0.3047  0.4427 -0.8897
 7814TIP3    H144857   4.594   0.261  12.034 -0.2180  0.1033 -1.1912
 7814TIP3    H244858   4.643   0.393  11.977 -0.4936  0.5227 -0.4686
 7815TIP3   OH244859   2.244   0.831  13.797  0.2301 -0.2330 -0.6490
 7815TIP3    H144860   2.315   0.781  13.836  1.6118  1.8122 -0.3805
 7815TIP3    H244861   2.282   0.917  13.778 -1.9191  0.6445 -1.3705
 7816TIP3   OH244862   4.976   6.321   2.929  0.6874  0.0589 -0.8690
 7816TIP3    H144863   5.072   6.318   2.925  0.7025  0.9376 -3.9637
 7816TIP3    H244864   4.952   6.242   2.978  2.9609  0.1587  0.5681
 7817TIP3   OH244865   3.202   5.269   3.183  0.0661 -0.2805 -0.0010
 7817TIP3    H144866   3.221   5.350   3.231 -0.3386 -0.3902  0.3580
 7817TIP3    H244867   3.270   5.208   3.210  0.6896  0.0985 -0.6854
 7818TIP3   OH244868   1.983   0.292  12.360 -0.2660  0.0133  0.1965
 7818TIP3    H144869   2.069   0.334  12.363 -0.3310  0.0740  2.6913
 7818TIP3    H244870   2.001   0.198  12.370 -0.4606 -0.0184  0.2618
 7819TIP3   OH244871   4.679   4.547  12.807 -0.5285  0.2740  0.2306
 7819TIP3    H144872   4.689   4.565  12.714 -1.3088 -0.7439 -0.0638
 7819TIP3    H244873   4.764   4.570  12.845  0.5135 -1.2128 -1.0490
 7820TIP3   OH244874   1.929   2.103   4.353  0.2579 -0.4578  0.1914
 7820TIP3    H144875   1.871   2.101   4.429 -0.8786  1.1301 -0.5885
 7820TIP3    H244876   1.920   2.016   4.314 -0.1317 -0.8594  1.1476
 7821TIP3   OH244877   1.720   3.672  14.437 -0.0950  0.5071 -0.2091
 7821TIP3    H144878   1.661   3.639  14.370 -0.0323  0.9195 -0.4676
 7821TIP3    H244879   1.808   3.655  14.402 -0.0522 -0.0739  0.1588
 7822TIP3   OH244880   5.532   0.882  15.500 -0.3162 -0.6247 -0.1145
 7822TIP3    H144881   5.450   0.904  15.454 -0.6850  0.2244  0.9317
 7822TIP3    H244882   5.570   0.966  15.524  1.0302 -0.9973 -0.8097
 7823TIP3   OH244883   6.301   3.177  14.224 -0.6715  0.1643 -0.6071
 7823TIP3    H144884   6.368   3.231  14.266 -1.4227  0.5654  0.0887
 7823TIP3    H244885   6.235   3.239  14.193 -2.0416 -0.3678  1.0797
 7824TIP3   OH244886   1.516   5.467   3.020 -0.5886  0.6125  0.3293
 7824TIP3    H144887   1.488   5.382   3.054  0.4589  0.3002  0.4790
 7824TIP3    H244888   1.466   5.479   2.939 -2.0941  0.7263  1.2470
 7825TIP3   OH244889   2.209   4.578  15.788  0.9775 -0.1298 -0.0225
 7825TIP3    H144890   2.119   4.544  15.790  0.5664  0.7182 -1.9557
 7825TIP3    H244891   2.264   4.501  15.793  0.1967 -0.6347  1.9050
 7826TIP3   OH244892   6.545   1.281   3.011  0.3792 -0.6001  0.0480
 7826TIP3    H144893   6.640   1.275   3.001  0.5774  2.5852 -1.0018
 7826TIP3    H244894   6.527   1.234   3.093  2.8055 -1.4487  0.1820
 7827TIP3   OH244895   5.068   3.062   4.113 -0.7030 -0.2221 -0.0556
 7827TIP3    H144896   4.989   3.059   4.166 -0.8043  1.9831 -0.0150
 7827TIP3    H244897   5.040   3.036   4.025 -1.5027  0.6108 -0.0553
 7828TIP3   OH244898   2.587   5.633  14.459  0.3244  0.2882  0.4184
 7828TIP3    H144899   2.594   5.691  14.534  0.2148 -0.2556  0.8581
 7828TIP3    H244900   2.647   5.671  14.394 -2.2599  2.8477 -0.6598
 7829TIP3   OH244901   0.009   1.765   2.221 -0.0791 -0.5335  0.0624
 7829TIP3    H144902   0.043   1.847   2.255  1.1227 -0.6765 -0.7162
 7829TIP3    H244903  -0.076   1.788   2.184 -0.5243 -0.0037  1.3774
 7830TIP3   OH244904   3.334   3.809  11.839  0.2025 -0.8153  0.0262
 7830TIP3    H144905   3.383   3.759  11.904  2.9556  0.5411 -0.8282
 7830TIP3    H244906   3.379   3.894  11.835 -0.0648 -0.7038 -3.3372
 7831TIP3   OH244907   0.908   0.383   1.005  0.4600 -0.3631  0.2406
 7831TIP3    H144908   0.865   0.302   1.031 -2.1860  0.5465 -0.9189
 7831TIP3    H244909   0.911   0.379   0.909  0.2585  0.8902  0.1638
 7832TIP3   OH244910   3.012   5.057   3.909  0.3116 -0.3079 -0.5170
 7832TIP3    H144911   2.938   5.086   3.963  0.4789  0.3581 -0.6380
 7832TIP3    H244912   3.048   5.138   3.872  1.0836 -0.6283 -0.4840
 7833TIP3   OH244913   2.827   4.135  12.330  0.8500  0.2677  0.3887
 7833TIP3    H144914   2.882   4.192  12.276  1.0534 -2.6094 -2.8290
 7833TIP3    H244915   2.882   4.057  12.345 -1.2461 -1.4611 -0.4178
 7834TIP3   OH244916   3.734   6.546  11.874  0.1000  0.0155  0.3122
 7834TIP3    H144917   3.789   6.622  11.855 -1.3055  0.9315 -0.2503
 7834TIP3    H244918   3.670   6.577  11.938  0.0615 -0.9510  0.7682
 7835TIP3   OH244919   1.051   1.986  16.672 -0.0735  0.2122 -0.4850
 7835TIP3    H144920   0.964   1.969  16.636 -0.4372  1.9350 -0.5086
 7835TIP3    H244921   1.038   1.990  16.767  0.2235 -0.7470 -0.3943
 7836TIP3   OH244922   2.035   5.870  10.336 -0.6450 -0.1697 -0.7128
 7836TIP3    H144923   2.040   5.890  10.429  1.0914 -0.1772 -0.7713
 7836TIP3    H244924   1.994   5.783  10.333  2.3703 -1.7825  0.3441
 7837TIP3   OH244925   2.350   5.389  13.743  0.2644 -0.2614 -0.3419
 7837TIP3    H144926   2.286   5.459  13.749  0.5769  0.0539 -0.6069
 7837TIP3    H244927   2.385   5.396  13.654  2.3557  1.0896  0.4960
 7838TIP3   OH244928   3.288   4.448  14.579  0.0104  0.3752 -0.5150
 7838TIP3    H144929   3.330   4.368  14.611 -1.0069 -0.7934 -1.9678
 7838TIP3    H244930   3.314   4.515  14.642  0.1256 -1.2819  1.3054
 7839TIP3   OH244931   4.597   0.841   2.727 -1.0914  0.3370  0.1340
 7839TIP3    H144932   4.547   0.890   2.792  0.1371  0.7119  0.8269
 7839TIP3    H244933   4.586   0.749   2.753  0.2960  0.5362  1.6089
 7840TIP3   OH244934   6.222   4.581   3.645 -0.0132 -0.0062  0.3947
 7840TIP3    H144935   6.295   4.617   3.595  0.3362 -0.6668  0.4235
 7840TIP3    H244936   6.144   4.625   3.609  0.3299  0.2228 -0.0766
 7841TIP3   OH244937   0.587   5.723   4.472 -0.8921 -0.3983 -0.2806
 7841TIP3    H144938   0.662   5.668   4.492 -0.0800  0.3271 -1.2805
 7841TIP3    H244939   0.605   5.806   4.516 -0.7426  0.0336 -1.1456
 7842TIP3   OH244940   6.554   6.157  13.104  0.1352  0.2143 -0.5847
 7842TIP3    H144941   6.572   6.223  13.037  2.5490 -1.1410 -1.3985
 7842TIP3    H244942   6.638   6.144  13.148 -0.2764 -2.1522 -0.3422
 7843TIP3   OH244943   2.735   4.905   5.568 -0.4146  0.0897 -0.0993
 7843TIP3    H144944   2.710   4.994   5.590 -0.5547  0.0035  0.0951
 7843TIP3    H244945   2.659   4.852   5.593  0.7662 -0.4881  2.7086
 7844TIP3   OH244946   3.366   1.287   4.185 -1.1807 -0.2641  0.2148
 7844TIP3    H144947   3.339   1.253   4.100  1.3858  0.8917 -1.1856
 7844TIP3    H244948   3.313   1.365   4.198 -0.2592  0.6563 -1.3174
 7845TIP3   OH244949   1.932   3.412  13.656  0.8112 -0.4350  0.0448
 7845TIP3    H144950   1.887   3.340  13.613  0.4461  0.0112 -0.3337
 7845TIP3    H244951   1.991   3.370  13.718  0.1548 -1.0440  0.2731
 7846TIP3   OH244952   0.351   6.219   4.552  0.0639 -0.0554 -0.2181
 7846TIP3    H144953   0.268   6.240   4.508  0.4305 -1.4151 -1.6665
 7846TIP3    H244954   0.413   6.282   4.516 -0.1926  0.5438  0.3757
 7847TIP3   OH244955   6.348   6.636  13.589  0.2339  0.0791  0.6736
 7847TIP3    H144956   6.373   6.593  13.670 -1.7772 -1.4298  0.5744
 7847TIP3    H244957   6.319   6.723  13.616 -2.9000 -1.2411  2.0790
 7848TIP3   OH244958   1.115   0.854  15.448 -0.1194  0.5626  0.2839
 7848TIP3    H144959   1.121   0.909  15.525  1.3020 -0.3128  0.8219
 7848TIP3    H244960   1.022   0.859  15.422 -0.5336  1.1488  1.8079
 7849TIP3   OH244961   2.131   3.783   2.028  0.1349  0.1415 -0.4738
 7849TIP3    H144962   2.076   3.823   1.961  0.1065  0.1344 -0.4547
 7849TIP3    H244963   2.069   3.738   2.085  0.0084  1.5211  0.5120
 7850TIP3   OH244964   1.443   6.671   0.751  0.0798  0.3272  0.3370
 7850TIP3    H144965   1.358   6.715   0.744  0.9772  2.0321 -0.4307
 7850TIP3    H244966   1.468   6.682   0.842 -1.0980 -1.3841  0.9132
 7851TIP3   OH244967   4.670   2.511  15.251  0.0601 -0.1446 -0.6879
 7851TIP3    H144968   4.645   2.419  15.241 -0.2334 -0.1023 -0.3337
 7851TIP3    H244969   4.601   2.550  15.303 -0.2096  0.4595 -1.4695
 7852TIP3   OH244970   1.626   1.380   1.620  0.9704 -0.0699 -0.1683
 7852TIP3    H144971   1.693   1.344   1.561  0.8683  1.1821 -1.0933
 7852TIP3    H244972   1.653   1.470   1.634  0.1154  0.0950  0.4246
 7853TIP3   OH244973   4.050   4.774  16.932 -0.1799  0.2657 -0.1188
 7853TIP3    H144974   4.132   4.745  16.893 -0.6441 -1.1853 -0.0815
 7853TIP3    H244975   4.002   4.814  16.859  1.3668  3.1752  0.2844
 7854TIP3   OH244976   0.713   1.014  12.955  0.3183 -0.0950  0.1277
 7854TIP3    H144977   0.658   1.058  13.020  0.9338  1.0004 -0.0735
 7854TIP3    H244978   0.653   0.993  12.883 -0.5071 -1.8779  1.2548
 7855TIP3   OH244979   1.680   0.865  15.578 -0.2888 -0.5652  0.3365
 7855TIP3    H144980   1.742   0.814  15.525 -0.7770  0.1600 -0.9844
 7855TIP3    H244981   1.731   0.896  15.652  1.1274  0.5513 -1.0483
 7856TIP3   OH244982   3.795   0.885  11.160  0.3153 -0.0922  0.0869
 7856TIP3    H144983   3.707   0.854  11.181 -0.6165  3.3333  1.9616
 7856TIP3    H244984   3.849   0.854  11.233  0.5082 -1.3764 -0.5746
 7857TIP3   OH244985   4.193   2.165  11.727 -0.2273  0.2756 -0.2992
 7857TIP3    H144986   4.116   2.135  11.775  0.2065  0.2395  0.3860
 7857TIP3    H244987   4.159   2.189  11.640 -0.6298 -2.0385 -0.8554
 7858TIP3   OH244988   4.551   3.202   2.370 -0.5742 -0.3986 -0.0402
 7858TIP3    H144989   4.584   3.269   2.430 -0.9267  0.0271 -0.3190
 7858TIP3    H244990   4.607   3.210   2.293  1.5571 -2.6072  1.1194
 7859TIP3   OH244991   4.155   3.364   5.712 -0.0390  0.2299  0.0134
 7859TIP3    H144992   4.174   3.455   5.731 -1.0231  0.7074 -1.2072
 7859TIP3    H244993   4.145   3.360   5.617 -1.6805 -0.7935  0.1860
 7860TIP3   OH244994   0.218   6.490   5.739  0.1104  0.2800 -0.2713
 7860TIP3    H144995   0.259   6.409   5.770  0.9645  0.2713 -1.3661
 7860TIP3    H244996   0.184   6.467   5.653  2.5704  1.7191 -1.7043
 7861TIP3   OH244997   4.065   6.708  12.404  0.2508  0.0876  0.2023
 7861TIP3    H144998   4.027   6.679  12.487  2.1055  0.2697  1.1547
 7861TIP3    H244999   4.110   6.631  12.369  0.9143  0.4569  0.2212
 7862TIP3   OH245000   0.878   6.758  15.617 -0.3307  0.0492  0.4500
 7862TIP3    H145001   0.851   6.716  15.699 -1.5479  0.4160  0.2493
 7862TIP3    H245002   0.842   6.702  15.549  0.8083 -0.3391  0.1336
 7863TIP3   OH245003   5.894   2.879  11.544  0.4262  0.3578  0.2357
 7863TIP3    H145004   5.948   2.955  11.521  1.3495 -0.5049 -0.5703
 7863TIP3    H245005   5.824   2.879  11.478  0.8472  0.1037 -0.2198
 7864TIP3   OH245006   1.543   4.649   1.550 -0.1673  0.0297 -0.4901
 7864TIP3    H145007   1.560   4.703   1.473 -0.7134 -0.9932 -1.3523
 7864TIP3    H245008   1.612   4.583   1.548 -0.6946 -0.5288 -0.6142
 7865TIP3   OH245009   2.446   5.091   5.497  0.3791  0.3039  0.2230
 7865TIP3    H145010   2.446   5.019   5.435 -0.7882  0.2454  0.2660
 7865TIP3    H245011   2.414   5.052   5.579  1.1811  0.5433  0.6585
 7866TIP3   OH245012   5.975   0.615  10.496  0.0512  0.1325  0.1102
 7866TIP3    H145013   6.049   0.629  10.437 -0.3597 -0.8708 -0.6832
 7866TIP3    H245014   6.006   0.551  10.560 -0.6131 -1.6030 -1.2346
 7867TIP3   OH245015   2.725   6.687  16.141 -0.2265 -0.9060 -0.3489
 7867TIP3    H145016   2.651   6.746  16.153  0.6892  0.1743  0.2008
 7867TIP3    H245017   2.714   6.619  16.207  1.1795  1.2761  2.3368
 7868TIP3   OH245018   4.020   2.914  15.864 -0.1844  0.0254 -0.8600
 7868TIP3    H145019   4.026   2.835  15.809  0.9436  0.2342 -1.0607
 7868TIP3    H245020   4.010   2.986  15.802  0.9534  0.2477 -0.8023
 7869TIP3   OH245021   6.146   2.473  12.556  0.5082 -0.3028  0.2946
 7869TIP3    H145022   6.234   2.488  12.523  0.8081  0.1201  1.2512
 7869TIP3    H245023   6.158   2.455  12.650 -0.3488 -1.0294  0.2825
 7870TIP3   OH245024   2.989   1.270  12.093 -0.3765  0.7676 -0.5393
 7870TIP3    H145025   3.026   1.358  12.098  1.1770  0.2644 -2.1567
 7870TIP3    H245026   3.047   1.216  12.147 -0.6840  0.5451 -0.4295
 7871TIP3   OH245027   4.643   4.235  15.257  0.0496  0.6166  0.3707
 7871TIP3    H145028   4.572   4.185  15.217 -0.3469  0.0948  1.6856
 7871TIP3    H245029   4.645   4.205  15.348  0.4245  2.3275  0.9556
 7872TIP3   OH245030   0.018   0.612   5.888  0.0472  0.0497 -0.4943
 7872TIP3    H145031   0.113   0.621   5.894 -0.0411  0.7240 -0.1012
 7872TIP3    H245032  -0.010   0.586   5.975 -0.0259 -1.2414 -0.8764
 7873TIP3   OH245033   3.691   2.185  14.676 -0.1760 -0.2139  0.5531
 7873TIP3    H145034   3.783   2.174  14.651  0.3372  0.8044  1.8643
 7873TIP3    H245035   3.667   2.101  14.715  0.6996  0.0223  1.6441
 7874TIP3   OH245036   4.353   5.299  10.542  0.2016 -0.1086  0.1201
 7874TIP3    H145037   4.406   5.228  10.579 -1.6765 -1.9642 -0.6233
 7874TIP3    H245038   4.304   5.334  10.616  0.6671  0.0236  0.3713
 7875TIP3   OH245039   2.326   5.680  14.833  0.2325  0.0657 -0.4871
 7875TIP3    H145040   2.242   5.635  14.823 -0.5481  1.0688  1.1009
 7875TIP3    H245041   2.342   5.680  14.927  1.1234  1.4649 -0.6115
 7876TIP3   OH245042   4.225   5.023   3.270  0.3101  0.5612  0.7002
 7876TIP3    H145043   4.228   5.046   3.177  0.6446  0.4191  0.6759
 7876TIP3    H245044   4.314   5.038   3.301  0.1414  0.8378  1.0548
 7877TIP3   OH245045   2.641   4.045   2.885  0.1043  0.1146  0.5160
 7877TIP3    H145046   2.598   4.024   2.968 -1.8013 -0.3062 -0.5316
 7877TIP3    H245047   2.659   3.959   2.846  0.8530  0.3154  0.4027
 7878TIP3   OH245048   0.327   3.659  12.363  0.3741  0.5322  0.0180
 7878TIP3    H145049   0.341   3.752  12.382  0.4560  0.6009 -0.3642
 7878TIP3    H245050   0.236   3.654  12.332 -0.9323 -0.0663  3.4832
 7879TIP3   OH245051   2.452   6.683   4.616 -0.7368 -0.0309 -0.5858
 7879TIP3    H145052   2.461   6.754   4.553 -1.0499 -1.6755 -2.6217
 7879TIP3    H245053   2.505   6.612   4.579 -0.3214 -0.8298  1.4325
 7880TIP3   OH245054   3.241   0.645   3.088  0.3884  0.3279 -0.1890
 7880TIP3    H145055   3.324   0.619   3.129 -0.8432 -0.2371  2.1854
 7880TIP3    H245056   3.265   0.711   3.023  2.6149  0.9274  1.1285
 7881TIP3   OH245057   4.716   1.242  15.074  0.3840  0.2061 -1.2057
 7881TIP3    H145058   4.625   1.271  15.063  0.6678  1.1009 -1.2632
 7881TIP3    H245059   4.711   1.172  15.140 -0.0924  1.8359  0.5864
 7882TIP3   OH245060   1.227   4.963   2.778 -0.2020  0.0406 -0.0832
 7882TIP3    H145061   1.317   4.988   2.796  0.1615 -0.7465 -0.7378
 7882TIP3    H245062   1.205   4.902   2.849 -1.4695  2.8583  2.1833
 7883TIP3   OH245063   4.044   5.653   5.761 -0.6659  0.3008 -0.8214
 7883TIP3    H145064   3.963   5.701   5.743 -0.3767  0.5562 -1.4649
 7883TIP3    H245065   4.036   5.573   5.709 -2.6945 -2.1230  2.7646
 7884TIP3   OH245066   1.594   3.830  13.328  0.5413 -0.2060  0.0260
 7884TIP3    H145067   1.564   3.790  13.410  1.1733 -1.3633 -0.2793
 7884TIP3    H245068   1.645   3.761  13.286 -0.4591  0.0756 -1.7457
 7885TIP3   OH245069   2.524   1.037   2.590 -1.2378 -0.1361 -0.5048
 7885TIP3    H145070   2.454   1.102   2.589 -1.1905 -0.0649  0.2726
 7885TIP3    H245071   2.489   0.964   2.640 -1.3705 -0.8157 -1.5494
 7886TIP3   OH245072   4.471   1.381   2.728  0.4882 -0.4823  0.3726
 7886TIP3    H145073   4.396   1.337   2.687  0.3060 -1.5777  1.7899
 7886TIP3    H245074   4.495   1.451   2.667 -0.9323 -0.8682 -0.6681
 7887TIP3   OH245075   4.291   5.725   1.065 -0.1612  0.6112  0.1467
 7887TIP3    H145076   4.218   5.664   1.062  0.4498 -0.1129 -0.6769
 7887TIP3    H245077   4.368   5.670   1.050  0.5351  1.3850  0.8132
 7888TIP3   OH245078   1.549   3.710   4.353 -0.3194 -0.2710  0.4828
 7888TIP3    H145079   1.476   3.662   4.393 -0.4435 -0.7989 -0.3317
 7888TIP3    H245080   1.595   3.643   4.301 -1.6453  0.8035 -2.2950
 7889TIP3   OH245081   4.386   5.878   0.491 -0.0560  0.4991  0.0910
 7889TIP3    H145082   4.350   5.928   0.418  1.3964  1.8515  0.2478
 7889TIP3    H245083   4.480   5.895   0.488  0.0125  0.8663  2.4731
 7890TIP3   OH245084   5.522   2.138  11.946 -0.2020  0.0912  0.2580
 7890TIP3    H145085   5.535   2.103  11.858 -0.9658  1.9442 -0.6456
 7890TIP3    H245086   5.589   2.205  11.955  0.7301 -0.9796  1.6415
 7891TIP3   OH245087   3.465   5.082   4.375  0.5970 -0.5234 -0.3093
 7891TIP3    H145088   3.395   5.067   4.439  0.7283 -0.9824 -0.2696
 7891TIP3    H245089   3.463   5.176   4.359  0.4699 -0.4211  0.2663
 7892TIP3   OH245090   1.564   3.714   3.807  0.0021  0.6804  0.9294
 7892TIP3    H145091   1.543   3.779   3.740  0.4901 -1.4812 -1.4973
 7892TIP3    H245092   1.556   3.630   3.762 -0.1133 -0.9629  3.7613
 7893TIP3   OH245093   2.100   2.507  15.019 -0.1935 -0.0427  0.0243
 7893TIP3    H145094   2.058   2.494  15.103 -1.1675 -0.3691 -0.4998
 7893TIP3    H245095   2.100   2.602  15.006  1.0050  0.1008  0.8908
 7894TIP3   OH245096   4.860   4.722  16.090 -0.0131 -0.2170 -0.4602
 7894TIP3    H145097   4.946   4.689  16.117 -0.3051  0.3857  1.3502
 7894TIP3    H245098   4.798   4.674  16.145 -0.5524  1.9212  0.9151
 7895TIP3   OH245099   5.915   4.051   4.405 -0.0921  0.3308  0.0068
 7895TIP3    H145100   5.874   4.053   4.492  0.7250 -1.4132  0.4778
 7895TIP3    H245101   6.006   4.076   4.421  0.0446  0.0630 -0.3404
 7896TIP3   OH245102   4.149   2.877  12.456  0.0748 -0.0859 -0.2288
 7896TIP3    H145103   4.137   2.821  12.379  1.3834  0.1379 -0.6350
 7896TIP3    H245104   4.164   2.816  12.528 -0.4464 -0.2907 -0.2961
 7897TIP3   OH245105   0.429   5.507   5.489  0.6960  0.1191 -0.2266
 7897TIP3    H145106   0.357   5.473   5.542  1.1343 -1.6252 -0.6759
 7897TIP3    H245107   0.474   5.429   5.456  3.6238  1.0897  1.1163
 7898TIP3   OH245108   2.243   3.926   4.110 -0.1032  0.3283  0.3239
 7898TIP3    H145109   2.295   3.848   4.095 -1.9876 -0.5576 -2.1879
 7898TIP3    H245110   2.156   3.905   4.076 -0.8756  3.2717  0.1540
 7899TIP3   OH245111   3.377   5.688  12.667 -0.1721 -0.3045  0.1431
 7899TIP3    H145112   3.383   5.689  12.572  1.9460 -0.3681  0.2149
 7899TIP3    H245113   3.285   5.674  12.686 -0.6633 -0.0853 -1.8896
 7900TIP3   OH245114   6.041   3.530   6.406 -0.0967 -0.4173  0.1170
 7900TIP3    H145115   6.104   3.480   6.355  1.0910  0.0524  1.0615
 7900TIP3    H245116   6.012   3.470   6.475  2.1296  0.3996  1.9011
 7901TIP3   OH245117   2.233   5.920  14.745 -0.2989  0.7158  0.1422
 7901TIP3    H145118   2.314   5.970  14.738  0.2243 -0.0889  0.2776
 7901TIP3    H245119   2.261   5.833  14.774 -1.2395  0.5172  0.5127
 7902TIP3   OH245120   5.045   5.402   6.058 -0.0396 -0.1990 -0.1228
 7902TIP3    H145121   5.045   5.497   6.071 -0.4543  0.0582 -1.8310
 7902TIP3    H245122   5.133   5.374   6.082 -0.4727  0.2991  2.3043
 7903TIP3   OH245123   4.876   2.874   6.458 -0.0607 -0.2081  0.3825
 7903TIP3    H145124   4.931   2.869   6.380  0.4140 -1.8979  0.7817
 7903TIP3    H245125   4.850   2.783   6.475 -2.9275  0.5108  0.2813
 7904TIP3   OH245126   0.855   0.823  15.452  0.3973  0.7878 -0.0293
 7904TIP3    H145127   0.788   0.858  15.393  0.1632 -0.6261 -0.6578
 7904TIP3    H245128   0.811   0.818  15.537  0.4551  2.0081  0.0905
 7905TIP3   OH245129   6.683   3.927   1.585  0.7497  0.1085 -0.0716
 7905TIP3    H145130   6.610   3.891   1.535  1.9720 -0.9412 -1.1926
 7905TIP3    H245131   6.671   3.893   1.674  0.7271 -1.3714 -0.6163
 7906TIP3   OH245132   4.734   3.090  16.045  0.2798 -0.3775  0.1239
 7906TIP3    H145133   4.764   3.038  16.120 -0.3361 -0.4520  0.3246
 7906TIP3    H245134   4.793   3.165  16.043  1.4324 -1.2793 -0.4164
 7907TIP3   OH245135   2.537   1.436  15.334 -0.0799  0.0891  0.0769
 7907TIP3    H145136   2.614   1.389  15.303  0.5220  0.4797  0.9475
 7907TIP3    H245137   2.471   1.369  15.348  0.3055 -0.3250 -0.0807
 7908TIP3   OH245138   4.751   2.933   5.622  0.1144  0.3209 -0.1509
 7908TIP3    H145139   4.733   3.012   5.674 -2.1797 -0.1476 -0.1424
 7908TIP3    H245140   4.824   2.958   5.566  0.9067  1.7118  1.4097
 7909TIP3   OH245141   0.065   3.166   6.298  0.3196  0.1395  0.0202
 7909TIP3    H145142   0.047   3.208   6.214 -1.6520 -0.9384 -0.1465
 7909TIP3    H245143   0.035   3.229   6.363  4.0269  2.0560  0.1639
 7910TIP3   OH245144   6.143   5.122   6.097  0.5514  1.1496 -0.0552
 7910TIP3    H145145   6.073   5.061   6.121 -0.4115  1.7253 -1.3021
 7910TIP3    H245146   6.221   5.088   6.142  0.1439 -1.2175 -1.0055
 7911TIP3   OH245147   4.977   1.132   6.035 -0.0274 -0.4180 -0.3468
 7911TIP3    H145148   4.957   1.136   5.942  1.1981  0.2415 -0.6006
 7911TIP3    H245149   4.893   1.112   6.077 -0.3994 -1.7036 -1.6469
 7912TIP3   OH245150   5.901   4.357  14.280 -0.1648 -0.3384  0.1346
 7912TIP3    H145151   5.893   4.372  14.186 -1.5829 -1.3034  0.0769
 7912TIP3    H245152   5.932   4.267  14.288  0.3412 -0.1280  0.5861
 7913TIP3   OH245153   4.117   4.988   2.057 -0.1464 -0.1055  0.6081
 7913TIP3    H145154   4.032   5.032   2.060 -1.2776 -2.2406  2.0658
 7913TIP3    H245155   4.164   5.023   2.133 -0.7665 -0.8435  1.3461
 7914TIP3   OH245156   3.233   6.155  15.921 -0.5406 -0.3224 -0.1794
 7914TIP3    H145157   3.207   6.084  15.980  0.0871  0.3271  0.9247
 7914TIP3    H245158   3.199   6.234  15.963 -1.3449  0.0385 -1.4598
 7915TIP3   OH245159   1.555   1.047   2.947 -0.0708  0.6355 -0.1489
 7915TIP3    H145160   1.499   1.076   3.019  0.5434  2.1488 -0.2434
 7915TIP3    H245161   1.597   1.127   2.915  1.4239 -0.3118 -0.6920
 7916TIP3   OH245162   5.303   2.486   4.431  0.3349  0.8865  0.1949
 7916TIP3    H145163   5.340   2.399   4.446  0.1077  0.6157 -0.7260
 7916TIP3    H245164   5.338   2.540   4.502  1.3638  0.3132  0.1416
 7917TIP3   OH245165   4.631   4.807   2.717  0.0472  0.4987  0.4921
 7917TIP3    H145166   4.587   4.729   2.749  3.1394 -0.7548  2.1417
 7917TIP3    H245167   4.638   4.864   2.793 -0.5722  1.6261 -0.2608
 7918TIP3   OH245168   2.433   2.094   2.321  0.7222  0.5029  0.3827
 7918TIP3    H145169   2.379   2.167   2.289 -1.8468 -0.9755  1.0772
 7918TIP3    H245170   2.410   2.087   2.414 -1.3597 -2.9143 -0.2434
 7919TIP3   OH245171   4.100   6.675  15.575  0.3688 -0.5419  0.2318
 7919TIP3    H145172   4.170   6.730  15.542  0.5341 -0.2227  1.0962
 7919TIP3    H245173   4.144   6.608  15.628  0.3516 -2.6364 -2.1961
 7920TIP3   OH245174   2.791   5.738  10.719 -0.0873  0.5994 -0.5908
 7920TIP3    H145175   2.730   5.707  10.651 -2.3335 -0.7764  1.8675
 7920TIP3    H245176   2.834   5.659  10.750  1.0558  1.2441 -0.5055
 7921TIP3   OH245177   5.052   3.731   5.399 -0.0938 -0.3118  0.5529
 7921TIP3    H145178   5.050   3.827   5.401 -1.5848 -0.2688 -0.8388
 7921TIP3    H245179   5.032   3.705   5.489  1.8303  0.6449  1.3065
 7922TIP3   OH245180   4.548   3.289  14.021 -0.5864  0.3792 -0.5810
 7922TIP3    H145181   4.533   3.261  13.931 -0.1457 -0.5990 -0.3572
 7922TIP3    H245182   4.478   3.352  14.038  0.8185  2.6174 -2.4644
 7923TIP3   OH245183   1.672   1.058   4.102  0.3147  0.1868  0.5186
 7923TIP3    H145184   1.616   1.010   4.163  0.8345 -1.8210 -0.4919
 7923TIP3    H245185   1.613   1.119   4.059 -1.1764 -1.8073 -0.4480
 7924TIP3   OH245186   6.339   0.320  15.256  0.7183 -0.4136 -0.0385
 7924TIP3    H145187   6.279   0.246  15.267  0.8591 -0.6868 -0.9697
 7924TIP3    H245188   6.362   0.346  15.345  0.9177 -1.6913  0.3088
 7925TIP3   OH245189   1.126   0.154  16.700 -0.2348 -0.3196  0.1838
 7925TIP3    H145190   1.067   0.194  16.764  0.4625  1.5600 -0.2782
 7925TIP3    H245191   1.077   0.079  16.666 -1.2199 -0.4483  1.7843
 7926TIP3   OH245192   0.761   2.034   3.807 -0.3141  0.0582 -0.5458
 7926TIP3    H145193   0.720   2.051   3.723  0.8753  1.2239 -0.9195
 7926TIP3    H245194   0.832   2.098   3.813 -0.5087  0.1583  1.4426
 7927TIP3   OH245195   0.751   0.509   0.431 -0.2113  0.3988 -0.1452
 7927TIP3    H145196   0.793   0.575   0.376 -2.7805  1.4383 -1.0050
 7927TIP3    H245197   0.784   0.425   0.398  2.4697  1.1340  0.4230
 7928TIP3   OH245198   1.118   0.846   0.088 -0.4653  0.0021  0.1410
 7928TIP3    H145199   1.196   0.874   0.040  1.1054 -1.0629  1.8934
 7928TIP3    H245200   1.103   0.915   0.153 -0.2398 -0.3539  0.5772
 7929TIP3   OH245201   2.996   4.728   2.949  0.2361  0.0288  1.1795
 7929TIP3    H145202   2.959   4.766   3.029 -1.0972 -3.7960  2.5885
 7929TIP3    H245203   2.947   4.769   2.878 -1.4103  0.6187  2.5798
 7930TIP3   OH245204   0.100   2.416   0.878  0.1118 -0.3987 -0.1758
 7930TIP3    H145205   0.056   2.498   0.855  0.0384 -0.1321  0.8817
 7930TIP3    H245206   0.120   2.424   0.971 -1.0650 -2.1168  0.2780
 7931TIP3   OH245207   0.727   5.829   1.114  0.2745  0.2199 -0.1305
 7931TIP3    H145208   0.662   5.759   1.119  0.6458 -0.1085  0.0815
 7931TIP3    H245209   0.702   5.879   1.036  0.1692 -0.3051 -0.4334
 7932TIP3   OH245210   6.346   1.483  16.511 -0.1652 -0.2245 -0.0404
 7932TIP3    H145211   6.255   1.480  16.539 -0.0835 -1.3489  0.1757
 7932TIP3    H245212   6.379   1.395  16.529  1.3781  0.5680  1.2298
 7933TIP3   OH245213   2.500   6.237   1.891  0.1694  0.2213 -0.1522
 7933TIP3    H145214   2.501   6.311   1.830 -0.4728  1.8636  1.7396
 7933TIP3    H245215   2.580   6.248   1.943  0.6772 -1.1306 -0.6000
 7934TIP3   OH245216   3.111   4.867   5.406  0.0162  0.5830 -0.0790
 7934TIP3    H145217   3.089   4.924   5.480  0.2776 -0.7713  1.0785
 7934TIP3    H245218   3.042   4.800   5.406  1.0109 -0.4679  0.0925
 7935TIP3   OH245219   5.846   1.211   2.755 -0.0626 -0.0213 -0.4147
 7935TIP3    H145220   5.893   1.131   2.731 -0.3150 -0.0952 -0.6740
 7935TIP3    H245221   5.771   1.181   2.807 -0.1363  0.0492 -0.4792
 7936TIP3   OH245222   0.003   0.483  14.565 -0.1031  0.4229  0.0801
 7936TIP3    H145223   0.045   0.475  14.651  0.1868  0.1186 -0.0835
 7936TIP3    H245224   0.071   0.454  14.503 -0.0480  1.3702 -0.3129
 7937TIP3   OH245225   2.349   1.650   5.401 -0.0440  0.1330  0.1205
 7937TIP3    H145226   2.417   1.586   5.423 -2.9431 -3.6370 -0.7982
 7937TIP3    H245227   2.291   1.651   5.477 -1.2131 -0.0795 -0.7404
 7938TIP3   OH245228   1.508   6.432   3.960 -0.3185 -0.2207 -0.0672
 7938TIP3    H145229   1.531   6.517   3.998 -0.5324 -0.3523  0.3657
 7938TIP3    H245230   1.489   6.376   4.035 -1.7376 -0.2029 -0.3804
 7939TIP3   OH245231   1.387   1.061  14.656  0.1516 -0.0423  0.5589
 7939TIP3    H145232   1.375   0.978  14.609 -1.5665  1.0060 -0.9976
 7939TIP3    H245233   1.439   1.038  14.732  0.8432 -2.3216 -0.5046
 7940TIP3   OH245234   3.775   2.483   6.231 -0.3567  0.5436 -0.0262
 7940TIP3    H145235   3.755   2.548   6.298 -1.5699 -0.4842  0.6537
 7940TIP3    H245236   3.690   2.461   6.193  0.2516  0.7025 -1.5438
 7941TIP3   OH245237   5.714   1.594   3.013  0.0677  0.3531  0.3727
 7941TIP3    H145238   5.804   1.615   3.038 -0.0930  0.5288  0.8121
 7941TIP3    H245239   5.673   1.563   3.094 -0.0596 -0.4497  0.0125
 7942TIP3   OH245240   0.416   0.098   6.091 -0.2285  0.6845 -0.1627
 7942TIP3    H145241   0.429   0.121   6.183  1.3902  1.4003 -0.5385
 7942TIP3    H245242   0.331   0.136   6.068 -0.3688  1.0102  0.8654
 7943TIP3   OH245243   2.587   5.666  13.579 -0.1768 -0.1745 -0.2560
 7943TIP3    H145244   2.642   5.744  13.580  0.7136 -0.7912  0.2516
 7943TIP3    H245245   2.624   5.610  13.647 -1.8413 -0.3396  0.5831
 7944TIP3   OH245246   6.688   4.882  15.681  0.2766 -0.3353 -0.7790
 7944TIP3    H145247   6.624   4.822  15.719  0.8472  0.1358  1.0034
 7944TIP3    H245248   6.732   4.921  15.756  2.9511 -0.9176 -1.9483
 7945TIP3   OH245249   5.785   1.589  13.229  0.2468  0.3861  0.2739
 7945TIP3    H145250   5.869   1.591  13.184 -0.2367 -0.6161 -0.7493
 7945TIP3    H245251   5.806   1.576  13.321  1.2089  0.0239  0.0104
 7946TIP3   OH245252   0.182   2.871   1.678 -0.2480 -0.5559 -0.5634
 7946TIP3    H145253   0.270   2.878   1.642 -0.3566 -0.9492 -0.9169
 7946TIP3    H245254   0.188   2.910   1.765 -0.2005  1.2672 -1.3486
 7947TIP3   OH245255   5.485   1.684   5.605 -0.2462 -0.9971  0.7042
 7947TIP3    H145256   5.564   1.726   5.569 -0.4715 -1.6550 -0.6482
 7947TIP3    H245257   5.499   1.591   5.589 -1.5137 -1.0782 -0.0217
 7948TIP3   OH245258   3.392   6.424  16.294  0.0498 -0.0197  0.2989
 7948TIP3    H145259   3.385   6.402  16.201 -0.0415 -0.6958  0.4627
 7948TIP3    H245260   3.336   6.501  16.304  1.5085  1.2075 -0.5694
 7949TIP3   OH245261   1.289   2.115  14.474  0.0352 -0.4426  0.9350
 7949TIP3    H145262   1.310   2.082  14.561  1.0516  0.4223  1.0332
 7949TIP3    H245263   1.316   2.207  14.475 -0.3343 -0.3024 -0.1561
 7950TIP3   OH245264   1.087   3.286  16.338  0.1032  0.0045 -0.6126
 7950TIP3    H145265   1.060   3.358  16.396 -1.6399 -1.5754  0.6718
 7950TIP3    H245266   1.026   3.290  16.265 -0.5488 -0.6387 -0.1191
 7951TIP3   OH245267   6.704   1.564   5.052  0.2729 -0.3602  0.7959
 7951TIP3    H145268   6.655   1.580   4.971  1.4595  0.5162  0.2158
 7951TIP3    H245269   6.712   1.469   5.057  0.6585 -0.3962 -0.4081
 7952TIP3   OH245270   0.095   5.908   3.386  0.2078  0.8018 -0.1653
 7952TIP3    H145271   0.005   5.875   3.397  0.1897  1.1808  0.8806
 7952TIP3    H245272   0.147   5.857   3.448  1.2145 -1.1992 -2.4629
 7953TIP3   OH245273   1.661   1.821   4.039  0.1449  0.6220 -0.2215
 7953TIP3    H145274   1.664   1.749   3.977  0.7171 -1.1841  1.7786
 7953TIP3    H245275   1.727   1.883   4.008  0.2472 -0.1130 -1.5121
 7954TIP3   OH245276   2.548   6.262  14.482 -0.1766  0.2737 -0.3065
 7954TIP3    H145277   2.551   6.355  14.504  0.2399  0.2109 -0.0798
 7954TIP3    H245278   2.640   6.239  14.466 -0.3696  0.1073 -1.2543
 7955TIP3   OH245279   4.296   3.201  13.476 -0.5656  0.0969  0.0621
 7955TIP3    H145280   4.345   3.129  13.435 -0.5623  0.8057 -1.2528
 7955TIP3    H245281   4.208   3.194  13.437 -0.3138  1.3254 -0.7705
 7956TIP3   OH245282   0.201   6.083   0.501 -0.6659  0.1371 -0.3297
 7956TIP3    H145283   0.205   6.126   0.415 -2.1710  1.1003  0.0495
 7956TIP3    H245284   0.230   5.994   0.483 -1.9319  0.0099 -2.0807
 7957TIP3   OH245285   2.725   5.415   4.609  0.2838 -0.0281 -0.2613
 7957TIP3    H145286   2.764   5.491   4.566 -1.6836  1.1181 -0.1326
 7957TIP3    H245287   2.707   5.354   4.538  1.0334 -0.0132 -0.4776
 7958TIP3   OH245288   1.589   4.246   2.485 -0.2110 -0.4842  0.3103
 7958TIP3    H145289   1.599   4.279   2.574 -0.4279  0.4575 -0.0001
 7958TIP3    H245290   1.523   4.177   2.492 -1.0300  0.3146  0.7270
 7959TIP3   OH245291   3.962   4.303  15.073 -0.0576 -0.3900  0.3758
 7959TIP3    H145292   3.883   4.330  15.121 -0.3708 -2.5968  1.2077
 7959TIP3    H245293   3.931   4.240  15.009  0.4976  1.8199 -2.2770
 7960TIP3   OH245294   6.366   6.751   1.076 -0.0810  0.5209  0.0524
 7960TIP3    H145295   6.398   6.694   1.146 -0.5883 -0.7315 -0.6878
 7960TIP3    H245296   6.360   6.837   1.116  0.5930  0.0401  1.2592
 7961TIP3   OH245297   0.230   1.788   6.066 -0.0822  0.3591 -0.4708
 7961TIP3    H145298   0.313   1.764   6.106 -0.6506  1.8482  1.7440
 7961TIP3    H245299   0.213   1.717   6.003  1.2957 -1.6660  1.3053
 7962TIP3   OH245300   4.704   0.561  13.278 -0.9338  0.0778 -0.5968
 7962TIP3    H145301   4.723   0.483  13.330  0.2247  0.8349  0.1886
 7962TIP3    H245302   4.724   0.536  13.188 -0.1850 -0.4336 -0.3019
 7963TIP3   OH245303   4.019   3.618  15.610 -1.0134 -0.2759 -0.6381
 7963TIP3    H145304   4.028   3.700  15.562  1.2011  0.8352  1.3955
 7963TIP3    H245305   4.033   3.550  15.545 -0.9057  1.0413 -2.0460
 7964TIP3   OH245306   1.981   4.007   0.128 -0.2227 -0.0943 -0.2295
 7964TIP3    H145307   1.905   3.961   0.092 -0.4691 -1.4264  1.8592
 7964TIP3    H245308   1.984   3.981   0.220  0.8961  2.4600  0.5449
 7965TIP3   OH245309   4.395   1.799   1.565  0.1687  0.0952  0.0113
 7965TIP3    H145310   4.313   1.816   1.517 -0.2153 -0.1755  0.5572
 7965TIP3    H245311   4.417   1.883   1.605  0.6006  0.3727 -0.7983
 7966TIP3   OH245312   6.238   4.535  15.702 -0.1531  0.1887  0.3232
 7966TIP3    H145313   6.165   4.491  15.658  2.1136 -1.3833 -2.1859
 7966TIP3    H245314   6.251   4.485  15.782 -1.6651  0.4019  0.7389
 7967TIP3   OH245315   5.526   5.683   1.913  0.5872 -0.4681 -0.0245
 7967TIP3    H145316   5.559   5.602   1.950  0.0685 -2.0508 -2.7959
 7967TIP3    H245317   5.475   5.656   1.837  1.1412  2.5095 -1.5937
 7968TIP3   OH245318   2.663   4.364   4.326  0.2214  0.1586 -0.4271
 7968TIP3    H145319   2.657   4.314   4.407 -0.4911 -0.9608 -1.1397
 7968TIP3    H245320   2.757   4.368   4.307  0.2605 -1.8197 -0.8669
 7969TIP3   OH245321   3.216   6.688  15.478  0.8846 -0.2176  0.0718
 7969TIP3    H145322   3.303   6.661  15.506  0.9532  0.6266  0.7225
 7969TIP3    H245323   3.201   6.770  15.525  1.6782  2.2017 -3.5041
 7970TIP3   OH245324   6.711   5.210   4.731 -0.5392  0.0198 -0.1119
 7970TIP3    H145325   6.681   5.164   4.810 -1.0824  0.9029  0.2124
 7970TIP3    H245326   6.655   5.176   4.661  0.2605 -1.1187 -0.2216
 7971TIP3   OH245327   3.166   0.088   3.243  0.5018 -0.7000  0.1609
 7971TIP3    H145328   3.147   0.133   3.160  1.4893 -0.8874 -0.1800
 7971TIP3    H245329   3.080   0.060   3.275 -0.1857  1.6304  0.5178
 7972TIP3   OH245330   6.305   6.220   3.459 -0.0360 -0.4330 -0.2258
 7972TIP3    H145331   6.347   6.152   3.513 -0.3308 -2.6396 -2.5962
 7972TIP3    H245332   6.222   6.237   3.504 -0.0745 -1.8636  0.3116
 7973TIP3   OH245333   0.008   4.931  14.157 -0.3719 -0.3501 -0.2038
 7973TIP3    H145334   0.080   4.875  14.129  1.6320  0.6401  2.5801
 7973TIP3    H245335   0.036   5.020  14.134 -0.7678  0.0308  0.7359
 7974TIP3   OH245336   3.618   2.210  11.851 -0.5258 -0.0013 -0.5740
 7974TIP3    H145337   3.592   2.278  11.913 -3.8887  0.7124 -2.5491
 7974TIP3    H245338   3.540   2.193  11.798  1.9318 -0.8150 -4.3938
 7975TIP3   OH245339   6.386   0.826   5.571  0.2268 -0.0994  0.0530
 7975TIP3    H145340   6.473   0.860   5.592  1.3653 -3.2161  1.1092
 7975TIP3    H245341   6.372   0.848   5.479  0.8974  2.7371  0.5408
 7976TIP3   OH245342   5.778   2.494  11.340 -0.0662 -0.0947  0.1274
 7976TIP3    H145343   5.861   2.484  11.386 -0.0386 -1.4413 -0.1886
 7976TIP3    H245344   5.774   2.587  11.317  1.2445  0.0198  0.3318
 7977TIP3   OH245345   1.785   5.507   0.271 -0.4209  0.4649  0.7129
 7977TIP3    H145346   1.782   5.497   0.366 -0.1950  0.3950  0.7133
 7977TIP3    H245347   1.872   5.544   0.254 -0.8863  1.5598  0.6341
 7978TIP3   OH245348   2.037   1.965  13.370  0.7340 -0.3083  0.3969
 7978TIP3    H145349   1.986   2.032  13.417 -0.6264 -0.8198 -0.3088
 7978TIP3    H245350   2.109   1.944  13.430 -1.2067 -1.2989  2.5674
 7979TIP3   OH245351   6.535   3.090   3.178  0.0770 -0.2155  0.3855
 7979TIP3    H145352   6.472   3.027   3.214 -0.9659  2.1088  3.0154
 7979TIP3    H245353   6.595   3.037   3.127 -2.3030 -2.9609  0.1677
 7980TIP3   OH245354   0.231   4.295  13.629 -0.0176  0.5308  0.1048
 7980TIP3    H145355   0.231   4.365  13.564 -0.8353  1.5644  1.1619
 7980TIP3    H245356   0.146   4.302  13.672  0.2402 -0.5463  0.8371
 7981TIP3   OH245357   5.330   1.326  10.370 -0.4044 -0.0048 -1.0239
 7981TIP3    H145358   5.282   1.390  10.318 -1.0086  0.3104 -0.1029
 7981TIP3    H245359   5.262   1.274  10.413  0.0286  0.8438  0.7865
 7982TIP3   OH245360   1.956   6.565  14.528  0.5565  0.4209 -0.1718
 7982TIP3    H145361   1.891   6.506  14.490  0.9129 -0.3883  0.4317
 7982TIP3    H245362   1.943   6.557  14.623  3.0441 -1.6347  0.1224
 7983TIP3   OH245363   6.286   0.646  11.706 -0.0255 -0.2637 -0.1796
 7983TIP3    H145364   6.352   0.680  11.645  1.5620 -0.7040  1.2002
 7983TIP3    H245365   6.293   0.551  11.696  1.5409 -0.4332  1.8740
 7984TIP3   OH245366   1.287   0.011   5.451  0.0647  0.1743 -0.6476
 7984TIP3    H145367   1.291  -0.055   5.520  0.9930  1.5059  0.6376
 7984TIP3    H245368   1.194   0.019   5.430 -0.0856 -1.3855 -0.7249
 7985TIP3   OH245369   2.201   0.335   2.208  0.6724  0.0206 -0.3869
 7985TIP3    H145370   2.263   0.367   2.143 -0.0113 -0.6065 -1.3816
 7985TIP3    H245371   2.126   0.305   2.157  0.8228 -2.1372  0.5277
 7986TIP3   OH245372   1.719   5.552   3.399 -0.1820 -0.4053  0.6251
 7986TIP3    H145373   1.786   5.588   3.457  2.0687 -2.6794 -0.3579
 7986TIP3    H245374   1.660   5.503   3.456  0.6526 -0.6925  1.2500
 7987TIP3   OH245375   0.105   1.151   2.347  0.5493 -0.0044  0.7328
 7987TIP3    H145376   0.144   1.120   2.266  0.0720  1.1557  0.0386
 7987TIP3    H245377   0.019   1.111   2.349  0.9669 -0.9010  1.2248
 7988TIP3   OH245378   0.541   5.632   1.076  0.4880  0.1439 -0.1256
 7988TIP3    H145379   0.604   5.572   1.035  0.1355  0.1776 -0.7394
 7988TIP3    H245380   0.475   5.646   1.008  0.2143  0.7004  0.2509
 7989TIP3   OH245381   0.025   2.129   6.240 -0.2218 -0.2273 -0.0900
 7989TIP3    H145382  -0.063   2.094   6.259 -1.1382  0.2538 -2.8775
 7989TIP3    H245383   0.011   2.222   6.227  0.9680  0.0631  0.6373
 7990TIP3   OH245384   5.133   4.755  12.383  0.1438 -0.6716 -0.1168
 7990TIP3    H145385   5.223   4.724  12.397 -0.1289 -1.3531  0.1727
 7990TIP3    H245386   5.124   4.763  12.288  0.6436 -0.1886 -0.1281
 7991TIP3   OH245387   2.171   3.760  14.133 -0.1806  0.1808 -0.3805
 7991TIP3    H145388   2.125   3.808  14.202 -0.4493 -1.5119  0.6835
 7991TIP3    H245389   2.263   3.771  14.154 -0.2488 -2.3539  1.8590
 7992TIP3   OH245390   1.053   3.051   4.582 -0.5248  0.3180  0.2826
 7992TIP3    H145391   0.983   2.987   4.596 -2.0916  1.6269 -1.1829
 7992TIP3    H245392   1.007   3.133   4.561  1.4401  1.4049  0.0057
 7993TIP3   OH245393   3.753   0.799   0.659  0.8231 -0.4679 -0.8001
 7993TIP3    H145394   3.814   0.821   0.729  1.2049 -0.9348 -0.9711
 7993TIP3    H245395   3.669   0.785   0.702 -0.0913  3.6105 -0.9144
 7994TIP3   OH245396   3.018   4.535  12.061  0.1033 -0.9097 -0.2100
 7994TIP3    H145397   3.074   4.613  12.054  2.1079 -1.9065  2.8295
 7994TIP3    H245398   3.027   4.492  11.975  1.6413  0.5059 -0.8265
 7995TIP3   OH245399   0.926   4.912  14.886 -0.1750 -0.3881  0.7139
 7995TIP3    H145400   0.843   4.904  14.840  0.3429 -1.5614 -0.0499
 7995TIP3    H245401   0.981   4.844  14.849  0.7279 -0.4430  2.0873
 7996TIP3   OH245402   4.377   2.413   2.410  0.6261  0.2065 -0.0747
 7996TIP3    H145403   4.450   2.351   2.419 -0.0913 -0.8401 -1.1285
 7996TIP3    H245404   4.300   2.363   2.436  0.0802  0.8010 -0.5242
 7997TIP3   OH245405   0.900   0.513  14.314  0.4265  0.1430 -0.6464
 7997TIP3    H145406   0.992   0.530  14.332 -0.2748  3.0850  1.0038
 7997TIP3    H245407   0.884   0.554  14.229  1.0872 -2.5911 -2.1710
 7998TIP3   OH245408   0.326   1.874  15.702 -0.2799 -0.2836  0.0288
 7998TIP3    H145409   0.354   1.800  15.648 -1.0475  0.0252 -0.8163
 7998TIP3    H245410   0.287   1.833  15.779 -1.5869 -0.8045 -0.8795
 7999TIP3   OH245411   1.985   0.784  14.100  0.0173  0.2361 -0.3830
 7999TIP3    H145412   1.898   0.754  14.075  0.2477  0.5544 -1.6247
 7999TIP3    H245413   1.996   0.868  14.056  0.0309  1.4002  1.7122
 8000TIP3   OH245414   2.363   5.894   0.938  0.3214 -0.1535 -0.3762
 8000TIP3    H145415   2.286   5.893   0.880  1.1063 -2.5004 -1.5286
 8000TIP3    H245416   2.359   5.809   0.982  1.1998  0.5234  1.0602
 8001TIP3   OH245417   4.614   1.937  13.272  0.5275  0.1438 -0.0737
 8001TIP3    H145418   4.593   1.912  13.362 -0.2558 -0.0650 -0.2999
 8001TIP3    H245419   4.624   1.853  13.226 -1.3509  0.1981 -0.6697
 8002TIP3   OH245420   1.330   2.888   2.669  0.7443  0.1845 -0.1138
 8002TIP3    H145421   1.305   2.796   2.659 -2.9896  1.1070 -1.1191
 8002TIP3    H245422   1.364   2.913   2.583  0.5950  0.0306 -0.2190
 8003TIP3   OH245423   3.473   2.146  12.406 -0.1476 -0.1573  0.3925
 8003TIP3    H145424   3.567   2.138  12.423 -0.1283  1.4845  1.2678
 8003TIP3    H245425   3.432   2.139  12.493 -0.5644  1.9715  0.4402
 8004TIP3   OH245426   3.290   5.158   0.131 -0.6649  0.0198  0.3759
 8004TIP3    H145427   3.348   5.192   0.063 -1.3843 -1.0988 -0.8461
 8004TIP3    H245428   3.212   5.213   0.128 -0.3189  0.5555  0.9591
 8005TIP3   OH245429   2.417   1.378  10.375 -0.0848  0.1121  0.6018
 8005TIP3    H145430   2.387   1.296  10.414 -0.8571 -0.2927 -0.7672
 8005TIP3    H245431   2.479   1.414  10.439  0.4896 -1.6730  1.1015
 8006TIP3   OH245432   0.644   3.390  16.094  0.0536 -0.1248 -0.4326
 8006TIP3    H145433   0.718   3.429  16.139 -0.6324  0.3831  0.2743
 8006TIP3    H245434   0.625   3.309  16.143 -2.1837  1.5704  1.7899
 8007TIP3   OH245435   1.645   3.216   3.758  0.1329 -0.5357  0.3216
 8007TIP3    H145436   1.611   3.289   3.707  2.8643 -0.4063 -1.4779
 8007TIP3    H245437   1.625   3.239   3.849 -0.3435  1.7191 -0.2949
 8008TIP3   OH245438   0.917   0.857  13.688  1.1723 -0.0617  0.0800
 8008TIP3    H145439   0.985   0.791  13.696  0.6117 -0.8175 -1.0265
 8008TIP3    H245440   0.840   0.817  13.728  1.1935  0.4982  0.6834
 8009TIP3   OH245441   2.177   5.234  15.091 -0.0655  0.4858 -0.6427
 8009TIP3    H145442   2.259   5.257  15.048 -0.3613  1.0221 -0.9327
 8009TIP3    H245443   2.131   5.318  15.101 -0.2598  0.2901  0.1754
 8010TIP3   OH245444   6.520   3.597  15.144 -0.3646 -0.1568 -0.0837
 8010TIP3    H145445   6.556   3.615  15.057 -0.6024 -2.6978 -0.7780
 8010TIP3    H245446   6.591   3.554  15.191 -0.7009 -0.0699  0.5117
 8011TIP3   OH245447   4.915   1.499  15.501 -0.3684  0.3126 -0.3291
 8011TIP3    H145448   4.926   1.416  15.547  2.3884  0.2482 -0.9261
 8011TIP3    H245449   4.883   1.560  15.568 -0.7886 -0.8055  0.5209
 8012TIP3   OH245450   6.568   5.650   2.903 -0.3522  0.2305 -0.0652
 8012TIP3    H145451   6.489   5.613   2.942 -0.4523  0.5883  0.0720
 8012TIP3    H245452   6.639   5.594   2.935 -0.4016  0.6745  0.8481
 8013TIP3   OH245453   4.281   1.112   0.398  0.3421  0.3354  0.0246
 8013TIP3    H145454   4.284   1.207   0.412 -0.0048  0.2141  1.0244
 8013TIP3    H245455   4.333   1.076   0.469 -1.7234 -0.3415  1.2842
 8014TIP3   OH245456   2.591   3.547   2.301  0.1126  0.0933 -0.2189
 8014TIP3    H145457   2.556   3.481   2.241 -1.0833 -0.3080  0.8653
 8014TIP3    H245458   2.665   3.504   2.344  0.1280 -0.0959 -0.4326
 8015TIP3   OH245459   0.015   2.447   5.975 -0.2526 -0.5768  0.2775
 8015TIP3    H145460   0.066   2.461   6.054  0.2671 -1.1288  0.0455
 8015TIP3    H245461  -0.043   2.523   5.970  1.6334  0.8984 -0.3045
 8016TIP3   OH245462   5.651   6.563  14.536  0.0061  0.0302  0.9868
 8016TIP3    H145463   5.584   6.502  14.567  0.2812 -1.1003 -0.5276
 8016TIP3    H245464   5.720   6.559  14.603 -0.0139 -1.2861  0.9581
 8017TIP3   OH245465   0.842   0.929   4.488 -0.0106  0.5508 -0.5889
 8017TIP3    H145466   0.929   0.948   4.523 -0.3339 -0.6419  0.9491
 8017TIP3    H245467   0.844   0.834   4.470 -0.8167  0.6143 -1.0813
 8018TIP3   OH245468   2.859   1.724   6.568 -0.2009 -0.3308  0.4677
 8018TIP3    H145469   2.915   1.690   6.499 -0.3884 -0.8130  0.5517
 8018TIP3    H245470   2.916   1.732   6.644  0.4038  1.6659 -0.1198
 8019TIP3   OH245471   2.652   2.244   1.554 -0.3842  0.5600  0.1218
 8019TIP3    H145472   2.724   2.207   1.606 -0.2112  1.3480  0.4644
 8019TIP3    H245473   2.694   2.312   1.501 -0.9012  1.1316  0.4356
 8020TIP3   OH245474   5.923   1.053   5.354 -0.0244  0.6242 -0.2283
 8020TIP3    H145475   5.861   0.990   5.391  1.5421 -1.9733 -1.7656
 8020TIP3    H245476   5.933   1.026   5.263  1.6523  2.3820 -0.6166
 8021TIP3   OH245477   4.185   0.120   4.536 -0.0924 -0.6947  0.2056
 8021TIP3    H145478   4.158   0.098   4.447 -2.5488  0.2053  0.6399
 8021TIP3    H245479   4.251   0.187   4.526 -1.4450  0.5352 -0.9792
 8022TIP3   OH245480   4.013   1.851  14.304 -0.4408  0.1805 -0.2569
 8022TIP3    H145481   4.107   1.847  14.284 -0.6821 -0.8387 -1.2964
 8022TIP3    H245482   3.983   1.932  14.261 -0.0618  0.4534 -0.0130
 8023TIP3   OH245483   4.071   1.181  13.287 -0.0406  0.0565  0.1194
 8023TIP3    H145484   4.008   1.214  13.223 -0.1940 -0.7887 -0.1815
 8023TIP3    H245485   4.030   1.104  13.325  1.2277 -1.1868 -0.8983
 8024TIP3   OH245486   4.038   2.689   3.857 -0.5217  0.2017 -0.2631
 8024TIP3    H145487   3.976   2.709   3.926 -1.0432 -0.4404 -0.5358
 8024TIP3    H245488   4.083   2.772   3.840  0.5591  0.1006  1.7628
 8025TIP3   OH245489   4.225   4.909  12.852  0.6386 -0.1161  0.1145
 8025TIP3    H145490   4.209   4.993  12.809 -0.2176 -0.9030 -1.1774
 8025TIP3    H245491   4.260   4.933  12.938  0.8879  1.5427 -0.4004
 8026TIP3   OH245492   0.008   1.074   5.323 -0.3530  0.2378  0.2235
 8026TIP3    H145493  -0.063   1.118   5.370 -0.3060 -0.8780  1.4140
 8026TIP3    H245494   0.061   1.035   5.393  0.2872 -0.6341 -0.7325
 8027TIP3   OH245495   2.171   3.954  16.048  0.0281  0.0341  0.4221
 8027TIP3    H145496   2.176   3.871  16.096 -0.0277 -0.6405 -0.7137
 8027TIP3    H245497   2.260   3.989  16.052 -0.4938  1.3308  3.2649
 8028TIP3   OH245498   6.328   6.694   4.973 -0.2475  0.2880  0.2509
 8028TIP3    H145499   6.359   6.709   5.062  3.3789  2.3577 -1.1509
 8028TIP3    H245500   6.370   6.612   4.946  0.7268  0.9445 -0.2964
 8029TIP3   OH245501   4.014   6.771  12.893 -0.2956 -0.1074 -0.1377
 8029TIP3    H145502   4.090   6.773  12.951 -2.5934 -0.7112  3.1803
 8029TIP3    H245503   4.001   6.862  12.866  0.4261  0.3084  0.8709
 8030TIP3   OH245504   0.794   5.179   6.168 -0.1926 -0.5996 -0.3539
 8030TIP3    H145505   0.829   5.238   6.235  0.6339 -1.3810 -0.0842
 8030TIP3    H245506   0.713   5.144   6.206 -0.5857  0.1844 -0.4371
 8031TIP3   OH245507   2.761   5.094  16.832 -0.7932 -0.2437 -0.6500
 8031TIP3    H145508   2.726   5.182  16.848 -2.0161 -0.5806 -1.3336
 8031TIP3    H245509   2.804   5.070  16.914 -0.1847  1.0983 -0.5507
 8032TIP3   OH245510   0.102   6.247   4.447 -0.5697 -0.2647  0.4186
 8032TIP3    H145511   0.126   6.331   4.409  0.0622  0.1076  1.5898
 8032TIP3    H245512   0.029   6.267   4.506  0.5865 -0.2309  1.8960
 8033TIP3   OH245513   4.751   5.575   0.517  0.1605 -0.0384  0.5088
 8033TIP3    H145514   4.672   5.531   0.548  0.6082 -0.1416  1.5398
 8033TIP3    H245515   4.741   5.665   0.545  0.4956 -0.0943  0.8136
 8034TIP3   OH245516   1.953   5.338  16.317 -0.0494 -0.0393 -0.3959
 8034TIP3    H145517   1.906   5.262  16.283  0.2089 -0.1291 -0.5508
 8034TIP3    H245518   1.980   5.312  16.405 -2.5961  0.9587  0.7859
 8035TIP3   OH245519   3.692   0.228  14.893 -0.5263  0.6851 -0.2316
 8035TIP3    H145520   3.786   0.238  14.909 -0.3141  0.8359 -1.4594
 8035TIP3    H245521   3.683   0.139  14.858 -0.7483  0.8715 -0.6588
 8036TIP3   OH245522   4.725   1.320  11.743  0.3828 -0.3070 -0.3881
 8036TIP3    H145523   4.721   1.266  11.822  1.4090 -0.1864 -0.2390
 8036TIP3    H245524   4.771   1.399  11.770 -1.4415  0.8391 -0.5182
 8037TIP3   OH245525   0.517   2.931   2.975  0.0962  0.7981 -0.1357
 8037TIP3    H145526   0.504   2.838   2.992 -0.4677  0.8387 -0.3015
 8037TIP3    H245527   0.468   2.947   2.895 -0.8448  1.4862  0.5536
 8038TIP3   OH245528   0.285   6.388  14.040  0.3719  0.7582 -0.1196
 8038TIP3    H145529   0.365   6.337  14.048 -1.1432 -1.7261 -0.0193
 8038TIP3    H245530   0.242   6.380  14.125 -0.6732  0.8147 -0.6234
 8039TIP3   OH245531   1.294   0.511   1.956 -0.3568 -0.1618 -0.5187
 8039TIP3    H145532   1.294   0.607   1.962  1.5646 -0.1902  2.6469
 8039TIP3    H245533   1.343   0.492   1.876  1.5218  1.6105  0.1114
 8040TIP3   OH245534   3.899   0.345  13.499 -0.4966  0.4531  0.0397
 8040TIP3    H145535   3.863   0.271  13.450 -2.4740  0.7154  1.0222
 8040TIP3    H245536   3.972   0.376  13.444 -1.3326 -0.5271 -1.7235
 8041TIP3   OH245537   1.170   1.941   4.014 -0.4999 -0.2028 -0.5860
 8041TIP3    H145538   1.192   1.912   3.925  0.4952  1.3997 -0.9190
 8041TIP3    H245539   1.247   1.919   4.066  0.7951  2.6737 -1.0939
 8042TIP3   OH245540   1.318   4.184   5.034 -0.2107  0.3244  0.7378
 8042TIP3    H145541   1.231   4.145   5.022 -0.5438  1.1619  0.3683
 8042TIP3    H245542   1.314   4.227   5.119 -0.0531  0.1000  0.8593
 8043TIP3   OH245543   1.864   4.303   3.615 -0.0965  0.6990  0.0217
 8043TIP3    H145544   1.783   4.264   3.647 -0.0719 -0.7780 -1.5775
 8043TIP3    H245545   1.837   4.387   3.578 -0.8337  0.4126 -0.1105
 8044TIP3   OH245546   5.431   1.755   4.414  0.0508 -0.2191 -0.6256
 8044TIP3    H145547   5.421   1.779   4.322 -2.3211 -1.4828 -0.7983
 8044TIP3    H245548   5.423   1.659   4.414  2.2204 -0.4535  0.7030
 8045TIP3   OH245549   5.919   4.102   2.558 -0.0835  0.0123 -0.0475
 8045TIP3    H145550   5.948   4.078   2.470  1.1371  1.6784 -0.1490
 8045TIP3    H245551   5.978   4.054   2.617 -0.5556 -0.6876 -0.1392
 8046TIP3   OH245552   4.674   2.404   5.241 -0.4471  0.1140 -0.2252
 8046TIP3    H145553   4.744   2.387   5.178 -0.1967  1.6717 -0.4166
 8046TIP3    H245554   4.691   2.343   5.313  1.3485  0.7062 -0.0919
 8047TIP3   OH245555   6.643   0.900   5.570 -0.1783 -0.1941  0.3767
 8047TIP3    H145556   6.652   0.980   5.518 -1.1111 -0.0397  0.4348
 8047TIP3    H245557   6.692   0.918   5.650  0.3351 -0.0145  0.0339
 8048TIP3   OH245558   6.361   6.784  10.840  0.1253  0.3752  0.7590
 8048TIP3    H145559   6.336   6.830  10.920  0.0577 -0.1606  1.0566
 8048TIP3    H245560   6.430   6.723  10.868 -0.3007 -0.2236  0.5300
 8049TIP3   OH245561   2.376   2.824   2.885  0.2191  0.2022  0.0203
 8049TIP3    H145562   2.438   2.793   2.952 -0.2128 -1.2039 -0.1988
 8049TIP3    H245563   2.291   2.824   2.929  0.2067  1.1004  0.0100
 8050TIP3   OH245564   6.249   4.219  11.023  0.1766  0.3774 -0.9740
 8050TIP3    H145565   6.174   4.178  11.064 -0.5043  1.4937 -1.0641
 8050TIP3    H245566   6.311   4.234  11.095 -0.3498  0.8839 -0.6185
 8051TIP3   OH245567   4.359   5.197  16.547  0.8554  0.0783  0.2664
 8051TIP3    H145568   4.347   5.283  16.589 -0.9308 -1.1590  2.5227
 8051TIP3    H245569   4.366   5.136  16.620  0.4073 -1.8893 -1.2749
 8052TIP3   OH245570   5.210   0.699   1.760  0.1257  0.1669  0.2506
 8052TIP3    H145571   5.188   0.685   1.853  0.2722  1.5932  0.5124
 8052TIP3    H245572   5.270   0.773   1.760  1.3210 -0.7605 -0.8796
 8053TIP3   OH245573   2.102   4.137   5.653 -0.3113 -0.3034 -0.0535
 8053TIP3    H145574   2.041   4.075   5.693 -0.0381 -1.3494 -1.1802
 8053TIP3    H245575   2.091   4.218   5.703 -0.8235 -1.1960  1.3300
 8054TIP3   OH245576   5.084   3.107  17.023  0.1240  0.8291  0.5669
 8054TIP3    H145577   4.997   3.076  17.047 -0.4544  1.8581 -0.1189
 8054TIP3    H245578   5.144   3.052  17.073 -0.8904 -0.4589  0.4115
 8055TIP3   OH245579   5.118   1.903  16.001 -0.2678 -0.2401 -0.6219
 8055TIP3    H145580   5.188   1.942  15.948  0.1679  2.4782  1.7190
 8055TIP3    H245581   5.042   1.959  15.986 -0.4298 -0.0562  0.7822
 8056TIP3   OH245582   5.178   2.513   1.875  0.0773 -0.1895  0.0467
 8056TIP3    H145583   5.238   2.540   1.805  0.9286 -0.8963  0.4908
 8056TIP3    H245584   5.093   2.548   1.848  0.6460  0.6743 -0.6813
 8057TIP3   OH245585   4.123   0.559  14.036  0.6841 -0.5051 -0.1560
 8057TIP3    H145586   4.212   0.579  14.065 -0.2331  1.1361  1.7650
 8057TIP3    H245587   4.129   0.470  14.001  3.5082  0.3490 -2.2616
 8058TIP3   OH245588   1.173   5.349  14.445  0.1310  0.0845  0.0518
 8058TIP3    H145589   1.170   5.289  14.370 -0.0383  0.1357  0.0177
 8058TIP3    H245590   1.260   5.335  14.484 -0.5382 -1.4447  1.0813
 8059TIP3   OH245591   0.938   4.070  14.113  0.0280  0.4313  0.1015
 8059TIP3    H145592   0.964   3.982  14.084  0.5906  1.4158 -2.7466
 8059TIP3    H245593   1.021   4.116  14.127 -0.1739  1.3188 -1.3696
 8060TIP3   OH245594   3.533   3.264  16.369  0.1067  0.7560  0.3781
 8060TIP3    H145595   3.580   3.182  16.385 -1.6340 -0.4038 -0.1625
 8060TIP3    H245596   3.444   3.237  16.347 -0.2677  2.7431 -0.8577
 8061TIP3   OH245597   0.790   5.234   0.079 -0.3559 -0.4941  0.2322
 8061TIP3    H145598   0.717   5.177   0.056  1.7105 -3.2663  0.0887
 8061TIP3    H245599   0.855   5.220   0.010  1.0897  0.3753  1.3519
 8062TIP3   OH245600   1.089   2.665  10.535 -0.6735  0.1758 -0.3577
 8062TIP3    H145601   1.140   2.746  10.539 -1.0651  0.3656  2.0703
 8062TIP3    H245602   1.152   2.599  10.505  0.9398  0.5330  1.9799
 8063TIP3   OH245603   3.410   3.539   3.899 -0.2104 -1.3678 -0.2876
 8063TIP3    H145604   3.412   3.525   3.804 -0.6759 -0.5157 -0.4257
 8063TIP3    H245605   3.337   3.486   3.930  0.5632 -2.4597 -0.2527
 8064TIP3   OH245606   5.071   2.719   0.653  0.1685  0.5252  0.3596
 8064TIP3    H145607   5.007   2.668   0.703 -1.2818  1.5337 -0.4067
 8064TIP3    H245608   5.063   2.686   0.564  1.6111 -0.1570  0.4395
 8065TIP3   OH245609   3.490   1.400   5.237 -0.3051 -0.1160 -0.0252
 8065TIP3    H145610   3.398   1.390   5.215 -0.2275 -1.7670  0.3134
 8065TIP3    H245611   3.492   1.474   5.298 -1.4310 -0.2664  0.2061
 8066TIP3   OH245612   1.363   6.080   0.212 -0.4952 -0.7554  0.3546
 8066TIP3    H145613   1.314   6.116   0.138 -1.0765 -0.9194  0.6491
 8066TIP3    H245614   1.396   5.996   0.180 -1.7841 -1.4033  0.6536
 8067TIP3   OH245615   3.875   4.291  15.458 -0.3893 -0.7628 -0.3837
 8067TIP3    H145616   3.873   4.271  15.551  0.9004 -0.1702 -0.2026
 8067TIP3    H245617   3.850   4.209  15.415  0.8310 -1.6071  0.4515
 8068TIP3   OH245618   0.099   4.300   2.694 -0.3914  0.2671 -0.2070
 8068TIP3    H145619   0.153   4.377   2.676 -1.0339  0.7836  0.0278
 8068TIP3    H245620   0.067   4.313   2.783 -1.7756  0.5166 -0.7086
 8069TIP3   OH245621   2.700   4.637  11.455 -0.2287 -0.3188  0.4133
 8069TIP3    H145622   2.749   4.707  11.497  0.2030 -1.0717  1.1957
 8069TIP3    H245623   2.717   4.648  11.362 -1.2818  1.4477  0.3808
 8070TIP3   OH245624   1.998   5.269   5.201  0.2056  0.1876  0.0008
 8070TIP3    H145625   1.975   5.293   5.291 -1.8235 -0.4820 -0.2950
 8070TIP3    H245626   1.985   5.174   5.197 -1.7319  0.4515 -1.4966
 8071TIP3   OH245627   5.141   3.142   5.631  0.0335  0.1229  0.5788
 8071TIP3    H145628   5.080   3.195   5.579  0.5487 -1.2356 -1.5347
 8071TIP3    H245629   5.222   3.194   5.634  0.4721 -0.3784 -1.3049
 8072TIP3   OH245630   2.541   3.901   6.386  0.6154  0.5728 -0.4119
 8072TIP3    H145631   2.622   3.876   6.341  0.9908  3.6894 -1.6700
 8072TIP3    H245632   2.570   3.954   6.460 -0.2564  0.6484 -0.1146
 8073TIP3   OH245633   3.949   2.091  14.182 -0.1735 -0.0917 -0.4023
 8073TIP3    H145634   3.870   2.143  14.192 -0.3627 -0.0295 -1.9805
 8073TIP3    H245635   3.978   2.106  14.092 -0.0945 -2.4757 -0.8511
 8074TIP3   OH245636   2.944   1.041   1.238 -0.1419 -0.3015 -0.0646
 8074TIP3    H145637   2.916   1.013   1.325 -1.9659  1.3164 -0.0687
 8074TIP3    H245638   3.039   1.034   1.240 -0.1860 -0.9819  1.8111
 8075TIP3   OH245639   1.015   5.842   5.123  0.7891 -0.2330  0.6192
 8075TIP3    H145640   1.088   5.800   5.168  0.0097 -1.7234  0.5710
 8075TIP3    H245641   0.994   5.918   5.177  1.4502 -0.5999  1.4118
 8076TIP3   OH245642   1.139   6.253  14.954 -0.0340  0.8293  0.0851
 8076TIP3    H145643   1.121   6.336  14.910 -2.5089  0.9362  1.1517
 8076TIP3    H245644   1.054   6.223  14.985  0.8684 -1.8172  0.3062
 8077TIP3   OH245645   6.154   2.223   0.147 -0.2120  0.4301  0.3175
 8077TIP3    H145646   6.184   2.200   0.059  0.6963 -0.4981  0.8484
 8077TIP3    H245647   6.111   2.145   0.179 -0.6751  0.8171  0.6547
 8078TIP3   OH245648   5.645   5.895  10.941 -0.0382 -0.0421  0.3049
 8078TIP3    H145649   5.735   5.887  10.909 -0.1451  0.5847 -0.1722
 8078TIP3    H245650   5.637   5.826  11.007  0.5189 -0.6718 -0.2659
 8079TIP3   OH245651   3.077   0.992   3.753  0.1538  0.1736  0.3666
 8079TIP3    H145652   3.121   0.924   3.702 -1.4634 -1.6172  1.2554
 8079TIP3    H245653   3.134   1.069   3.744  2.4917 -1.4850 -0.0001
 8080TIP3   OH245654   4.742   4.606   3.268  0.2780 -0.0226  0.1593
 8080TIP3    H145655   4.771   4.692   3.300  2.0838  0.3720 -2.2544
 8080TIP3    H245656   4.758   4.547   3.341 -0.7452  1.5891  1.7860
 8081TIP3   OH245657   0.595   2.626   3.649  0.5147 -0.1788 -0.2497
 8081TIP3    H145658   0.659   2.560   3.622 -0.8149 -1.0927 -1.3161
 8081TIP3    H245659   0.514   2.577   3.663 -0.5544  1.2055 -1.1842
 8082TIP3   OH245660   0.798   6.482  11.386 -0.2546  0.3961 -0.0519
 8082TIP3    H145661   0.846   6.443  11.312 -2.5514 -2.6371 -0.1556
 8082TIP3    H245662   0.773   6.569  11.355 -0.9233 -0.6644 -2.8413
 8083TIP3   OH245663   4.787   5.816   3.630 -0.0310  0.1084  0.2431
 8083TIP3    H145664   4.725   5.787   3.563  0.1041  0.3109  0.0322
 8083TIP3    H245665   4.738   5.809   3.712 -0.7093  1.3659 -0.0394
 8084TIP3   OH245666   6.714   4.535  14.813  0.1069  0.6400 -0.0821
 8084TIP3    H145667   6.629   4.580  14.821  0.0359  0.6804 -0.9243
 8084TIP3    H245668   6.696   4.446  14.842 -0.3634  0.5056 -0.7576
 8085TIP3   OH245669   5.052   0.718  11.147  0.1428 -0.4637 -0.3109
 8085TIP3    H145670   5.035   0.676  11.231  0.2138 -2.1668 -1.1074
 8085TIP3    H245671   5.018   0.657  11.082 -1.7323  1.6958 -1.5188
 8086TIP3   OH245672   5.599   3.392  13.176 -0.7215 -0.3039  0.0092
 8086TIP3    H145673   5.556   3.345  13.248  0.5289 -0.0066  0.9716
 8086TIP3    H245674   5.606   3.482  13.206  0.8435 -0.4036  0.0076
 8087TIP3   OH245675   5.924   5.708  12.062  0.3369  0.1405 -0.2001
 8087TIP3    H145676   5.882   5.660  11.991 -2.0983  1.1476  0.4790
 8087TIP3    H245677   5.934   5.797  12.028  0.4759  0.2814  0.2032
 8088TIP3   OH245678   3.711   1.981  11.012 -0.0239 -0.4676 -0.5957
 8088TIP3    H145679   3.796   1.949  10.981  0.8078  0.1200  0.9981
 8088TIP3    H245680   3.667   2.011  10.932  1.4067 -0.4458 -1.4096
 8089TIP3   OH245681   1.331   0.857   2.844  0.3244  0.5374  0.0366
 8089TIP3    H145682   1.304   0.926   2.906 -2.1309 -1.0450  0.8654
 8089TIP3    H245683   1.262   0.856   2.778  0.8606 -0.4460 -0.5248
 8090TIP3   OH245684   2.663   6.410   2.945 -0.6034 -0.0819 -0.0621
 8090TIP3    H145685   2.634   6.477   3.007  0.9857  1.4470 -0.9014
 8090TIP3    H245686   2.597   6.341   2.953 -0.6325  0.1662  3.0725
 8091TIP3   OH245687   0.553   3.893   0.398 -0.4102  0.2242  0.2176
 8091TIP3    H145688   0.516   3.823   0.344 -2.5813  1.4780 -0.0495
 8091TIP3    H245689   0.530   3.868   0.488 -1.9695  0.9322  0.0626
 8092TIP3   OH245690   3.601   0.707   4.426  0.3531  0.0805  0.7231
 8092TIP3    H145691   3.507   0.691   4.415  0.3908 -0.6923  1.4683
 8092TIP3    H245692   3.638   0.622   4.448  1.3094  0.2948  0.0016
 8093TIP3   OH245693   4.392   1.829  16.520 -0.2115 -0.0311 -0.1144
 8093TIP3    H145694   4.362   1.919  16.534  0.6396  0.1147  0.8796
 8093TIP3    H245695   4.478   1.825  16.563  0.7142 -0.7424 -1.9506
 8094TIP3   OH245696   0.458   0.445   3.507 -0.5854  0.1389  0.0969
 8094TIP3    H145697   0.478   0.386   3.581  0.4592 -1.2327 -1.2181
 8094TIP3    H245698   0.362   0.442   3.500 -0.7890  0.9100  1.8387
 8095TIP3   OH245699   2.189   2.951  12.078 -0.2554 -0.4424  0.7650
 8095TIP3    H145700   2.106   2.926  12.036 -0.2799 -0.1516  0.6346
 8095TIP3    H245701   2.229   3.013  12.017 -0.1256 -0.2833  1.0080
 8096TIP3   OH245702   5.344   2.120   3.455 -0.4835  0.1105 -0.2743
 8096TIP3    H145703   5.426   2.079   3.481 -0.9922 -1.3977 -0.9475
 8096TIP3    H245704   5.277   2.055   3.475 -1.4153  0.9144 -0.6820
 8097TIP3   OH245705   5.168   0.912  10.563  0.7991 -0.6288 -0.5163
 8097TIP3    H145706   5.118   0.851  10.617 -0.7231  0.2217 -0.9171
 8097TIP3    H245707   5.259   0.890  10.581  0.3066 -1.9814  0.5229
 8098TIP3   OH245708   0.555   6.666   4.896 -0.2743 -0.0579  0.1261
 8098TIP3    H145709   0.508   6.611   4.833 -1.2903  0.5890  0.2952
 8098TIP3    H245710   0.566   6.610   4.973  0.8452 -0.8059 -0.5546
 8099TIP3   OH245711   1.111   5.775  12.597 -0.3705  0.0371  0.2426
 8099TIP3    H145712   1.182   5.730  12.552 -0.2078 -0.9025  1.3947
 8099TIP3    H245713   1.150   5.855  12.631  0.2740 -0.6502  1.1922
 8100TIP3   OH245714   3.532   2.418   0.115  0.2328 -0.0967  0.0700
 8100TIP3    H145715   3.487   2.356   0.057 -1.4339  0.2439  0.9296
 8100TIP3    H245716   3.567   2.484   0.055 -3.6015  1.6318 -0.5805
 8101TIP3   OH245717   2.089   5.393  14.200 -0.0548 -0.3317  0.3993
 8101TIP3    H145718   2.164   5.358  14.151  0.0835 -0.2983  0.5862
 8101TIP3    H245719   2.042   5.447  14.136  0.7398  0.6242  0.5885
 8102TIP3   OH245720   6.025   2.476  13.743 -0.0940  0.9475 -0.8153
 8102TIP3    H145721   5.984   2.416  13.805 -0.5199  1.1040 -0.9434
 8102TIP3    H245722   6.116   2.484  13.774  1.3710 -3.2023 -3.3119
 8103TIP3   OH245723   4.855   2.157   5.188 -0.1157  0.1510 -0.0661
 8103TIP3    H145724   4.938   2.112   5.172 -0.0049  0.4367 -0.2916
 8103TIP3    H245725   4.863   2.192   5.277  0.2740  0.7594 -0.3346
 8104TIP3   OH245726   0.004   1.449  14.133 -0.0522 -0.3242  0.2267
 8104TIP3    H145727  -0.079   1.440  14.087 -0.0012  0.1638  0.0345
 8104TIP3    H245728  -0.019   1.488  14.217  0.0158  0.0762  0.0596
 8105TIP3   OH245729   2.855   5.348  14.934  0.4320  0.1357 -0.0061
 8105TIP3    H145730   2.902   5.402  14.998 -2.0258  2.0823  0.2802
 8105TIP3    H245731   2.859   5.399  14.853  0.5368 -0.6511 -0.4992
 8106TIP3   OH245732   1.547   1.327   4.802  0.3914 -0.1929 -0.3847
 8106TIP3    H145733   1.520   1.237   4.820  0.9573 -0.2771  0.0655
 8106TIP3    H245734   1.481   1.381   4.845  1.4852 -0.3899  1.6145
 8107TIP3   OH245735   3.278   3.796  12.412 -0.5110 -0.3089  0.5413
 8107TIP3    H145736   3.243   3.814  12.500 -0.3276  2.0228  0.2172
 8107TIP3    H245737   3.284   3.701  12.408 -0.1023 -0.4992  3.2341
 8108TIP3   OH245738   5.652   3.580   4.431  0.2097  0.0173  0.0746
 8108TIP3    H145739   5.640   3.531   4.512 -0.5119  0.6216  0.3399
 8108TIP3    H245740   5.677   3.514   4.367  3.8916 -0.1442  1.4287
 8109TIP3   OH245741   0.066   0.456   5.223  0.1439 -0.2847  0.0908
 8109TIP3    H145742   0.130   0.396   5.261 -1.1359 -1.1614  0.9761
 8109TIP3    H245743   0.019   0.492   5.298 -1.6910 -1.1785 -0.5627
 8110TIP3   OH245744   0.304   6.678   0.987 -0.4280 -0.2720 -0.2463
 8110TIP3    H145745   0.331   6.610   0.924  0.1512  0.3450 -0.6865
 8110TIP3    H245746   0.254   6.631   1.053  1.8183 -1.5297  0.6801
 8111TIP3   OH245747   2.891   2.036  13.479  0.2181 -0.2189 -0.3521
 8111TIP3    H145748   2.972   1.988  13.465  0.8726  1.0717 -1.1237
 8111TIP3    H245749   2.835   2.012  13.405  0.7009  0.5102 -0.9643
 8112TIP3   OH245750   0.491   2.596   0.861 -0.0861  0.1391 -0.2642
 8112TIP3    H145751   0.584   2.617   0.870  0.2090 -0.9118 -0.6851
 8112TIP3    H245752   0.487   2.500   0.865 -0.8340 -0.0173 -2.8178
 8113TIP3   OH245753   3.096   4.634  10.454 -0.2214  0.0047  0.2813
 8113TIP3    H145754   3.026   4.688  10.491 -1.8417 -0.8238 -1.4123
 8113TIP3    H245755   3.052   4.580  10.388  1.4401 -2.8803  1.3603
 8114TIP3   OH245756   1.938   6.324  13.822  0.4056  0.5589 -0.4430
 8114TIP3    H145757   1.953   6.321  13.727 -0.7753  0.9212 -0.6614
 8114TIP3    H245758   1.925   6.416  13.842 -0.6517  0.3749 -0.1689
 8115TIP3   OH245759   6.190   1.673   0.674  0.5421  0.0176  0.4833
 8115TIP3    H145760   6.252   1.738   0.709 -0.3441  1.3214 -0.3060
 8115TIP3    H245761   6.205   1.674   0.580 -1.0650  0.8011  0.2075
 8116TIP3   OH245762   5.765   0.643  16.880 -0.2406 -0.0140  0.5293
 8116TIP3    H145763   5.789   0.708  16.946 -0.9522  0.7381  0.0665
 8116TIP3    H245764   5.676   0.666  16.855  0.3850  0.4210 -1.5011
 8117TIP3   OH245765   2.960   1.917  14.560 -0.1322  0.0209 -0.0089
 8117TIP3    H145766   3.002   1.855  14.500 -0.2044  0.5848 -0.6411
 8117TIP3    H245767   2.867   1.909  14.542 -0.1736  0.0301  0.1936
 8118TIP3   OH245768   5.099   2.503  14.686 -0.6720 -0.9345 -0.0065
 8118TIP3    H145769   5.177   2.486  14.633 -1.6327 -3.8329 -0.6785
 8118TIP3    H245770   5.046   2.563  14.633  0.0160 -0.9119 -0.6838
 8119TIP3   OH245771   3.791   2.898  15.360  0.1645  0.1985 -0.4315
 8119TIP3    H145772   3.764   2.920  15.271 -0.8557  0.7158 -0.0172
 8119TIP3    H245773   3.887   2.896  15.357  0.1541  0.7071 -1.4188
 8120TIP3   OH245774   1.771   4.505  10.761 -0.2773  0.0488  0.0457
 8120TIP3    H145775   1.860   4.471  10.769  0.7809  2.6353  0.4156
 8120TIP3    H245776   1.748   4.492  10.669  0.0720 -1.4897  0.1497
 8121TIP3   OH245777   0.119   2.618  12.963 -0.1554  0.2603  0.1164
 8121TIP3    H145778   0.034   2.660  12.952 -0.0026  0.7532  0.7668
 8121TIP3    H245779   0.182   2.681  12.927 -0.1284 -0.4924 -1.2137
 8122TIP3   OH245780   6.666   2.705   1.551 -0.2986  0.0012  0.5380
 8122TIP3    H145781   6.676   2.801   1.548  0.7013 -0.0760  0.8543
 8122TIP3    H245782   6.653   2.685   1.643 -0.1372 -0.1969  0.5181
 8123TIP3   OH245783   0.950   0.002  13.206  0.0251  0.1477  0.0003
 8123TIP3    H145784   0.992  -0.078  13.236 -0.7333 -0.3277 -0.1667
 8123TIP3    H245785   0.858  -0.009  13.231  0.1117  1.4724  1.0195
 8124TIP3   OH245786   3.709   5.662   3.197 -0.9397 -0.0798  0.1167
 8124TIP3    H145787   3.757   5.636   3.118 -0.0731  2.6965 -0.3599
 8124TIP3    H245788   3.726   5.591   3.259 -0.0510 -1.4075 -1.5521
 8125TIP3   OH245789   4.057   6.656   1.283 -0.5106 -0.0377 -0.0546
 8125TIP3    H145790   3.981   6.620   1.328 -0.3479  0.1702  0.3876
 8125TIP3    H245791   4.069   6.743   1.322  0.2886 -0.2867  0.2680
 8126TIP3   OH245792   6.491   5.195   3.875 -0.0289  0.2177  0.1382
 8126TIP3    H145793   6.564   5.150   3.916  1.2995  0.9217 -1.3590
 8126TIP3    H245794   6.487   5.280   3.919  0.7658  0.5924 -0.4842
 8127TIP3   OH245795   3.442   3.246   3.789  0.6051  0.0893 -0.5705
 8127TIP3    H145796   3.354   3.273   3.815  1.2170  3.4079 -1.3872
 8127TIP3    H245797   3.490   3.236   3.872 -0.0327  0.2617 -0.1743
 8128TIP3   OH245798   0.302   5.183  10.297 -0.4196  0.2802 -0.7520
 8128TIP3    H145799   0.265   5.234  10.226 -1.0000 -0.2973 -0.8731
 8128TIP3    H245800   0.289   5.236  10.375 -1.5967  0.0447 -0.7799
 8129TIP3   OH245801   1.569   2.152  10.985  0.0718  0.7119 -0.1281
 8129TIP3    H145802   1.607   2.122  10.902 -0.1149 -1.0767  0.3768
 8129TIP3    H245803   1.581   2.078  11.044 -1.4811  1.2425  0.9165
 8130TIP3   OH245804   4.916   3.723  12.995 -0.5930  0.1233  0.4225
 8130TIP3    H145805   4.965   3.708  13.076 -1.2724  1.5560  1.1288
 8130TIP3    H245806   4.827   3.695  13.015 -0.4389 -0.9896 -0.3571
 8131TIP3   OH245807   4.443   6.265  16.936 -0.1852 -0.1449 -0.0189
 8131TIP3    H145808   4.436   6.285  16.843  1.2692  0.3885 -0.0315
 8131TIP3    H245809   4.355   6.281  16.971 -0.4635  0.7363 -1.0830
 8132TIP3   OH245810   1.801   0.679  11.268 -0.3082  0.6607  0.2949
 8132TIP3    H145811   1.756   0.747  11.318 -0.5893  1.9786 -1.6595
 8132TIP3    H245812   1.768   0.597  11.304 -2.0986  1.5735  0.8376
 8133TIP3   OH245813   5.837   5.338  14.497  0.2346 -0.4874 -0.0150
 8133TIP3    H145814   5.871   5.405  14.438 -2.1585 -0.3690 -1.3753
 8133TIP3    H245815   5.802   5.270  14.439  0.3113 -1.7319  1.3215
 8134TIP3   OH245816   6.052   3.145   1.610  0.2844  0.9825 -0.6659
 8134TIP3    H145817   6.114   3.163   1.681  0.7267  2.5411 -1.4072
 8134TIP3    H245818   6.106   3.138   1.531 -0.2606 -0.1597 -0.9653
 8135TIP3   OH245819   6.423   5.714  12.658  0.5808  0.0562  0.0249
 8135TIP3    H145820   6.430   5.658  12.581 -0.7173  0.3107 -0.3091
 8135TIP3    H245821   6.362   5.668  12.716  0.3282  0.6112  0.2093
 8136TIP3   OH245822   6.443   0.914   0.792  0.4286 -0.3303  0.3617
 8136TIP3    H145823   6.475   0.839   0.742  1.6860  0.0798  0.5265
 8136TIP3    H245824   6.502   0.920   0.867 -0.3112  0.1890  0.9202
 8137TIP3   OH245825   4.988   0.194   3.678  0.4181  0.0581 -0.2940
 8137TIP3    H145826   4.926   0.227   3.743 -1.3249 -1.8779 -0.8813
 8137TIP3    H245827   5.033   0.122   3.721  0.5192 -0.1076 -0.6702
 8138TIP3   OH245828   3.224   4.857  10.796 -0.3033  0.0348 -0.7247
 8138TIP3    H145829   3.148   4.902  10.760 -0.4225 -1.0665 -1.9308
 8138TIP3    H245830   3.251   4.797  10.727 -0.3980 -2.0366  0.9540
 8139TIP3   OH245831   5.031   0.077   2.547  0.4225 -0.1023  0.1720
 8139TIP3    H145832   5.106   0.019   2.538  2.1088  2.2096 -2.3532
 8139TIP3    H245833   5.065   0.164   2.523 -2.5713  1.4337  1.0269
 8140TIP3   OH245834   3.989   2.658  14.280  0.2259  0.0685  0.0860
 8140TIP3    H145835   3.972   2.744  14.240 -0.7275 -0.2142 -0.1369
 8140TIP3    H245836   3.905   2.632  14.317  0.7271 -0.3850  0.9205
 8141TIP3   OH245837   2.523   0.307   6.075 -0.0752 -0.3242 -0.0401
 8141TIP3    H145838   2.510   0.365   6.000  0.7028 -0.6235 -0.4064
 8141TIP3    H245839   2.612   0.274   6.066  0.7058  1.0193  1.9471
 8142TIP3   OH245840   4.429   2.718   4.628  0.3958 -0.1203 -0.6416
 8142TIP3    H145841   4.516   2.743   4.597  0.4043 -0.9285 -1.3170
 8142TIP3    H245842   4.437   2.626   4.653 -0.6605 -0.7843 -2.4808
 8143TIP3   OH245843   4.582   0.243   6.605 -0.2931  0.2769  0.1576
 8143TIP3    H145844   4.659   0.210   6.652 -0.4257 -2.7794 -1.5271
 8143TIP3    H245845   4.573   0.185   6.530 -5.0291 -0.3903  0.9237
 8144TIP3   OH245846   5.160   4.077  16.166 -0.3139  0.2407 -0.7446
 8144TIP3    H145847   5.217   4.018  16.116  3.4573  1.9494  1.0825
 8144TIP3    H245848   5.146   4.031  16.249  0.8857  0.9509 -0.1171
 8145TIP3   OH245849   4.845   2.741   1.560 -0.4359 -0.0117  0.2048
 8145TIP3    H145850   4.827   2.674   1.626 -1.1370 -1.2813 -1.2064
 8145TIP3    H245851   4.887   2.813   1.608  2.2944 -2.2677  1.4934
 8146TIP3   OH245852   6.026   4.870   4.841 -0.0694 -0.5926  0.4991
 8146TIP3    H145853   6.013   4.943   4.781  2.1117 -1.5243 -1.2712
 8146TIP3    H245854   6.089   4.902   4.906  1.7066 -1.1115 -0.8835
 8147TIP3   OH245855   3.767   4.477   5.648 -0.2757 -0.0495  0.0045
 8147TIP3    H145856   3.705   4.408   5.672 -0.0398  0.2234  1.4890
 8147TIP3    H245857   3.721   4.528   5.582 -0.9232 -0.9069 -0.2325
 8148TIP3   OH245858   1.621   1.217   4.560 -0.4598  0.3075 -0.0597
 8148TIP3    H145859   1.710   1.188   4.575  0.5528  2.6095 -1.1191
 8148TIP3    H245860   1.605   1.283   4.627 -1.6406 -0.5636  0.5452
 8149TIP3   OH245861   6.780   5.362   1.636 -0.0081 -0.3698  0.5812
 8149TIP3    H145862   6.798   5.409   1.718  0.1674  0.0540  0.3009
 8149TIP3    H245863   6.705   5.306   1.657  0.3756 -0.6683  1.1896
 8150TIP3   OH245864   2.377   3.963   2.067 -0.4697  0.0514  0.4786
 8150TIP3    H145865   2.318   3.888   2.063 -0.7153  0.2783 -0.4057
 8150TIP3    H245866   2.464   3.925   2.063 -0.5771 -0.2190  0.6412
 8151TIP3   OH245867   4.144   5.148   2.779  0.2654 -0.0697 -0.6126
 8151TIP3    H145868   4.204   5.149   2.704 -0.1034 -1.8214 -0.9747
 8151TIP3    H245869   4.088   5.224   2.765  0.7299  0.1045 -1.6837
 8152TIP3   OH245870   1.652   2.864   3.125  0.0573 -0.4427 -0.1230
 8152TIP3    H145871   1.628   2.945   3.170  0.8501 -0.2781  0.0297
 8152TIP3    H245872   1.569   2.818   3.110 -0.2606 -0.3354  1.1940
 8153TIP3   OH245873   2.848   1.199  15.082 -0.0884  0.2589 -0.0304
 8153TIP3    H145874   2.847   1.273  15.142 -0.0822 -0.6182  1.0825
 8153TIP3    H245875   2.759   1.164  15.085 -0.5068  1.0630 -1.6689
 8154TIP3   OH245876   6.215   4.313   4.746  0.2569  0.4151 -0.3114
 8154TIP3    H145877   6.265   4.318   4.828  0.6932 -0.0120 -0.5417
 8154TIP3    H245878   6.278   4.279   4.682 -0.2333  0.2117 -0.6909
 8155TIP3   OH245879   3.519   2.721  12.923 -0.0016 -0.2030  0.1958
 8155TIP3    H145880   3.555   2.806  12.898 -3.6366  1.5762  0.2694
 8155TIP3    H245881   3.590   2.659  12.909  2.1974  2.5385 -1.8393
 8156TIP3   OH245882   4.195   3.802   1.593  0.0132  0.0309 -0.3656
 8156TIP3    H145883   4.181   3.767   1.681  0.2277  1.9732  0.5071
 8156TIP3    H245884   4.118   3.857   1.577  1.1814  1.8086 -0.2250
 8157TIP3   OH245885   2.598   4.503   2.794 -0.0938 -0.6325 -0.1429
 8157TIP3    H145886   2.682   4.467   2.767 -1.3742 -2.7591 -1.6938
 8157TIP3    H245887   2.601   4.505   2.890  1.0684 -2.4318 -0.1044
 8158TIP3   OH245888   3.810   2.398   3.396 -0.2066 -0.0004  0.4179
 8158TIP3    H145889   3.716   2.413   3.405 -0.2845 -0.4725  0.4190
 8158TIP3    H245890   3.817   2.318   3.344  0.1676 -0.7880  1.6255
 8159TIP3   OH245891   0.514   0.169  13.588 -0.6405 -0.3558  0.8559
 8159TIP3    H145892   0.477   0.197  13.672  0.5894  0.2934  1.2022
 8159TIP3    H245893   0.507   0.074  13.590 -4.0142 -0.2658  0.0716
 8160TIP3   OH245894   1.626   4.561  11.698  0.1148  0.3288  0.5311
 8160TIP3    H145895   1.708   4.513  11.687 -0.4399 -0.4880 -0.2153
 8160TIP3    H245896   1.565   4.496  11.732 -0.8223  0.3009 -1.0854
 8161TIP3   OH245897   5.716   0.456   6.155  0.7109  0.7213  0.3486
 8161TIP3    H145898   5.634   0.457   6.204  0.6629  2.7268  0.2947
 8161TIP3    H245899   5.766   0.530   6.191  2.1905 -0.0068 -0.1317
 8162TIP3   OH245900   4.516   6.770   0.655 -0.0250  0.2278  0.3100
 8162TIP3    H145901   4.439   6.734   0.611  0.1899  0.1346  0.0080
 8162TIP3    H245902   4.518   6.862   0.629  1.3925 -0.3126 -1.7757
 8163TIP3   OH245903   2.451   2.619   0.919  0.2058 -0.2865 -0.6143
 8163TIP3    H145904   2.524   2.567   0.952  0.1990  1.5215  2.7090
 8163TIP3    H245905   2.378   2.595   0.976 -1.4295 -0.8166 -2.7843
 8164TIP3   OH245906   0.862   5.912  11.302  0.3116  0.5156 -0.0258
 8164TIP3    H145907   0.885   5.874  11.218  1.2388 -0.2263  0.5419
 8164TIP3    H245908   0.778   5.873  11.325  1.6576 -1.9936  0.9757
 8165TIP3   OH245909   0.083   5.189  14.043  0.0038  0.7327 -0.7731
 8165TIP3    H145910   0.097   5.218  13.953  0.1448 -2.1337 -1.7969
 8165TIP3    H245911   0.171   5.188  14.082 -0.0020  1.5655 -0.7294
 8166TIP3   OH245912   0.975   6.692   3.633 -0.3831 -0.0901 -0.1203
 8166TIP3    H145913   0.915   6.620   3.651 -0.0156 -0.8779 -1.9253
 8166TIP3    H245914   0.922   6.757   3.587 -0.7513  0.9255  1.6266
 8167TIP3   OH245915   3.846   1.548   3.961  0.2936 -0.1225 -0.1427
 8167TIP3    H145916   3.774   1.589   4.009  0.8795 -0.3598  0.9543
 8167TIP3    H245917   3.870   1.471   4.013  2.5275  0.9165  0.4730
 8168TIP3   OH245918   3.665   1.206   4.981  0.1531  0.2749  0.7771
 8168TIP3    H145919   3.675   1.226   4.888  1.1647 -1.4865  0.4722
 8168TIP3    H245920   3.679   1.291   5.025 -0.6026  1.1788 -0.6591
 8169TIP3   OH245921   0.207   1.059  11.863 -0.4849 -0.0703  0.3065
 8169TIP3    H145922   0.269   1.129  11.842  1.3285 -1.5803  0.3684
 8169TIP3    H245923   0.244   0.982  11.821 -2.4131 -1.0224  0.2784
 8170TIP3   OH245924   6.768   3.456  16.755 -0.8710  0.8231 -0.4564
 8170TIP3    H145925   6.754   3.549  16.734  1.5894  0.9356 -2.0789
 8170TIP3    H245926   6.809   3.420  16.676 -1.8606 -1.7178  0.0925
 8171TIP3   OH245927   3.466   1.495   3.447  0.4999 -0.0284  0.5195
 8171TIP3    H145928   3.549   1.479   3.491  1.0638  1.9203  0.2293
 8171TIP3    H245929   3.480   1.574   3.396 -0.8314 -0.9527 -1.4079
 8172TIP3   OH245930   5.368   3.579  10.893 -0.9259 -0.2491 -0.2676
 8172TIP3    H145931   5.366   3.498  10.842 -0.7792 -1.0017  0.8807
 8172TIP3    H245932   5.287   3.624  10.869 -0.6160 -0.3268 -1.5446
 8173TIP3   OH245933   2.925   4.408   4.730  0.1295 -0.5067  0.2636
 8173TIP3    H145934   3.003   4.435   4.780 -1.5910 -1.0570  3.5643
 8173TIP3    H245935   2.855   4.463   4.764 -1.0033  0.0718 -2.7399
 8174TIP3   OH245936   6.654   1.462   0.414 -0.0256  0.4562 -0.0311
 8174TIP3    H145937   6.659   1.382   0.362 -3.1866  0.4884 -0.5649
 8174TIP3    H245938   6.706   1.526   0.365  0.7658 -0.6793 -0.7172
 8175TIP3   OH245939   6.712   2.134  16.128 -0.3173 -0.1498 -0.6531
 8175TIP3    H145940   6.727   2.224  16.097  0.4590 -0.7399 -2.1112
 8175TIP3    H245941   6.659   2.094  16.059  0.0867 -1.0551 -0.4456
 8176TIP3   OH245942   0.638   3.561  13.085 -0.6072  0.4013 -0.1989
 8176TIP3    H145943   0.712   3.590  13.139  0.4841 -2.8542  0.2636
 8176TIP3    H245944   0.561   3.593  13.131  0.4199  1.6667  0.7264
 8177TIP3   OH245945   5.192   6.541  12.996  0.1946 -0.3142  0.5089
 8177TIP3    H145946   5.267   6.590  13.030  0.5321 -0.1170 -0.4999
 8177TIP3    H245947   5.144   6.513  13.074  1.1069 -0.1072  1.1536
 8178TIP3   OH245948   3.958   0.019   0.918  0.0614  0.5203 -1.4148
 8178TIP3    H145949   3.977  -0.069   0.886  0.4705  0.1737 -0.2556
 8178TIP3    H245950   4.043   0.051   0.950 -0.6801 -0.0098  1.3512
 8179TIP3   OH245951   1.108   6.739   4.023  0.3232 -0.8952  0.6701
 8179TIP3    H145952   1.175   6.682   4.059  1.0018  0.3416  1.4436
 8179TIP3    H245953   1.044   6.749   4.093  0.4845 -0.3074  0.7456
 8180TIP3   OH245954   6.790   5.637   4.727 -0.6837 -0.0735  0.1622
 8180TIP3    H145955   6.810   5.585   4.649 -0.0184  1.8418 -1.0314
 8180TIP3    H245956   6.811   5.580   4.801  0.4115 -1.3280 -1.0654
 8181TIP3   OH245957   2.002   5.194  13.333  0.3405 -0.4488  0.1726
 8181TIP3    H145958   2.022   5.185  13.426 -0.1552  1.7880  0.5394
 8181TIP3    H245959   1.907   5.186  13.328  0.3001  0.1365 -0.0441
 8182TIP3   OH245960   2.835   4.337  15.927  0.3832  0.0512  0.0038
 8182TIP3    H145961   2.925   4.369  15.921  0.6863 -0.8737 -0.6381
 8182TIP3    H245962   2.781   4.416  15.926  1.2232  0.7195  1.9710
 8183TIP3   OH245963   2.876   4.336  12.854  0.2394 -0.0222  0.1364
 8183TIP3    H145964   2.791   4.302  12.882 -0.6231  0.4945 -1.7226
 8183TIP3    H245965   2.940   4.286  12.905 -1.1086 -1.7256  0.2493
 8184TIP3   OH245966   2.027   1.241  16.880  0.5578 -0.1056 -0.0254
 8184TIP3    H145967   2.070   1.248  16.965  0.0184 -1.4975  0.3952
 8184TIP3    H245968   2.060   1.315  16.830  1.1414  0.5467  1.2825
 8185TIP3   OH245969   2.703   4.017  12.891  0.1971 -0.3197 -0.3182
 8185TIP3    H145970   2.692   4.108  12.919  3.1254 -0.2444  0.9304
 8185TIP3    H245971   2.769   3.982  12.951 -0.2827 -3.0557 -1.2845
 8186TIP3   OH245972   1.634   1.846  14.324 -0.2193 -0.2101 -0.0456
 8186TIP3    H145973   1.645   1.883  14.237  1.9437 -1.1337 -0.2309
 8186TIP3    H245974   1.540   1.826  14.331 -0.1286 -2.3554 -3.1140
 8187TIP3   OH245975   6.001   2.471   0.668  0.0050  0.1723 -0.3155
 8187TIP3    H145976   6.006   2.431   0.581  1.5219  2.0055 -1.1344
 8187TIP3    H245977   6.093   2.485   0.694 -0.3897 -0.6637  1.7727
 8188TIP3   OH245978   4.696   5.835   0.620  0.2274 -0.1063  0.2544
 8188TIP3    H145979   4.696   5.889   0.698 -0.0721  0.5699 -0.2076
 8188TIP3    H245980   4.703   5.897   0.547  1.7904 -0.7888 -0.2222
 8189TIP3   OH245981   0.135   1.987   3.771  0.4890  0.0502 -0.2507
 8189TIP3    H145982   0.134   1.974   3.866  0.3265 -1.9031 -0.4923
 8189TIP3    H245983   0.042   1.984   3.746  0.4638  1.4049 -0.3977
 8190TIP3   OH245984   3.274   6.169   0.888  0.5563  0.3254  0.1055
 8190TIP3    H145985   3.256   6.234   0.820 -0.0986  0.3158  0.2616
 8190TIP3    H245986   3.252   6.213   0.970  2.4587  0.7395  0.4274
 8191TIP3   OH245987   6.346   6.190  13.569  0.4851 -0.3338  0.1739
 8191TIP3    H145988   6.332   6.280  13.596 -1.6937 -0.4794 -0.2501
 8191TIP3    H245989   6.341   6.139  13.650  0.2782 -0.1895  0.2535
 8192TIP3   OH245990   2.243   3.963   1.786 -0.2307 -0.2421  0.0877
 8192TIP3    H145991   2.189   3.887   1.809 -1.4308  0.2737 -0.9041
 8192TIP3    H245992   2.214   3.987   1.698  2.1586 -0.3824 -0.8201
 8193TIP3   OH245993   1.526   6.234  17.125  0.3661 -0.1987 -0.1613
 8193TIP3    H145994   1.542   6.296  17.054 -0.1327  0.2850  0.1365
 8193TIP3    H245995   1.433   6.245  17.146  0.4061 -0.6438  0.2758
 8194TIP3   OH245996   0.357   1.401  14.614  0.3638 -0.7397  0.0148
 8194TIP3    H145997   0.382   1.317  14.651 -0.4919 -0.7847  0.5152
 8194TIP3    H245998   0.439   1.440  14.584  0.6092 -2.4498 -1.7041
 8195TIP3   OH245999   3.667   2.605  17.047 -0.5906  0.2351  0.4180
 8195TIP3    H146000   3.595   2.594  16.985  1.3400  1.8627 -2.3765
 8195TIP3    H246001   3.745   2.577  16.998  1.2059  2.6845  1.6322
 8196TIP3   OH246002   2.147   1.863  15.860 -0.7545 -0.1342 -0.2413
 8196TIP3    H146003   2.233   1.833  15.831 -0.0493  2.9498 -1.7429
 8196TIP3    H246004   2.161   1.895  15.949 -0.6671 -0.7086 -0.0415
 8197TIP3   OH246005   4.285   5.665  13.180  0.9489  0.0014  0.0742
 8197TIP3    H146006   4.237   5.645  13.100 -0.4586 -1.6165  1.2479
 8197TIP3    H246007   4.320   5.753  13.167  0.7921 -0.2432 -2.3010
 8198TIP3   OH246008   3.699   5.800   0.685  0.7353  0.1554 -0.0282
 8198TIP3    H146009   3.786   5.818   0.720 -0.2138  2.1450  1.5451
 8198TIP3    H246010   3.675   5.881   0.640  0.1712 -0.8254 -1.5615
 8199TIP3   OH246011   1.890   4.765   2.821  0.5893  0.2124 -0.0564
 8199TIP3    H146012   1.913   4.676   2.793  1.1340  0.4454 -0.3570
 8199TIP3    H246013   1.974   4.811   2.824  0.2495  0.8469 -0.3547
 8200TIP3   OH246014   4.743   3.949   4.057  0.1157 -0.3155  0.4050
 8200TIP3    H146015   4.717   3.930   4.147 -0.2775 -1.8283  0.0157
 8200TIP3    H246016   4.668   3.995   4.020  0.0016 -0.2822  0.6723
 8201TIP3   OH246017   4.430   4.304  15.730 -0.0571 -0.8007  0.2062
 8201TIP3    H146018   4.424   4.251  15.651  0.6231  0.0884 -0.4604
 8201TIP3    H246019   4.508   4.270  15.775  3.5391  2.6562 -2.6552
 8202TIP3   OH246020   3.839   1.609  16.382 -0.3795 -0.1177 -0.1428
 8202TIP3    H146021   3.806   1.650  16.462  3.5044  0.3409  1.4474
 8202TIP3    H246022   3.894   1.676  16.341  1.3900 -1.7896 -0.6775
 8203TIP3   OH246023   1.612   5.629  15.401  0.3504  0.3557  0.5600
 8203TIP3    H146024   1.611   5.626  15.496  1.7380 -1.0462  0.5706
 8203TIP3    H246025   1.703   5.644  15.378  0.3778 -1.3074 -0.5609
 8204TIP3   OH246026   4.393   0.211  16.080 -0.5613 -0.4736  0.0639
 8204TIP3    H146027   4.457   0.281  16.072 -4.0232  2.9442 -0.8361
 8204TIP3    H246028   4.400   0.182  16.171  1.1249  0.9139  0.4257
 8205TIP3   OH246029   0.251   2.975   6.381  0.2667 -0.5196  0.7681
 8205TIP3    H146030   0.238   2.901   6.440 -0.8577 -1.8172 -0.9907
 8205TIP3    H246031   0.162   3.008   6.365  0.6641  0.5332  0.7184
 8206TIP3   OH246032   3.504   0.352  14.724  0.7360 -0.3473  0.0676
 8206TIP3    H146033   3.576   0.330  14.784 -0.4464 -1.5965  1.0906
 8206TIP3    H246034   3.425   0.339  14.776 -0.3321 -1.3426 -1.7146
 8207TIP3   OH246035   5.216   2.143  12.396 -0.2973 -0.3200  0.5058
 8207TIP3    H146036   5.257   2.174  12.315 -2.9797  1.8943 -0.1785
 8207TIP3    H246037   5.263   2.190  12.466 -0.8107  1.2775 -0.1618
 8208TIP3   OH246038   3.710   2.140   4.237  0.1453  0.1578  0.3345
 8208TIP3    H146039   3.642   2.101   4.291  0.5642 -0.6814  0.2832
 8208TIP3    H246040   3.785   2.151   4.296 -0.4014  2.2658  0.7163
 8209TIP3   OH246041   4.051   6.103   4.214  0.1152 -0.2678 -0.0628
 8209TIP3    H146042   4.007   6.100   4.129  1.4825 -0.0709 -0.7980
 8209TIP3    H246043   4.115   6.173   4.206  1.5496 -1.4728  0.4884
 8210TIP3   OH246044   2.656   1.569  14.983  0.1238  0.3636 -0.1419
 8210TIP3    H146045   2.608   1.493  15.017 -0.3584  0.4760 -0.5613
 8210TIP3    H246046   2.597   1.608  14.918 -0.3131  2.0198  1.1754
 8211TIP3   OH246047   5.248   6.420   2.976  0.7450  0.3656 -0.2769
 8211TIP3    H146048   5.299   6.456   2.904 -0.0233  0.1610 -0.9322
 8211TIP3    H246049   5.295   6.341   3.001  0.9207  0.3454 -0.6651
 8212TIP3   OH246050   5.914   0.132  12.762  0.2920 -0.0879  0.2100
 8212TIP3    H146051   5.947   0.043  12.775  0.1345 -0.2597 -0.5607
 8212TIP3    H246052   5.967   0.167  12.690 -0.1879  0.1641 -0.0214
 8213TIP3   OH246053   6.806   2.919   0.108  0.7439 -0.3544  0.1337
 8213TIP3    H146054   6.869   2.856   0.143  0.1688 -1.2231 -0.3569
 8213TIP3    H246055   6.723   2.896   0.150  0.2119 -0.9033 -1.1765
 8214TIP3   OH246056   4.731   1.220   2.794 -0.0926  0.2536  0.1300
 8214TIP3    H146057   4.648   1.237   2.840  0.1527  2.9605 -0.2782
 8214TIP3    H246058   4.706   1.213   2.702  0.0715  0.4077  0.0751
 8215TIP3   OH246059   1.095   2.441   6.035 -0.1870 -0.2725 -0.0453
 8215TIP3    H146060   1.165   2.504   6.019 -0.7264  0.0622 -1.2258
 8215TIP3    H246061   1.072   2.452   6.127  1.9162 -1.0310  0.6304
 8216TIP3   OH246062   4.750   2.952  15.382  0.2211  0.7912  0.2888
 8216TIP3    H146063   4.824   2.949  15.443  1.7399  0.0349 -1.5039
 8216TIP3    H246064   4.776   2.893  15.311 -3.5548 -2.3363  1.1449
 8217TIP3   OH246065   0.131   5.210   3.593  0.3340  0.1160 -0.4976
 8217TIP3    H146066   0.094   5.288   3.635  0.1600 -0.2108 -0.0289
 8217TIP3    H246067   0.213   5.196   3.639 -0.3289 -0.8282  0.4473
 8218TIP3   OH246068   4.450   0.305  14.046 -0.2817 -0.0815  0.2194
 8218TIP3    H146069   4.445   0.349  14.131 -1.8316  1.0685 -0.4125
 8218TIP3    H246070   4.361   0.311  14.011 -0.3623 -2.9802 -0.3252
 8219TIP3   OH246071   2.120   0.435   3.839 -0.2212 -0.5858  0.8352
 8219TIP3    H146072   2.187   0.501   3.823 -0.2773 -1.0523 -1.8147
 8219TIP3    H246073   2.047   0.485   3.878  0.5494  0.4755  0.9780
 8220TIP3   OH246074   0.751   2.255   0.663 -0.0179  0.5834 -1.1938
 8220TIP3    H146075   0.737   2.172   0.617  0.1318  0.0589 -0.3310
 8220TIP3    H246076   0.674   2.264   0.720  1.2400 -0.4087  0.7879
 8221TIP3   OH246077   6.671   3.065  10.904 -0.5912  0.2284  0.4134
 8221TIP3    H146078   6.588   3.097  10.868 -0.7981  1.0631  1.5455
 8221TIP3    H246079   6.736   3.127  10.874 -0.4206 -0.2673 -0.2439
 8222TIP3   OH246080   4.410   4.576   4.820  0.3862 -0.3674  0.4017
 8222TIP3    H146081   4.477   4.511   4.794  0.3126  0.4155 -2.0275
 8222TIP3    H246082   4.340   4.564   4.755  0.3054  2.0053 -0.0109
 8223TIP3   OH246083   6.213   2.127  12.676 -0.0260 -0.2544 -0.1249
 8223TIP3    H146084   6.187   2.205  12.726  0.9109  0.8414 -1.2632
 8223TIP3    H246085   6.296   2.100  12.714 -0.5250 -0.9327  0.5019
 8224TIP3   OH246086   4.508   2.530   3.802  0.1178 -0.3926  0.1634
 8224TIP3    H146087   4.475   2.445   3.772  0.1540 -0.6707  0.8764
 8224TIP3    H246088   4.429   2.578   3.828  0.0897 -0.1682 -0.3210
 8225TIP3   OH246089   5.188   2.126   0.418  0.1132 -0.1067  0.6653
 8225TIP3    H146090   5.174   2.075   0.338  1.6963 -0.7515  0.7462
 8225TIP3    H246091   5.117   2.100   0.476  0.7167 -2.0595  0.6021
 8226TIP3   OH246092   6.382   5.640  14.417 -0.3119  0.5367 -0.3896
 8226TIP3    H146093   6.293   5.659  14.389 -1.0033 -2.8144 -0.9676
 8226TIP3    H246094   6.372   5.596  14.501  0.6688 -0.6446 -0.8541
 8227TIP3   OH246095   1.676   3.574   5.582 -0.1486  0.3293 -0.7714
 8227TIP3    H146096   1.696   3.609   5.669  0.3862 -1.2200 -0.2319
 8227TIP3    H246097   1.656   3.651   5.529  0.3262  1.3757  0.5122
 8228TIP3   OH246098   5.433   0.970  13.212  0.8624  0.0518  0.2313
 8228TIP3    H146099   5.452   0.943  13.302 -0.4080  0.0914  0.5375
 8228TIP3    H246100   5.445   1.065  13.213  1.4169 -0.0146  0.2017
 8229TIP3   OH246101   5.351   3.461   3.838 -0.1727 -0.0236 -0.1658
 8229TIP3    H146102   5.302   3.404   3.779 -0.2998 -0.6384  0.5125
 8229TIP3    H246103   5.309   3.448   3.923  0.4191  0.3482  0.1867
 8230TIP3   OH246104   3.542   4.730   4.711  0.1970 -0.1698  0.3507
 8230TIP3    H146105   3.575   4.655   4.760 -0.1939  0.0082  0.8962
 8230TIP3    H246106   3.485   4.776   4.773  0.8505  0.8750  0.1897
 8231TIP3   OH246107   5.228   0.035  14.831 -0.0038  0.0500  0.4634
 8231TIP3    H146108   5.206  -0.053  14.861 -0.0162  0.3763  1.4385
 8231TIP3    H246109   5.323   0.041  14.840 -0.1841  0.7639  2.2030
 8232TIP3   OH246110   6.234   1.482   4.960  0.4004  0.0193  0.1464
 8232TIP3    H146111   6.181   1.422   5.013  0.2761  0.7227  0.8281
 8232TIP3    H246112   6.207   1.464   4.870  1.2495 -1.8153  0.2060
 8233TIP3   OH246113   0.329   2.382  15.281 -0.1271 -0.0671  0.5221
 8233TIP3    H146114   0.318   2.319  15.352  0.9627 -0.7958  0.0876
 8233TIP3    H246115   0.423   2.402  15.281 -0.2429  0.5354 -0.1987
 8234TIP3   OH246116   4.501   4.015  11.577  0.2081  0.0427  0.4175
 8234TIP3    H146117   4.447   4.080  11.623  1.7370  1.7192 -0.0473
 8234TIP3    H246118   4.438   3.957  11.535 -1.2222  1.0149  1.1318
 8235TIP3   OH246119   2.324   1.087   0.564  0.3532 -0.3112 -0.6536
 8235TIP3    H146120   2.324   1.084   0.468  0.0329  0.9807 -0.7169
 8235TIP3    H246121   2.410   1.122   0.587  0.0665  0.3326 -0.5295
 8236TIP3   OH246122   5.685   6.102  15.340 -0.7183 -0.7069  0.4330
 8236TIP3    H146123   5.666   6.008  15.341  0.4090 -0.9709 -0.4969
 8236TIP3    H246124   5.780   6.107  15.332 -0.5993  0.5389  2.0146
 8237TIP3   OH246125   1.797   2.694  12.371  0.6309  0.2157  0.6471
 8237TIP3    H146126   1.827   2.762  12.432 -0.5480 -1.0617  2.7799
 8237TIP3    H246127   1.844   2.615  12.399 -0.1760 -0.4689  0.1064
 8238TIP3   OH246128   4.228   6.073  16.685  0.0103  0.4240  0.0597
 8238TIP3    H146129   4.159   6.109  16.741 -2.3890 -1.5282 -1.4451
 8238TIP3    H246130   4.209   6.107  16.598 -0.3497 -1.7388 -0.7591
 8239TIP3   OH246131   1.357   3.062  15.507 -0.0414  0.2494  0.0712
 8239TIP3    H146132   1.422   3.130  15.486  1.8007 -0.7044  2.3026
 8239TIP3    H246133   1.374   2.993  15.443  1.1392  0.0402  0.5877
 8240TIP3   OH246134   1.634   5.833   4.531 -0.4697  0.4659 -0.0128
 8240TIP3    H146135   1.544   5.802   4.542 -0.1637  0.1297  1.7675
 8240TIP3    H246136   1.642   5.905   4.594  1.1181 -0.8707  1.3887
 8241TIP3   OH246137   0.723   5.346   3.754 -0.0534 -0.0544  0.0701
 8241TIP3    H146138   0.723   5.391   3.839 -1.7464 -1.2840  0.7775
 8241TIP3    H246139   0.656   5.392   3.703  0.2556  0.0482 -0.2471
 8242TIP3   OH246140   4.224   3.925   4.468  0.3731 -0.3074  0.4078
 8242TIP3    H146141   4.138   3.950   4.434  0.9535  0.0379 -0.8598
 8242TIP3    H246142   4.266   4.008   4.492  1.1661 -0.2628 -1.0287
 8243TIP3   OH246143   2.370   6.771  16.301 -0.1760  0.1521  0.8917
 8243TIP3    H146144   2.436   6.731  16.357  0.0359 -0.8073 -0.0117
 8243TIP3    H246145   2.288   6.727  16.324 -0.5639  1.4394  2.1107
 8244TIP3   OH246146   3.017   2.227   0.576  0.1310 -0.0894 -0.1535
 8244TIP3    H146147   3.089   2.230   0.512  0.2124 -2.2590 -0.2271
 8244TIP3    H246148   2.938   2.223   0.523  0.0913 -0.1515 -0.0887
 8245TIP3   OH246149   5.505   3.963   6.149 -0.4155  0.3443  0.7168
 8245TIP3    H146150   5.496   3.897   6.218 -1.2135 -1.0014 -0.6283
 8245TIP3    H246151   5.416   3.987   6.126 -0.1737  0.5774 -0.0159
 8246TIP3   OH246152   5.230   6.169   5.441 -0.2190  0.6765 -0.3478
 8246TIP3    H146153   5.320   6.151   5.468 -0.7173  0.6868  1.5042
 8246TIP3    H246154   5.191   6.083   5.427 -0.1428  0.6303 -0.2803
 8247TIP3   OH246155   3.775   2.306   1.959 -0.0015  0.1931  0.3038
 8247TIP3    H146156   3.718   2.382   1.948 -0.5010 -0.4268 -1.9262
 8247TIP3    H246157   3.714   2.234   1.978  0.1466 -0.1978 -0.6429
 8248TIP3   OH246158   5.250   6.690   2.462  0.4728 -0.1587 -0.0349
 8248TIP3    H146159   5.199   6.692   2.381 -0.8753  0.5466  0.8044
 8248TIP3    H246160   5.341   6.698   2.433 -0.1186  3.0287 -1.3669
 8249TIP3   OH246161   6.017   4.896  16.767 -0.7179  0.0983  0.2373
 8249TIP3    H146162   6.005   4.944  16.849  0.0920  2.2139 -0.7959
 8249TIP3    H246163   6.105   4.859  16.775 -0.8957 -0.2639  0.5759
 8250TIP3   OH246164   4.821   5.011   4.637 -0.7405  0.2690  0.3177
 8250TIP3    H146165   4.908   4.981   4.659 -0.7899  0.8360  1.3372
 8250TIP3    H246166   4.762   4.958   4.691 -1.1117 -0.7609 -1.0381
 8251TIP3   OH246167   3.621   0.927  15.110 -0.2670 -0.9108  0.1405
 8251TIP3    H146168   3.531   0.895  15.116 -0.6628  0.4132  1.9557
 8251TIP3    H246169   3.674   0.847  15.105 -1.4774 -1.7259 -0.0930
 8252TIP3   OH246170   4.520   2.733  12.518  0.0798  0.0140 -0.3492
 8252TIP3    H146171   4.501   2.749  12.425  2.0251 -0.7001 -0.9064
 8252TIP3    H246172   4.557   2.645  12.521 -0.0359 -0.0196  1.1444
 8253TIP3   OH246173   5.558   6.043   0.467 -0.0638  0.0119  0.1187
 8253TIP3    H146174   5.602   5.973   0.418  0.7377  0.2834  0.4408
 8253TIP3    H246175   5.582   6.123   0.422 -0.3019  0.1601  0.2518
 8254TIP3   OH246176   5.351   5.677  11.430  0.3270 -0.5726 -0.1240
 8254TIP3    H146177   5.281   5.662  11.494  1.4815  0.0951  1.3507
 8254TIP3    H246178   5.308   5.724  11.358 -0.3617  1.8375  1.7455
 8255TIP3   OH246179   1.447   3.925   1.878  0.0976 -0.3491 -0.0603
 8255TIP3    H146180   1.542   3.932   1.880  0.2227 -1.7788 -0.3154
 8255TIP3    H246181   1.417   4.014   1.858  1.3555  0.1487  0.1743
 8256TIP3   OH246182   2.866   5.243   0.944  0.2872  0.1857  0.0460
 8256TIP3    H146183   2.861   5.315   1.007  0.4088  0.8716 -0.7076
 8256TIP3    H246184   2.868   5.164   0.998  1.4433  0.7900  0.9451
 8257TIP3   OH246185   4.773   3.457   2.002 -0.4584  0.2403 -0.0747
 8257TIP3    H146186   4.831   3.515   1.952 -1.5420  0.8791 -0.6261
 8257TIP3    H246187   4.686   3.473   1.966 -1.1689  0.1796  1.5370
 8258TIP3   OH246188   1.476   4.927   5.632 -0.3709  0.8371 -0.1515
 8258TIP3    H146189   1.475   4.887   5.546  1.1521  0.1136  0.1174
 8258TIP3    H246190   1.449   5.017   5.618 -0.7688  0.5532 -1.2689
 8259TIP3   OH246191   6.780   5.116   2.902  0.0718 -0.3148 -0.6583
 8259TIP3    H146192   6.758   5.025   2.922 -0.6434  0.1559  0.8648
 8259TIP3    H246193   6.859   5.134   2.953  0.5466 -0.2390 -1.4040
 8260TIP3   OH246194   2.077   0.161   2.564  0.8734  0.5604 -0.6163
 8260TIP3    H146195   2.121   0.083   2.598 -2.2880 -0.7852  0.7238
 8260TIP3    H246196   2.031   0.130   2.486  0.0178  1.1996 -0.3764
 8261TIP3   OH246197   2.343   2.386   2.449 -0.2794  0.3723 -0.3825
 8261TIP3    H146198   2.434   2.410   2.433  0.0555  1.0026  2.0919
 8261TIP3    H246199   2.348   2.302   2.496 -0.8085  1.2538  1.3549
 8262TIP3   OH246200   2.160   5.726   1.759  0.3519  0.2098  0.2303
 8262TIP3    H146201   2.231   5.778   1.721 -0.0684  1.3166  0.9321
 8262TIP3    H246202   2.126   5.675   1.685  0.6515  1.0648 -0.5161
 8263TIP3   OH246203   1.862   4.094  13.290  0.6614 -0.1178  0.1324
 8263TIP3    H146204   1.794   4.070  13.227  0.5062  0.0464  0.2387
 8263TIP3    H246205   1.822   4.081  13.375  0.5474  0.5914  0.1926
 8264TIP3   OH246206   2.162   3.783  12.846  0.0101  1.1203  0.3569
 8264TIP3    H146207   2.190   3.866  12.808  0.1429  1.0377  0.2761
 8264TIP3    H246208   2.088   3.754  12.792  1.1910  0.2096 -0.8266
 8265TIP3   OH246209   3.720   0.600  13.934 -0.5540  0.0968  0.0425
 8265TIP3    H146210   3.665   0.602  14.012  0.7205  3.4375  1.0281
 8265TIP3    H246211   3.677   0.658  13.872  0.4093  0.5120 -0.2581
 8266TIP3   OH246212   5.665   4.112  10.585 -0.0658 -0.0314  0.5099
 8266TIP3    H146213   5.657   4.049  10.656  0.0036 -0.4010  0.1918
 8266TIP3    H246214   5.586   4.099  10.532 -0.2345  0.4079  0.6508
 8267TIP3   OH246215   4.532   6.117  16.584 -0.9164  0.0463  0.5721
 8267TIP3    H146216   4.478   6.083  16.513 -1.6703  0.7931  0.7738
 8267TIP3    H246217   4.505   6.208  16.594 -1.4503 -0.2633  2.3751
 8268TIP3   OH246218   5.001   3.296   5.271  0.1050  0.3346 -0.3793
 8268TIP3    H146219   4.929   3.345   5.231 -0.5042 -1.0571 -1.0726
 8268TIP3    H246220   4.958   3.221   5.312  1.2579 -1.4361 -2.2192
 8269TIP3   OH246221   3.829   1.637  13.721 -0.7422  0.1667 -0.4978
 8269TIP3    H146222   3.919   1.669  13.719 -0.8268  0.3792 -0.9081
 8269TIP3    H246223   3.785   1.694  13.784 -0.2699 -0.8035  0.7604
 8270TIP3   OH246224   6.623   2.261  15.847 -0.2450 -0.0597  0.2737
 8270TIP3    H146225   6.605   2.187  15.789  1.8795 -1.0977  0.8762
 8270TIP3    H246226   6.717   2.275  15.840 -0.2687  1.1504  1.8967
 8271TIP3   OH246227   0.169   1.926   3.397 -0.1232  0.0053  0.4057
 8271TIP3    H146228   0.260   1.922   3.368 -0.4203  0.5273 -0.6728
 8271TIP3    H246229   0.153   1.841   3.437 -0.4327 -1.9919 -3.4358
 8272TIP3   OH246230   6.775   5.250   0.078 -0.2686  0.4623  0.1068
 8272TIP3    H146231   6.862   5.214   0.059 -0.3551  0.7796 -1.0236
 8272TIP3    H246232   6.745   5.285  -0.007 -2.1945 -1.1006  0.0694
 8273TIP3   OH246233   1.684   2.323  11.202  0.2614  0.2738  0.3189
 8273TIP3    H146234   1.662   2.263  11.130  3.6468 -2.0029  0.9625
 8273TIP3    H246235   1.697   2.408  11.160  0.3602 -0.5890 -1.4617
 8274TIP3   OH246236   0.465   0.086  12.720 -0.2670 -0.0578 -0.2302
 8274TIP3    H146237   0.491   0.013  12.664 -0.5269 -0.3600  0.0398
 8274TIP3    H246238   0.548   0.121  12.754 -0.1806 -2.6163  2.6705
 8275TIP3   OH246239   1.621   5.206   4.175  0.1849  0.2692  0.5326
 8275TIP3    H146240   1.529   5.225   4.161  0.2163  1.1230  1.3922
 8275TIP3    H246241   1.624   5.163   4.261  0.2138 -3.0070 -0.9382
 8276TIP3   OH246242   4.947   5.600   3.383  0.1948  0.7652 -0.0024
 8276TIP3    H146243   5.035   5.637   3.390  0.9200 -0.8729  0.0383
 8276TIP3    H246244   4.918   5.590   3.473  1.1395 -1.2577  0.1309
 8277TIP3   OH246245   4.201   3.357   3.217 -0.0665 -0.0636 -0.1104
 8277TIP3    H146246   4.228   3.447   3.197  0.0387  0.1989  1.1106
 8277TIP3    H246247   4.284   3.309   3.227 -0.0491  0.2575  1.5431
 8278TIP3   OH246248   3.179   4.804  13.768 -0.1845 -0.1615  0.2539
 8278TIP3    H146249   3.217   4.892  13.762 -2.3842  0.8194 -0.1094
 8278TIP3    H246250   3.219   4.766  13.847  1.3681  0.8367 -0.0118
 8279TIP3   OH246251   1.577   6.039   1.692 -0.4950  0.5796  0.2092
 8279TIP3    H146252   1.575   6.098   1.617 -0.5390  0.2308 -0.0708
 8279TIP3    H246253   1.670   6.023   1.707 -0.5053 -0.0871 -0.3710
 8280TIP3   OH246254   6.701   2.928   3.523  0.5831 -0.0639 -0.0387
 8280TIP3    H146255   6.614   2.890   3.512  0.9988 -0.6679 -1.5680
 8280TIP3    H246256   6.711   2.941   3.617 -1.0381 -0.2593  0.1732
 8281TIP3   OH246257   2.612   5.657  10.505  0.1036 -0.1972 -0.2359
 8281TIP3    H146258   2.611   5.737  10.452 -1.7821  0.9097  1.3392
 8281TIP3    H246259   2.578   5.589  10.447  0.0027  0.5320 -1.0483
 8282TIP3   OH246260   2.399   6.454  14.743  0.4531  0.4215 -0.3046
 8282TIP3    H146261   2.325   6.392  14.742 -0.7108  1.7418  0.5131
 8282TIP3    H246262   2.404   6.487  14.653 -1.3801  1.8975  0.0732
 8283TIP3   OH246263   6.470   4.898   4.376 -1.0710  0.0461  0.0660
 8283TIP3    H146264   6.461   4.887   4.471  1.7466 -1.5845  0.2618
 8283TIP3    H246265   6.494   4.811   4.344 -1.7714  0.6050 -2.1512
 8284TIP3   OH246266   2.909   1.594  16.813 -0.4943 -0.3726  0.3648
 8284TIP3    H146267   2.882   1.636  16.895  1.3153 -1.6440  1.7325
 8284TIP3    H246268   2.898   1.500  16.831  1.0671 -0.7289 -0.3581
 8285TIP3   OH246269   2.238   2.209   3.823  0.3997 -0.1611  0.0641
 8285TIP3    H146270   2.252   2.165   3.739 -1.9242 -0.4267 -0.2615
 8285TIP3    H246271   2.180   2.150   3.871 -0.6684  1.3348  0.6663
 8286TIP3   OH246272   0.202   5.440   2.546  0.1292  0.1426 -0.0186
 8286TIP3    H146273   0.117   5.402   2.524 -0.9061  1.2887  1.7557
 8286TIP3    H246274   0.231   5.393   2.623  2.1139 -1.5547 -1.6753
 8287TIP3   OH246275   1.285   4.605  13.327  0.2297  0.2059 -0.0071
 8287TIP3    H146276   1.272   4.580  13.419  0.2477 -0.1239 -0.0920
 8287TIP3    H246277   1.381   4.612  13.318  0.2158  0.5355  0.0739
 8288TIP3   OH246278   4.438   5.611  12.927  0.1569  0.4226  0.6365
 8288TIP3    H146279   4.456   5.688  12.982  0.4117  0.7444  0.1124
 8288TIP3    H246280   4.500   5.619  12.855 -1.0945  0.7690 -0.4491
 8289TIP3   OH246281   4.561   1.568   2.521  0.1755 -0.0792 -0.8504
 8289TIP3    H146282   4.629   1.624   2.557 -1.0090  1.8995 -1.5318
 8289TIP3    H246283   4.591   1.546   2.434  1.6599 -2.4145  0.1629
 8290TIP3   OH246284   1.074   3.309  12.048  0.1318  0.3142 -0.2454
 8290TIP3    H146285   1.089   3.402  12.060  1.5763 -0.1024  1.5519
 8290TIP3    H246286   1.034   3.302  11.961  1.4011  2.4659 -1.0702
 8291TIP3   OH246287   3.922   6.362  12.032  0.5566 -0.4422 -0.5238
 8291TIP3    H146288   3.937   6.275  12.069 -0.7146 -0.8424 -0.8917
 8291TIP3    H246289   3.902   6.346  11.940 -2.5165 -0.0953 -0.0202
 8292TIP3   OH246290   1.177   3.198  16.980 -0.3168 -0.2025  0.2410
 8292TIP3    H146291   1.133   3.220  17.062  0.9479  1.9838  0.4339
 8292TIP3    H246292   1.225   3.117  16.999 -1.0072 -0.3897  1.2652
 8293TIP3   OH246293   1.553   1.654   0.271 -0.1439  0.0362 -0.2779
 8293TIP3    H146294   1.649   1.656   0.274 -0.0839 -1.7072  0.2683
 8293TIP3    H246295   1.526   1.735   0.313  1.0947  0.2009  0.2517
 8294TIP3   OH246296   0.230   2.663   4.296  0.3310  0.4522 -0.2811
 8294TIP3    H146297   0.297   2.611   4.251  2.1802  0.3431  2.3722
 8294TIP3    H246298   0.266   2.678   4.384 -3.1187  0.4340  1.3092
 8295TIP3   OH246299   3.618   1.690  13.434 -0.1961  0.3633 -0.0820
 8295TIP3    H146300   3.599   1.620  13.372  2.0151 -1.7129  1.3956
 8295TIP3    H246301   3.710   1.712  13.419  0.1524  0.4323  1.8257
 8296TIP3   OH246302   6.433   5.399   6.142 -0.1317  0.6368  0.0735
 8296TIP3    H146303   6.490   5.323   6.149  0.5696  1.2421  1.4758
 8296TIP3    H246304   6.444   5.430   6.052 -2.8753 -2.6987 -1.6289
 8297TIP3   OH246305   5.301   3.778  16.808  0.0821 -0.0507  0.5165
 8297TIP3    H146306   5.336   3.694  16.837  0.7396  0.1317  0.2637
 8297TIP3    H246307   5.220   3.789  16.859  0.7922 -0.1050  1.6851
 8298TIP3   OH246308   3.008   0.817   4.553 -0.0990 -0.0772  0.1616
 8298TIP3    H146309   2.954   0.783   4.482 -1.4916 -0.0756  1.1798
 8298TIP3    H246310   2.999   0.912   4.547 -2.7792 -0.0986  2.1519
 8299TIP3   OH246311   6.245   0.374  16.229  0.0619  0.1615 -0.0567
 8299TIP3    H146312   6.181   0.404  16.164 -0.5758  0.4106  0.6661
 8299TIP3    H246313   6.197   0.375  16.312  0.6543 -0.8542  0.3081
 8300TIP3   OH246314   0.991   5.409  14.008 -0.5804 -0.0001  0.1028
 8300TIP3    H146315   1.062   5.471  13.991 -1.8439  1.3224 -0.6247
 8300TIP3    H246316   0.967   5.376  13.922 -1.8164  0.7288  0.1377
 8301TIP3   OH246317   5.811   6.454   4.217 -0.3140  0.0183 -0.0523
 8301TIP3    H146318   5.742   6.388   4.204 -1.7677  0.9716  2.1398
 8301TIP3    H246319   5.858   6.423   4.295  0.2696  0.5673 -0.1853
 8302TIP3   OH246320   5.937   4.740   2.573  0.5561 -0.2047  0.2198
 8302TIP3    H146321   5.985   4.658   2.587  1.6916  0.6693  1.7019
 8302TIP3    H246322   5.995   4.793   2.517 -0.3625 -0.5347 -1.0967
 8303TIP3   OH246323   5.383   0.534  16.047  0.1331 -0.2048 -0.2632
 8303TIP3    H146324   5.477   0.537  16.065  0.2128  0.9513 -0.7951
 8303TIP3    H246325   5.377   0.532  15.951 -0.3765 -0.9746 -0.2214
 8304TIP3   OH246326   6.392   4.712   3.467 -0.1396 -0.0358 -0.3844
 8304TIP3    H146327   6.372   4.802   3.441 -0.3039 -0.1597 -0.6818
 8304TIP3    H246328   6.390   4.662   3.386 -2.9018 -0.8554  0.0662
 8305TIP3   OH246329   5.969   2.584  13.244 -0.5843  0.6184  0.2983
 8305TIP3    H146330   6.001   2.537  13.321 -0.9207  0.7260  0.5033
 8305TIP3    H246331   5.882   2.547  13.228 -0.6232  0.7846  0.1282
 8306TIP3   OH246332   2.732   6.385  11.167 -0.2635  0.1866  0.1468
 8306TIP3    H146333   2.820   6.373  11.201  0.7463  0.1617 -2.2468
 8306TIP3    H246334   2.704   6.296  11.143 -0.0948  0.4038 -0.9206
 8307TIP3   OH246335   0.850   6.447  15.707  0.3692 -0.8593  0.1467
 8307TIP3    H146336   0.759   6.436  15.681  0.6788 -2.4057 -0.4001
 8307TIP3    H246337   0.856   6.409  15.794  0.4142 -0.4087  0.3425
 8308TIP3   OH246338   4.778   0.610  15.008  0.5629 -0.6266  0.4515
 8308TIP3    H146339   4.831   0.537  15.041  0.3584 -0.3760  1.3586
 8308TIP3    H246340   4.794   0.610  14.914  2.1503 -0.5891  0.6825
 8309TIP3   OH246341   6.335   4.729  11.267 -0.0808 -0.0869  0.2906
 8309TIP3    H146342   6.395   4.756  11.335  0.2145 -0.8768  0.3608
 8309TIP3    H246343   6.299   4.810  11.232  0.2214  0.3459  0.9706
 8310TIP3   OH246344   4.700   5.589  14.414  0.4851 -0.4713 -0.3134
 8310TIP3    H146345   4.668   5.670  14.451  2.0496  0.3674 -0.6840
 8310TIP3    H246346   4.623   5.547  14.376 -0.3649  0.8051 -0.0540
 8311TIP3   OH246347   4.751   1.469  13.882  0.4219  0.0362  0.1934
 8311TIP3    H146348   4.790   1.473  13.795 -0.8135  0.8167 -0.3499
 8311TIP3    H246349   4.708   1.384  13.885 -2.1767  1.1762 -1.2020
 8312TIP3   OH246350   4.370   0.209   1.925 -0.0838 -0.3495 -0.1108
 8312TIP3    H146351   4.382   0.211   1.830  0.2901  0.6128 -0.0539
 8312TIP3    H246352   4.284   0.169   1.937 -0.7444  0.7340 -0.9352
 8313TIP3   OH246353   4.047   0.089  15.120  0.8116  0.2286 -0.5125
 8313TIP3    H146354   4.134   0.120  15.146  0.7716 -0.3994  0.4356
 8313TIP3    H246355   3.986   0.136  15.177  0.6332 -0.2559 -0.2901
 8314TIP3   OH246356   5.234   5.837  15.757  0.6298  0.2365 -0.0408
 8314TIP3    H146357   5.185   5.756  15.767  0.7572  0.1113 -0.4120
 8314TIP3    H246358   5.325   5.810  15.748  0.7244  0.4462  0.2586
 8315TIP3   OH246359   1.634   1.344   0.314 -0.2302 -0.5321  0.6518
 8315TIP3    H146360   1.614   1.336   0.407  1.0098 -0.6601  0.9283
 8315TIP3    H246361   1.634   1.438   0.297  0.9354 -0.4315  1.1245
 8316TIP3   OH246362   2.652   5.081   4.833 -0.0552 -0.0727  0.6703
 8316TIP3    H146363   2.567   5.112   4.864  0.4474  1.5942  0.4850
 8316TIP3    H246364   2.695   5.160   4.798  0.7156 -1.2700 -1.1994
 8317TIP3   OH246365   0.291   1.015   0.241  0.1866  0.2183  0.1310
 8317TIP3    H146366   0.291   1.005   0.146 -0.4416  0.1558  0.1335
 8317TIP3    H246367   0.233   1.089   0.257  0.2368  0.1828  0.4702
 8318TIP3   OH246368   4.131   6.298   6.141 -0.3566 -0.3636 -0.3772
 8318TIP3    H146369   4.073   6.245   6.196 -1.1139  0.5294 -0.2862
 8318TIP3    H246370   4.209   6.312   6.194  0.3341 -2.2975 -0.8230
 8319TIP3   OH246371   3.708   0.432  15.972 -0.0277  0.5311  0.5142
 8319TIP3    H146372   3.724   0.338  15.968 -0.1412  0.5083  0.5903
 8319TIP3    H246373   3.795   0.470  15.987 -0.0101  0.4235  0.6900
 8320TIP3   OH246374   4.079   3.177   0.627  0.9410 -0.6430 -0.4650
 8320TIP3    H146375   4.100   3.269   0.640 -1.7919  0.1267 -0.8741
 8320TIP3    H246376   4.128   3.131   0.695  1.7382  1.1829  0.2550
 8321TIP3   OH246377   3.292   3.383   4.715 -0.0962 -0.0913 -0.0598
 8321TIP3    H146378   3.260   3.433   4.640 -0.0850 -0.8889 -0.6149
 8321TIP3    H246379   3.296   3.293   4.683 -0.1794 -0.4603  0.9329
 8322TIP3   OH246380   3.029   4.075   5.078 -0.0030  0.0485 -0.3335
 8322TIP3    H146381   3.015   4.144   5.143  1.7403 -0.4334  0.6104
 8322TIP3    H246382   2.953   4.017   5.089 -1.1589  1.4308 -0.7054
 8323TIP3   OH246383   0.425   4.574  13.979 -0.1212  0.2829  0.9040
 8323TIP3    H146384   0.511   4.605  14.006 -0.0076  0.8992 -0.1011
 8323TIP3    H246385   0.439   4.483  13.953  0.3267  0.5121  0.3297
 8324TIP3   OH246386   5.036   1.088   1.508 -0.3685  0.2413 -0.6482
 8324TIP3    H146387   5.101   1.073   1.577 -1.5095 -0.9373  0.2126
 8324TIP3    H246388   5.043   1.012   1.451 -1.0119  0.0676 -0.5107
 8325TIP3   OH246389   1.504   2.075  11.282  0.0607 -0.5457  0.0576
 8325TIP3    H146390   1.448   2.119  11.346 -1.2310 -0.3352 -1.1556
 8325TIP3    H246391   1.576   2.137  11.267  0.3199 -0.5504  1.1866
 8326TIP3   OH246392   5.864   2.221  15.486  0.7400  0.1701  0.0495
 8326TIP3    H146393   5.854   2.296  15.544  0.5921 -0.6306  1.0806
 8326TIP3    H246394   5.784   2.222  15.432  0.5005  0.4428  0.4047
 8327TIP3   OH246395   6.417   4.303  11.416 -0.1580  0.0806  0.0542
 8327TIP3    H146396   6.342   4.338  11.368  0.7145 -0.5937 -1.9065
 8327TIP3    H246397   6.383   4.226  11.461 -0.6188 -0.3844 -1.0500
 8328TIP3   OH246398   0.575   3.612   1.003 -0.0734 -0.0675  0.2050
 8328TIP3    H146399   0.667   3.590   1.012 -0.2580 -2.1025 -1.9267
 8328TIP3    H246400   0.554   3.594   0.912 -2.8603 -0.8491  0.8810
 8329TIP3   OH246401   1.006   4.091   3.696  0.1343  0.2151 -0.4002
 8329TIP3    H146402   1.066   4.030   3.741  0.5586  0.5091 -0.5574
 8329TIP3    H246403   0.927   4.040   3.681  0.5387 -0.3540 -0.6620
 8330TIP3   OH246404   3.929   1.018  15.162  0.3697  0.1572 -0.6335
 8330TIP3    H146405   3.879   1.099  15.173  0.4601  0.1205  0.1225
 8330TIP3    H246406   3.952   0.992  15.252  0.1378 -0.8329 -0.8516
 8331TIP3   OH246407   1.881   2.615   0.840  0.7342 -0.5014  0.2992
 8331TIP3    H146408   1.893   2.690   0.781  0.3454 -0.8255 -0.1904
 8331TIP3    H246409   1.913   2.540   0.791 -1.9010 -1.1776 -0.5005
 8332TIP3   OH246410   4.816   6.650   4.595  0.1124 -0.0666  0.3503
 8332TIP3    H146411   4.839   6.578   4.655  0.4584 -0.1481  0.1275
 8332TIP3    H246412   4.877   6.639   4.522 -1.1235 -0.7420 -0.6277
 8333TIP3   OH246413   6.761   1.649   1.384 -0.1570  0.0110  0.4165
 8333TIP3    H146414   6.716   1.566   1.400  0.3577 -1.0744 -2.9582
 8333TIP3    H246415   6.854   1.624   1.378  0.2186  1.1728  1.0468
 8334TIP3   OH246416   4.935   2.199   2.975 -0.2285 -0.2486 -0.5932
 8334TIP3    H146417   5.001   2.174   3.040 -0.0413 -2.3124 -1.5113
 8334TIP3    H246418   4.864   2.137   2.989 -1.2046  0.7815 -0.8502
 8335TIP3   OH246419   4.439   4.660   2.482  0.2531 -0.3718 -0.2841
 8335TIP3    H146420   4.399   4.609   2.553  0.4091  0.6295  0.5610
 8335TIP3    H246421   4.527   4.680   2.514  0.7656 -0.9252 -1.2982
 8336TIP3   OH246422   6.327   1.238   4.878 -0.2993  0.0640 -0.0574
 8336TIP3    H146423   6.371   1.300   4.820  0.1966 -0.4754 -0.2639
 8336TIP3    H246424   6.336   1.277   4.965  1.1073 -0.3044 -0.0085
 8337TIP3   OH246425   6.270   5.454  15.376 -0.1921  0.6963  0.7418
 8337TIP3    H146426   6.180   5.435  15.401 -0.3164  0.4201  0.0989
 8337TIP3    H246427   6.268   5.463  15.281  0.8109 -1.4077  0.4662
 8338TIP3   OH246428   1.878   1.257  13.292  0.2353 -0.3095 -0.0649
 8338TIP3    H146429   1.860   1.172  13.333 -2.7819 -0.1552 -0.8862
 8338TIP3    H246430   1.893   1.236  13.200  2.4212 -0.1768  0.2075
 8339TIP3   OH246431   5.358   3.199  16.655 -0.4192 -0.1332  0.5389
 8339TIP3    H146432   5.313   3.118  16.630  0.2870 -0.8597  1.5599
 8339TIP3    H246433   5.447   3.171  16.679  0.1960  1.1021 -0.2035
 8340TIP3   OH246434   3.617   4.727   3.928  0.0591  0.6822 -0.0275
 8340TIP3    H146435   3.700   4.704   3.889  0.1761  0.3791  0.3874
 8340TIP3    H246436   3.559   4.744   3.854  0.3283  0.3202 -0.3233
 8341TIP3   OH246437   4.632   6.659  12.505  0.2780 -0.1192 -0.4028
 8341TIP3    H146438   4.593   6.605  12.574 -0.3039 -0.3314 -0.8920
 8341TIP3    H246439   4.568   6.657  12.434  1.0373 -0.2100 -1.0989
 8342TIP3   OH246440   5.317   1.086  16.389  0.5462  0.2168  0.0461
 8342TIP3    H146441   5.228   1.118  16.372  1.5330  2.1916 -1.9827
 8342TIP3    H246442   5.337   1.029  16.315  1.1276  0.1766  0.2269
 8343TIP3   OH246443   4.047   5.593  11.609  0.3109  0.3465 -0.1506
 8343TIP3    H146444   4.072   5.596  11.702  0.8179  0.9018 -0.3018
 8343TIP3    H246445   3.953   5.576  11.611  0.3716  0.0459  0.4609
 8344TIP3   OH246446   5.811   2.071   1.412 -0.8552  0.0841  0.0873
 8344TIP3    H146447   5.759   2.146   1.382  0.6691  0.7118 -1.1208
 8344TIP3    H246448   5.898   2.086   1.375 -0.4156 -2.1365  0.0948
 8345TIP3   OH246449   5.835   0.446  12.287  0.2959  0.4190  0.0368
 8345TIP3    H146450   5.762   0.401  12.243  1.1337 -1.0892  0.1150
 8345TIP3    H246451   5.797   0.481  12.367 -0.9583  2.0915 -1.2134
 8346TIP3   OH246452   0.999   3.403  11.162  0.1838 -0.4256 -0.4586
 8346TIP3    H146453   0.947   3.391  11.241 -3.0830  1.1845 -2.1495
 8346TIP3    H246454   1.084   3.434  11.194 -0.5090 -1.2016  2.4277
 8347TIP3   OH246455   5.622   1.923  16.177 -0.1065  0.1389  0.2107
 8347TIP3    H146456   5.633   1.925  16.082  0.9536 -2.6583  0.1766
 8347TIP3    H246457   5.529   1.937  16.190 -0.3137  0.3458 -1.2489
 8348TIP3   OH246458   4.526   4.273  13.180  0.5133  0.0271  0.2678
 8348TIP3    H146459   4.604   4.325  13.199 -0.1294  0.9797  0.4086
 8348TIP3    H246460   4.514   4.281  13.086  0.0807  0.6395  0.3691
 8349TIP3   OH246461   0.496   5.108   5.150 -0.0997  0.2915 -0.0265
 8349TIP3    H146462   0.572   5.058   5.119  0.5571  1.0762  0.2828
 8349TIP3    H246463   0.421   5.052   5.131  0.7385 -1.6515  1.9927
 8350TIP3   OH246464   2.917   5.885   4.130  0.2076 -0.2212 -0.0189
 8350TIP3    H146465   2.965   5.960   4.096 -1.7948  1.2920  0.3184
 8350TIP3    H246466   2.976   5.845   4.194  0.3313  2.8405  1.9933
 8351TIP3   OH246467   1.913   3.976   6.538  0.1988  0.2873  0.0181
 8351TIP3    H146468   1.949   4.046   6.593  0.9406 -0.6160  0.7157
 8351TIP3    H246469   1.925   3.896   6.590 -0.8898 -0.3339 -0.6355
 8352TIP3   OH246470   6.355   0.706   4.218  0.2507 -0.1515  0.0570
 8352TIP3    H146471   6.439   0.661   4.218 -0.1257 -1.0231 -2.3253
 8352TIP3    H246472   6.309   0.670   4.142 -0.9634  2.6676 -0.6653
 8353TIP3   OH246473   0.718   0.734  11.217  0.6247 -0.2473  0.7511
 8353TIP3    H146474   0.735   0.714  11.124 -0.1866 -1.2166  0.8022
 8353TIP3    H246475   0.805   0.729  11.258  1.2909  1.8882 -0.2184
 8354TIP3   OH246476   3.451   1.920   4.004  0.2605  0.5042 -0.5071
 8354TIP3    H146477   3.387   1.860   3.966  2.1773 -2.0572  0.0347
 8354TIP3    H246478   3.419   1.937   4.093  0.5943 -1.2986 -0.0056
 8355TIP3   OH246479   0.600   6.182  12.071  0.9448  0.0595  0.0719
 8355TIP3    H146480   0.575   6.274  12.062 -2.9608 -0.9963 -1.9885
 8355TIP3    H246481   0.638   6.160  11.986  0.5576 -0.5753  0.0608
 8356TIP3   OH246482   2.481   6.240  15.406  0.6190  0.7744  0.3775
 8356TIP3    H146483   2.524   6.319  15.375  0.1584  0.4699 -1.0931
 8356TIP3    H246484   2.497   6.240  15.501  3.7141  0.7488 -0.0425
 8357TIP3   OH246485   1.099   0.922   1.290 -0.5469 -0.3296 -0.3234
 8357TIP3    H146486   1.073   0.832   1.308 -0.0175 -0.3112  0.6460
 8357TIP3    H246487   1.038   0.976   1.341 -0.8786 -0.1306 -0.9196
 8358TIP3   OH246488   4.175   6.183  14.641  0.0605  0.2080 -0.4483
 8358TIP3    H146489   4.202   6.122  14.572 -0.0135  1.9830 -2.1173
 8358TIP3    H246490   4.257   6.213  14.680  0.1594  0.1451 -0.6057
 8359TIP3   OH246491   3.662   5.505   6.374  0.3897  0.5998 -0.2157
 8359TIP3    H146492   3.594   5.490   6.309  0.1865 -3.0763  0.6600
 8359TIP3    H246493   3.741   5.465   6.336 -0.0424 -2.9192  2.1503
 8360TIP3   OH246494   1.789   4.842   5.280  0.4228 -0.3073  0.7868
 8360TIP3    H146495   1.697   4.840   5.254  0.3948 -2.9304  0.7723
 8360TIP3    H246496   1.787   4.856   5.374  0.0850  0.6755  0.6453
 8361TIP3   OH246497   5.163   2.911  16.766  0.1017  0.4744  0.0493
 8361TIP3    H146498   5.136   2.917  16.858 -2.1137 -2.4265 -0.2643
 8361TIP3    H246499   5.234   2.847  16.766  0.6583  1.0811 -0.2035
 8362TIP3   OH246500   2.654   5.690  12.140 -0.1143 -0.0040  0.0337
 8362TIP3    H146501   2.628   5.610  12.093 -0.2139 -0.2242  0.4569
 8362TIP3    H246502   2.593   5.757  12.108  0.7020  0.1894 -1.1818
 8363TIP3   OH246503   4.650   4.893  14.801 -0.7569  0.0193  0.5921
 8363TIP3    H146504   4.662   4.940  14.884 -1.4611 -1.6350  1.6789
 8363TIP3    H246505   4.625   4.961  14.739  2.3881  1.7705  1.0016
 8364TIP3   OH246506   3.480   4.190  16.799  0.1309  0.3587 -0.2516
 8364TIP3    H146507   3.573   4.172  16.815  0.4829  0.2847 -2.1361
 8364TIP3    H246508   3.467   4.279  16.832  0.1249 -0.6074  2.6007
 8365TIP3   OH246509   6.287   5.744   5.438  0.0359 -0.3846  0.3634
 8365TIP3    H146510   6.322   5.716   5.353  3.9506  1.8899  0.9665
 8365TIP3    H246511   6.325   5.682   5.501 -4.2952 -3.2069  0.5790
 8366TIP3   OH246512   2.285   0.579  16.199  0.7056 -0.4481  0.1376
 8366TIP3    H146513   2.320   0.491  16.218  2.4900  0.4067  1.0802
 8366TIP3    H246514   2.190   0.566  16.195  0.7389 -2.0826  2.3194
 8367TIP3   OH246515   3.523   2.886  11.622  0.0235  0.1408 -0.2544
 8367TIP3    H146516   3.493   2.977  11.624 -3.1504 -0.7418 -1.5078
 8367TIP3    H246517   3.543   2.869  11.530  0.4762 -0.4942 -0.0460
 8368TIP3   OH246518   0.284   4.228   1.581  0.0274  0.1227 -0.5629
 8368TIP3    H146519   0.360   4.241   1.524 -0.5734 -0.7909 -1.6164
 8368TIP3    H246520   0.219   4.187   1.524 -0.8947 -0.0424  0.5847
 8369TIP3   OH246521   2.066   1.251  13.829  0.2901 -0.2243 -0.4282
 8369TIP3    H146522   2.041   1.276  13.740  0.1836 -0.1739 -0.3841
 8369TIP3    H246523   2.096   1.333  13.869 -3.6925  0.7610  0.9830
 8370TIP3   OH246524   0.603   5.140  15.063 -0.2321 -0.9249 -0.1481
 8370TIP3    H146525   0.508   5.150  15.058 -0.3439 -2.0900 -0.7784
 8370TIP3    H246526   0.637   5.185  14.986 -0.4075 -1.7668 -0.7356
 8371TIP3   OH246527   5.363   6.676  11.988  0.2993 -0.3013 -0.0516
 8371TIP3    H146528   5.339   6.699  11.898 -1.3233  2.2109  0.9149
 8371TIP3    H246529   5.296   6.614  12.015  0.1313 -0.1934 -0.2160
 8372TIP3   OH246530   4.485   1.368  13.027 -0.1936  0.5746  0.1747
 8372TIP3    H146531   4.464   1.462  13.025 -1.4411  0.3435  1.0942
 8372TIP3    H246532   4.452   1.338  13.112  1.2220 -0.4813  0.3819
 8373TIP3   OH246533   0.597   3.308  13.039 -0.2126 -0.5111  0.2064
 8373TIP3    H146534   0.624   3.394  13.070 -0.2153 -0.5481  0.3137
 8373TIP3    H246535   0.515   3.323  12.992  0.0960 -0.3704 -0.2910
 8374TIP3   OH246536   2.311   6.134   3.364 -0.1288 -0.0315 -0.0301
 8374TIP3    H146537   2.302   6.197   3.435 -0.3406  2.0922 -1.8436
 8374TIP3    H246538   2.396   6.092   3.379 -0.0689  0.5396  1.3224
 8375TIP3   OH246539   3.504   5.461  12.985 -0.1662 -0.0324 -0.0517
 8375TIP3    H146540   3.478   5.406  12.911 -0.8198 -0.9943  0.8660
 8375TIP3    H246541   3.466   5.418  13.062  0.8298  0.7201  0.8993
 8376TIP3   OH246542   4.425   4.389  16.806 -0.3104 -0.2654  0.0401
 8376TIP3    H146543   4.475   4.465  16.776  0.3949 -0.7419 -0.0096
 8376TIP3    H246544   4.407   4.340  16.726  0.6538 -0.9908  0.2567
 8377TIP3   OH246545   3.969   2.818   1.689  0.4263 -0.1545 -0.0683
 8377TIP3    H146546   3.941   2.900   1.648 -1.1288  1.0282  3.0042
 8377TIP3    H246547   4.014   2.845   1.769  2.1486 -2.3246 -0.1913
 8378TIP3   OH246548   1.135   6.456  16.209 -0.0053  0.1739 -0.2380
 8378TIP3    H146549   1.134   6.486  16.118 -0.6097 -0.3660 -0.4205
 8378TIP3    H246550   1.103   6.365  16.204 -0.4630  0.2863  0.5528
 8379TIP3   OH246551   4.129   3.655   6.154  0.1283 -0.3633 -0.3898
 8379TIP3    H146552   4.167   3.574   6.188  1.4302  0.1125 -0.6261
 8379TIP3    H246553   4.191   3.684   6.087  0.6512  1.7176  0.8742
 8380TIP3   OH246554   6.185   3.750  15.815 -0.3715  0.0256 -0.1795
 8380TIP3    H146555   6.262   3.730  15.761  1.3110 -1.3344  2.4957
 8380TIP3    H246556   6.204   3.837  15.852  1.2395 -1.2675  2.3711
 8381TIP3   OH246557   2.135   4.646  11.012  0.0791  0.6935 -0.2363
 8381TIP3    H146558   2.140   4.682  10.924  0.9082  0.0565 -0.4627
 8381TIP3    H246559   2.064   4.695  11.054 -0.0776  1.2568 -1.1319
 8382TIP3   OH246560   4.258   4.744   2.819 -0.2833  0.5927  0.6173
 8382TIP3    H146561   4.306   4.675   2.774 -1.5083 -0.9521  1.5682
 8382TIP3    H246562   4.240   4.708   2.906 -1.3521  1.9225  0.9872
 8383TIP3   OH246563   3.417   4.728  15.385 -0.3140 -0.6906  0.1469
 8383TIP3    H146564   3.417   4.634  15.366 -2.3563 -0.5621 -0.8160
 8383TIP3    H246565   3.345   4.762  15.332  0.2487  1.3918  0.6565
 8384TIP3   OH246566   2.598   1.342  14.431  0.7223 -0.0681 -0.7939
 8384TIP3    H146567   2.678   1.359  14.380  0.8883  0.5241 -0.3521
 8384TIP3    H246568   2.612   1.255  14.469  1.2195  0.0842 -0.6156
 8385TIP3   OH246569   3.953   6.722   3.264  0.4947  0.0685  0.1318
 8385TIP3    H146570   3.978   6.632   3.288 -2.2138 -0.7437  0.2601
 8385TIP3    H246571   3.916   6.758   3.345  0.8412  1.0311 -0.1342
 8386TIP3   OH246572   1.773   1.110   5.117 -0.2152 -0.1971 -0.0022
 8386TIP3    H146573   1.702   1.128   5.179  0.1058 -0.6295  0.5042
 8386TIP3    H246574   1.794   1.017   5.131  0.2855 -0.1352 -0.3159
 8387TIP3   OH246575   2.407   5.840   3.831 -0.3691  0.7359  1.0516
 8387TIP3    H146576   2.351   5.763   3.841 -0.1078  0.4586  0.4121
 8387TIP3    H246577   2.463   5.819   3.757  0.8440  0.8558  1.9069
 8388TIP3   OH246578   1.858   5.121  16.578 -1.0075 -0.0991  0.1049
 8388TIP3    H146579   1.911   5.200  16.583  0.4594 -0.9537 -1.0773
 8388TIP3    H246580   1.857   5.087  16.668 -0.8968  0.7745  0.4376
 8389TIP3   OH246581   1.451   0.560  15.193 -0.0086  0.3509 -0.0088
 8389TIP3    H146582   1.379   0.566  15.256  0.7832 -0.9072  1.0827
 8389TIP3    H246583   1.496   0.644  15.199 -0.5776  0.6360  0.3041
 8390TIP3   OH246584   3.147   0.504   5.207 -0.4519  0.4359  0.0167
 8390TIP3    H146585   3.088   0.439   5.244  0.7176 -0.7374 -0.1165
 8390TIP3    H246586   3.234   0.477   5.236  0.2403  0.9308 -1.4924
 8391TIP3   OH246587   5.136   3.173   0.637  1.4254 -0.2184  0.2474
 8391TIP3    H146588   5.076   3.108   0.675 -0.8926  1.6807  0.1142
 8391TIP3    H246589   5.201   3.121   0.590 -0.5564 -2.4566 -0.2306
 8392TIP3   OH246590   5.291   5.367   5.194 -0.2728 -0.3799  0.0468
 8392TIP3    H146591   5.228   5.368   5.122  0.3284  1.3457 -0.4933
 8392TIP3    H246592   5.244   5.325   5.266 -3.0181  3.0283  0.4715
 8393TIP3   OH246593   6.367   1.089   1.053 -0.6151 -0.1316 -0.5082
 8393TIP3    H146594   6.341   0.997   1.055 -0.1933 -0.2925 -1.7543
 8393TIP3    H246595   6.456   1.089   1.020  0.4818  0.5528  2.1294
 8394TIP3   OH246596   0.577   6.047  11.230 -0.3984 -0.1347  0.5597
 8394TIP3    H146597   0.577   6.029  11.324  0.1360  0.5273  0.6919
 8394TIP3    H246598   0.551   5.964  11.190 -1.6145 -0.1517  1.3372
 8395TIP3   OH246599   4.072   5.831  16.363  0.1850 -0.0145 -0.4230
 8395TIP3    H146600   4.135   5.814  16.433 -0.9309 -0.7609  0.4435
 8395TIP3    H246601   4.032   5.746  16.345 -0.3338  0.3743 -1.1935
 8396TIP3   OH246602   1.649   4.833   2.333 -0.5555  0.0497 -0.3881
 8396TIP3    H146603   1.591   4.772   2.288  0.6062 -0.7193 -0.8857
 8396TIP3    H246604   1.704   4.870   2.264  0.3155 -0.1031  0.2031
 8397TIP3   OH246605   2.535   3.064   0.301  0.5311  0.6673  0.7295
 8397TIP3    H146606   2.485   2.986   0.325 -1.0303  1.9876  2.0026
 8397TIP3    H246607   2.616   3.057   0.352  0.2971  0.0194  1.0266
 8398TIP3   OH246608   4.663   2.711  13.075 -0.8635 -0.1292  0.1864
 8398TIP3    H146609   4.743   2.744  13.034 -0.6164 -0.9818 -0.0492
 8398TIP3    H246610   4.667   2.616  13.062 -1.0350 -0.3761  1.7326
 8399TIP3   OH246611   4.950   6.200  15.744  0.2607 -0.0874  0.3449
 8399TIP3    H146612   4.955   6.271  15.808  0.4561  1.5001 -1.3413
 8399TIP3    H246613   5.039   6.166  15.739  0.4087  0.2896  0.3663
 8400TIP3   OH246614   2.299   0.202   4.258 -0.2831 -0.5308 -1.0351
 8400TIP3    H146615   2.241   0.207   4.182 -3.1150  1.1096  1.0576
 8400TIP3    H246616   2.253   0.146   4.320  1.1221 -0.4334  0.1519
 8401TIP3   OH246617   2.934   0.184   4.904  0.1078  0.2570 -0.1700
 8401TIP3    H146618   2.989   0.213   4.977  0.2385  1.1132 -0.5909
 8401TIP3    H246619   2.970   0.230   4.828  0.1051 -0.7830 -0.8116
 8402TIP3   OH246620   5.191   4.408  16.358  1.0619 -0.2252 -0.1318
 8402TIP3    H146621   5.231   4.326  16.386  2.0762 -0.4301 -1.9822
 8402TIP3    H246622   5.235   4.476  16.409 -1.2004 -0.8382  2.9383
 8403TIP3   OH246623   5.249   3.986  13.293  0.4051 -0.1061 -0.0753
 8403TIP3    H146624   5.256   3.911  13.235  0.5662 -0.6746  0.6675
 8403TIP3    H246625   5.225   3.949  13.378 -0.2270  0.7479  0.1339
 8404TIP3   OH246626   5.039   0.992   3.973  0.4334 -0.0864 -0.0258
 8404TIP3    H146627   4.993   1.003   3.890  0.8391  0.6492 -0.1676
 8404TIP3    H246628   5.130   1.013   3.953  0.4609  0.5292  0.6903
 8405TIP3   OH246629   1.977   3.496  15.032 -0.6731 -0.0290 -0.1667
 8405TIP3    H146630   1.944   3.439  15.101  0.8371  0.2815  0.8763
 8405TIP3    H246631   1.943   3.583  15.053 -1.7994 -0.2665 -0.9404
 8406TIP3   OH246632   2.260   1.922  12.953  0.2792 -0.8308  0.1713
 8406TIP3    H146633   2.301   2.008  12.960 -1.0565  0.0624 -2.0993
 8406TIP3    H246634   2.202   1.917  13.030 -0.9298  1.0812 -0.5287
 8407TIP3   OH246635   2.888   4.841   0.433  0.2585 -0.3686  0.6865
 8407TIP3    H146636   2.846   4.903   0.493  0.0821  0.5485 -0.3541
 8407TIP3    H246637   2.981   4.867   0.433 -0.0065  0.6841 -0.6353
 8408TIP3   OH246638   3.672   5.987  16.622  0.0036 -0.0531 -0.4834
 8408TIP3    H146639   3.703   5.911  16.671  1.2129 -0.0066 -1.1625
 8408TIP3    H246640   3.749   6.042  16.612 -0.8492  1.2803 -0.0118
 8409TIP3   OH246641   6.316   4.074   1.894  0.2343  0.5819 -0.2166
 8409TIP3    H146642   6.406   4.077   1.926 -0.3918  0.8924  1.5856
 8409TIP3    H246643   6.265   4.041   1.968 -1.3348  1.6977 -0.7581
 8410TIP3   OH246644   6.097   0.929   6.440 -0.0936  0.3499  0.4411
 8410TIP3    H146645   6.148   0.971   6.370  0.6817  2.6790  2.2773
 8410TIP3    H246646   6.016   0.979   6.445 -0.4838 -0.2978  0.6955
 8411TIP3   OH246647   3.516   0.818  15.561 -0.3497 -0.4833 -0.0397
 8411TIP3    H146648   3.540   0.894  15.613 -1.3566 -1.3798  1.8018
 8411TIP3    H246649   3.468   0.854  15.487 -1.6317  0.6358  1.2846
 8412TIP3   OH246650   3.485   6.683   0.223 -0.5115  0.0203  0.3188
 8412TIP3    H146651   3.523   6.624   0.158 -0.7589  0.6085 -0.3742
 8412TIP3    H246652   3.396   6.651   0.235 -0.3684 -0.2754  0.6019
 8413TIP3   OH246653   4.670   0.510  13.646  0.6138  0.0454  0.4158
 8413TIP3    H146654   4.673   0.594  13.601 -0.7617  0.3101  0.7695
 8413TIP3    H246655   4.643   0.531  13.735  1.0749 -0.6994  0.7416
 8414TIP3   OH246656   2.846   6.424   1.858 -0.0943 -0.1451 -0.7795
 8414TIP3    H146657   2.781   6.469   1.805 -0.3137 -1.5383 -1.7441
 8414TIP3    H246658   2.923   6.418   1.802 -0.0529 -0.8949 -0.6580
 8415TIP3   OH246659   0.926   4.906  13.462  0.4351  0.1839  0.0465
 8415TIP3    H146660   0.875   4.984  13.482  0.9108  0.4261  0.3255
 8415TIP3    H246661   0.926   4.856  13.544 -0.5661 -0.5130 -0.3662
 8416TIP3   OH246662   1.883   0.594   0.645 -0.1611 -0.0843 -0.1629
 8416TIP3    H146663   1.968   0.568   0.608 -0.2981 -0.8861  0.0611
 8416TIP3    H246664   1.902   0.612   0.737 -0.4747 -1.7270  0.2660
 8417TIP3   OH246665   6.243   1.613   0.420 -0.1261  0.1405 -0.0066
 8417TIP3    H146666   6.319   1.571   0.460 -0.1007 -0.9535 -1.1311
 8417TIP3    H246667   6.279   1.660   0.344 -0.6515 -1.1528 -1.0978
 8418TIP3   OH246668   6.755   2.029  16.393 -0.2192 -0.3722 -0.2705
 8418TIP3    H146669   6.715   2.082  16.324 -0.2646 -0.3116 -0.1981
 8418TIP3    H246670   6.817   1.972  16.347 -0.2931 -0.3738 -0.3676
 8419TIP3   OH246671   1.991   0.585   2.173 -0.4876  0.5920  0.4792
 8419TIP3    H146672   2.063   0.645   2.152 -0.0065  0.3956  1.5197
 8419TIP3    H246673   1.915   0.622   2.127  0.2531  0.8275 -0.6073
 8420TIP3   OH246674   1.856   1.128  13.009 -0.2961 -0.0266  0.2058
 8420TIP3    H146675   1.901   1.159  12.930 -0.7584 -0.0060 -0.0509
 8420TIP3    H246676   1.877   1.034  13.012 -0.4837 -0.0820 -0.0869
 8421TIP3   OH246677   4.131   2.910   2.144 -0.2910 -0.0908 -0.1975
 8421TIP3    H146678   4.195   2.966   2.189 -0.8359 -0.0791  0.5795
 8421TIP3    H246679   4.157   2.913   2.052 -0.1991  1.3010 -0.1423
 8422TIP3   OH246680   3.530   4.589   1.585  0.1293  0.8556 -0.1524
 8422TIP3    H146681   3.451   4.550   1.547  0.9785 -0.8327 -0.3202
 8422TIP3    H246682   3.557   4.527   1.653  0.5193  2.1328  0.8828
 8423TIP3   OH246683   4.567   1.850   1.940  0.4888 -0.2988 -0.6055
 8423TIP3    H146684   4.477   1.868   1.967  1.2630  1.0546  1.2469
 8423TIP3    H246685   4.560   1.773   1.884 -1.6343 -1.3863  1.0036
 8424TIP3   OH246686   0.092   0.296  10.571 -0.1103 -0.0852 -0.0502
 8424TIP3    H146687   0.151   0.250  10.632 -0.9014 -0.3339  0.5352
 8424TIP3    H246688   0.090   0.240  10.493  0.2612 -0.1794  0.0026
 8425TIP3   OH246689   0.276   2.531   0.505  0.4546  0.3785  0.2239
 8425TIP3    H146690   0.350   2.582   0.472 -0.2648  0.1166 -2.0043
 8425TIP3    H246691   0.233   2.589   0.568  1.3184  1.3814 -0.0766
 8426TIP3   OH246692   2.229   2.950   3.225 -0.3073  0.1520  0.5454
 8426TIP3    H146693   2.173   3.025   3.203  1.4917  1.4875  0.3105
 8426TIP3    H246694   2.306   2.961   3.170  0.1736 -1.6920  0.7991
 8427TIP3   OH246695   5.362   3.740  13.985 -0.1629  0.3447  0.2593
 8427TIP3    H146696   5.278   3.736  14.031 -0.7291  0.8990 -0.7004
 8427TIP3    H246697   5.392   3.830  13.997 -0.6910  0.7120 -1.0851
 8428TIP3   OH246698   0.740   0.967  14.064 -0.1414  0.0165  0.3651
 8428TIP3    H146699   0.804   1.038  14.056 -0.5344  0.2228 -1.2932
 8428TIP3    H246700   0.676   1.000  14.127 -1.0172  1.7283 -1.3396
 8429TIP3   OH246701   1.445   5.328  12.985 -0.4864 -0.4297 -0.2381
 8429TIP3    H146702   1.391   5.399  13.018 -0.3996 -0.8473  0.8365
 8429TIP3    H246703   1.459   5.349  12.893 -0.4918  0.9115  0.0557
 8430TIP3   OH246704   4.197   4.974   6.077 -0.1291 -0.4013 -0.2059
 8430TIP3    H146705   4.162   4.992   6.164  0.6797 -3.8375  0.9934
 8430TIP3    H246706   4.130   5.006   6.017 -2.5288 -1.3534  1.8032
 8431TIP3   OH246707   4.239   3.134   3.395 -0.5286 -0.3123 -0.5505
 8431TIP3    H146708   4.224   3.044   3.364  0.2081 -1.3070  1.7994
 8431TIP3    H246709   4.152   3.165   3.418 -0.8052 -0.3426 -1.4909
 8432TIP3   OH246710   0.847   5.192   0.366  0.3741  0.1358 -0.1412
 8432TIP3    H146711   0.807   5.170   0.281 -0.0384  3.3766 -0.9291
 8432TIP3    H246712   0.916   5.127   0.377  0.2186 -0.6158 -2.8152
 8433TIP3   OH246713   6.536   6.622  14.932 -0.1316  0.0021 -0.4836
 8433TIP3    H146714   6.473   6.685  14.895 -0.4592  0.8660  1.4200
 8433TIP3    H246715   6.615   6.634  14.880 -0.8271  0.5292 -1.4614
 8434TIP3   OH246716   4.252   3.002  14.445  0.5303 -0.1485  0.6783
 8434TIP3    H146717   4.283   3.054  14.371  0.3982 -0.5654  0.3290
 8434TIP3    H246718   4.322   3.010  14.511  1.4580 -1.1839 -0.1456
 8435TIP3   OH246719   1.502   5.853   0.113 -0.2428 -0.3100  0.4758
 8435TIP3    H146720   1.461   5.871   0.029  0.9621 -0.5952 -0.1919
 8435TIP3    H246721   1.477   5.762   0.133  1.7856 -1.2603 -0.9969
 8436TIP3   OH246722   3.001   4.452  14.619  0.3722  0.3555 -0.0623
 8436TIP3    H146723   3.080   4.491  14.581  0.0061  1.7788  0.5751
 8436TIP3    H246724   3.034   4.394  14.688  0.9206 -0.4719 -0.9870
 8437TIP3   OH246725   5.218   4.787   6.087 -0.1610  0.4905 -0.0734
 8437TIP3    H146726   5.201   4.845   6.161  0.7749  0.7935 -0.0698
 8437TIP3    H246727   5.313   4.791   6.076  0.0918 -2.0598  0.7227
 8438TIP3   OH246728   1.400   5.753   5.839 -0.7365 -0.0921 -0.2853
 8438TIP3    H146729   1.439   5.827   5.885  1.6425 -0.5176 -1.4766
 8438TIP3    H246730   1.374   5.693   5.908  1.1597  0.0479  0.6051
 8439TIP3   OH246731   1.003   1.612  13.843  0.6698 -0.1517  0.0805
 8439TIP3    H146732   0.950   1.554  13.788 -0.1169  1.6477 -1.1724
 8439TIP3    H246733   1.093   1.596  13.815  0.3716 -0.0596 -0.9760
 8440TIP3   OH246734   0.285   6.779  12.265 -0.6553  0.9566  0.2680
 8440TIP3    H146735   0.334   6.731  12.331 -1.5036 -0.8400 -0.3495
 8440TIP3    H246736   0.210   6.815  12.312  0.3735  2.3998  0.8902
 8441TIP3   OH246737   6.673   2.635  11.893 -0.3666  0.4215  0.2420
 8441TIP3    H146738   6.751   2.627  11.838 -0.2876  2.0863  0.0659
 8441TIP3    H246739   6.612   2.570  11.859  0.6960 -0.4556 -0.0327
 8442TIP3   OH246740   5.080   1.929   2.291 -0.2209 -0.1730 -0.4356
 8442TIP3    H146741   5.007   1.988   2.307 -1.8829 -1.3418 -2.9849
 8442TIP3    H246742   5.119   1.962   2.210  0.8095 -0.7584 -0.1909
 8443TIP3   OH246743   2.648   0.843  12.763 -0.0168  0.2647 -0.0613
 8443TIP3    H146744   2.643   0.748  12.779 -1.2427 -0.0825 -2.1186
 8443TIP3    H246745   2.740   0.858  12.739  0.2026 -0.3942  0.3256
 8444TIP3   OH246746   1.986   3.815  11.599  0.5059  0.0710 -0.6437
 8444TIP3    H146747   1.995   3.735  11.650  0.5608  1.0004  0.8613
 8444TIP3    H246748   1.909   3.801  11.544  0.8225 -1.1958 -0.7840
 8445TIP3   OH246749   5.424   3.132  14.397  0.5589 -0.0113  0.0036
 8445TIP3    H146750   5.364   3.190  14.350 -1.5502 -0.5930  1.8426
 8445TIP3    H246751   5.386   3.124  14.484  1.7306 -2.7732  0.3490
 8446TIP3   OH246752   0.179   3.261   1.760 -0.0534  0.1107 -0.0756
 8446TIP3    H146753   0.176   3.226   1.671 -1.3324 -0.3388  0.1272
 8446TIP3    H246754   0.088   3.257   1.790  0.2945  0.6910  1.0853
 8447TIP3   OH246755   3.784   5.874  15.805 -0.0517 -0.2114 -0.2616
 8447TIP3    H146756   3.712   5.846  15.862  0.4743  0.1019  0.5729
 8447TIP3    H246757   3.861   5.875  15.862  0.1382  1.9730 -0.4476
 8448TIP3   OH246758   1.700   4.977   1.851 -0.0832  0.0091 -0.4703
 8448TIP3    H146759   1.708   5.067   1.817 -0.5849  0.3792  0.3451
 8448TIP3    H246760   1.605   4.960   1.850 -0.0024 -0.4547 -0.4720
 8449TIP3   OH246761   6.591   6.395  15.662  0.6213 -0.2177  0.7429
 8449TIP3    H146762   6.631   6.310  15.684  0.0587 -0.3857  1.1336
 8449TIP3    H246763   6.501   6.388  15.694 -0.0088 -0.1764 -0.9288
 8450TIP3   OH246764   0.105   4.890  13.565  0.6430 -0.3147 -0.4528
 8450TIP3    H146765   0.087   4.983  13.555  0.6099 -0.3341 -0.5904
 8450TIP3    H246766   0.141   4.881  13.653  1.1086 -0.1020 -0.6215
 8451TIP3   OH246767   1.006   4.497   6.202  0.1695  0.7036 -0.3127
 8451TIP3    H146768   0.951   4.447   6.262  0.4667  1.5335  0.6860
 8451TIP3    H246769   0.944   4.540   6.143 -0.1355  0.0110 -0.5064
 8452TIP3   OH246770   6.177   3.552   4.848 -0.5160 -0.9973  0.2662
 8452TIP3    H146771   6.252   3.535   4.791  2.4033  1.8369  2.9236
 8452TIP3    H246772   6.162   3.646   4.841 -2.6419 -1.1930  1.2971
 8453TIP3   OH246773   3.059   1.355   2.322 -0.3487 -0.1961  0.6123
 8453TIP3    H146774   3.061   1.349   2.227  1.0763  0.3017  0.5963
 8453TIP3    H246775   2.994   1.424   2.340 -0.4456 -0.1201 -0.0084
 8454TIP3   OH246776   0.269   0.700  13.934  0.2026 -0.3993  0.2659
 8454TIP3    H146777   0.325   0.770  13.967  0.5549 -0.2705 -0.5857
 8454TIP3    H246778   0.185   0.742  13.917  0.7051  0.0829 -1.2243
 8455TIP3   OH246779   0.564   0.025  15.159 -0.1199 -0.6927 -0.0570
 8455TIP3    H146780   0.636   0.016  15.221  2.2739 -1.6424 -2.7885
 8455TIP3    H246781   0.589   0.100  15.105 -1.3472 -0.8655 -0.8935
 8456TIP3   OH246782   5.792   1.268   0.607 -0.1601  0.0791 -0.2197
 8456TIP3    H146783   5.844   1.348   0.601 -0.3960  0.2618  0.1594
 8456TIP3    H246784   5.701   1.297   0.596 -0.3502  0.0275  1.0696
 8457TIP3   OH246785   5.676   5.727  15.165  0.5606  0.4331 -0.2182
 8457TIP3    H146786   5.699   5.786  15.094  0.7731  0.3634 -0.2063
 8457TIP3    H246787   5.627   5.656  15.123 -0.0810  0.8393 -0.1718
 8458TIP3   OH246788   5.917   6.599   1.325  0.0710  0.4701  0.1760
 8458TIP3    H146789   5.871   6.515   1.333 -1.6690  1.3381 -0.2027
 8458TIP3    H246790   5.915   6.635   1.414  1.9449 -0.3941  0.6231
 8459TIP3   OH246791   2.769   2.128  15.377 -0.1570 -0.4475 -0.4403
 8459TIP3    H146792   2.853   2.164  15.351 -1.7866  1.7866 -3.1317
 8459TIP3    H246793   2.755   2.162  15.466  0.9126  0.8218 -0.7261
 8460TIP3   OH246794   3.492   4.133   0.098 -0.4701 -0.4453 -0.2531
 8460TIP3    H146795   3.563   4.152   0.160 -1.2314  2.4126 -0.1281
 8460TIP3    H246796   3.460   4.219   0.070 -1.1633 -1.6177 -3.5206
 8461TIP3   OH246797   3.818   4.761  16.354  0.2504 -0.4706  0.6859
 8461TIP3    H146798   3.731   4.796  16.337 -0.4662 -2.5397 -0.2143
 8461TIP3    H246799   3.877   4.833  16.334 -1.1452  0.2837 -0.9320
 8462TIP3   OH246800   6.532   2.624  15.123 -0.3263  0.6918 -0.1227
 8462TIP3    H146801   6.615   2.584  15.097 -0.4766 -0.7860  1.4756
 8462TIP3    H246802   6.549   2.658  15.211 -0.8545  2.2469 -0.5934
 8463TIP3   OH246803   4.036   0.966   0.327  0.1386 -0.4057  0.8300
 8463TIP3    H146804   4.038   0.880   0.370  0.5532 -1.0816 -0.4651
 8463TIP3    H246805   4.110   1.013   0.363  0.6324 -1.0542  0.6906
 8464TIP3   OH246806   5.270   1.338  14.987  0.0395 -0.1310  0.6105
 8464TIP3    H146807   5.214   1.379  14.920  0.0728  0.4269  0.9136
 8464TIP3    H246808   5.352   1.320  14.941 -0.2423 -0.5787  0.2696
 8465TIP3   OH246809   5.900   6.383  10.843 -0.2989 -0.4825 -0.1413
 8465TIP3    H146810   5.927   6.459  10.791 -1.5621 -0.1436 -0.3322
 8465TIP3    H246811   5.842   6.333  10.785  0.0671 -1.3029  0.1802
 8466TIP3   OH246812   1.058   0.676   4.797  0.2856  0.0024 -0.1585
 8466TIP3    H146813   1.096   0.685   4.884 -0.5520 -2.5807  0.5465
 8466TIP3    H246814   0.967   0.650   4.812 -0.0116 -0.0354 -1.8073
 8467TIP3   OH246815   5.621   2.413   4.433  0.0629 -0.0596 -0.7103
 8467TIP3    H146816   5.618   2.496   4.481 -1.4409  0.0753 -0.9797
 8467TIP3    H246817   5.596   2.347   4.499 -0.7442 -0.0329 -0.9817
 8468TIP3   OH246818   2.654   6.247  10.197  0.1007  0.9585  0.0096
 8468TIP3    H146819   2.690   6.159  10.205  1.0755  1.2097 -1.2360
 8468TIP3    H246820   2.560   6.237  10.207  0.1630 -0.2887 -0.5739
 8469TIP3   OH246821   3.600   6.223   0.366 -0.1537  0.2248  0.0080
 8469TIP3    H146822   3.657   6.296   0.390  0.3088  0.0646 -0.5664
 8469TIP3    H246823   3.646   6.180   0.294 -0.3382 -0.7334  0.4489
 8470TIP3   OH246824   0.263   5.312   2.779  0.3928 -0.1902 -0.3762
 8470TIP3    H146825   0.342   5.326   2.832  0.8573  1.2368 -1.3849
 8470TIP3    H246826   0.191   5.318   2.842  1.0151 -0.3095  0.3702
 8471TIP3   OH246827   5.692   6.550   6.536 -0.2234 -0.1692 -0.3041
 8471TIP3    H146828   5.601   6.522   6.549 -0.5412  0.4658 -1.0538
 8471TIP3    H246829   5.711   6.528   6.445  0.5910 -0.8611  0.0250
 8472TIP3   OH246830   6.276   0.512  14.137 -0.4404 -0.6649 -0.2360
 8472TIP3    H146831   6.273   0.581  14.203 -1.6659  0.5852 -1.5333
 8472TIP3    H246832   6.229   0.439  14.176 -2.1855  0.4688 -0.1300
 8473TIP3   OH246833   5.917   3.618   5.166  0.5458 -0.2374  0.1224
 8473TIP3    H146834   5.978   3.649   5.099 -0.4089  1.0074 -0.2138
 8473TIP3    H246835   5.907   3.525   5.149  1.2983 -0.1834 -0.6734
 8474TIP3   OH246836   5.041   5.128  12.446 -0.1385 -0.0757 -0.5209
 8474TIP3    H146837   4.988   5.123  12.366 -0.8430  2.7664 -0.3275
 8474TIP3    H246838   5.008   5.056  12.501  0.7636 -2.4976 -2.8915
 8475TIP3   OH246839   6.315   1.514  11.091  0.5523  0.5566  0.0011
 8475TIP3    H146840   6.372   1.557  11.155 -0.7372 -0.0644  1.6354
 8475TIP3    H246841   6.228   1.553  11.106  0.4542  1.4475 -2.3893
 8476TIP3   OH246842   6.179   1.783   3.093  0.3852  0.0383 -0.2817
 8476TIP3    H146843   6.193   1.843   3.167  1.9344 -0.8545  0.1887
 8476TIP3    H246844   6.227   1.822   3.021 -0.4391  0.4741 -0.6160
 8477TIP3   OH246845   4.984   3.070   4.422  0.1046 -0.0473 -0.1380
 8477TIP3    H146846   4.945   2.985   4.399  1.1935 -1.2211  2.0379
 8477TIP3    H246847   5.076   3.049   4.441  0.9389  2.0147 -1.5931
 8478TIP3   OH246848   2.686   0.963  12.157 -0.3698 -0.3626  0.2727
 8478TIP3    H146849   2.629   0.920  12.221 -0.7030  0.0682  0.2729
 8478TIP3    H246850   2.771   0.968  12.199 -0.0629 -1.9207 -0.1133
 8479TIP3   OH246851   4.144   1.860  17.001 -0.2767  0.2252  1.0115
 8479TIP3    H146852   4.145   1.873  17.096  0.4966 -0.2468  1.0814
 8479TIP3    H246853   4.199   1.783  16.988 -0.4105  0.2705  0.1801
 8480TIP3   OH246854   2.092   1.443   0.422 -0.1078  0.1095  0.0844
 8480TIP3    H146855   2.154   1.399   0.480 -0.7246 -0.4904  0.3031
 8480TIP3    H246856   2.027   1.376   0.401 -1.5582  1.1130  1.1110
 8481TIP3   OH246857   5.838   5.422   1.214 -0.4635  0.0414  0.2270
 8481TIP3    H146858   5.882   5.504   1.192  0.5040 -0.6879 -0.6902
 8481TIP3    H246859   5.901   5.375   1.268  0.3139 -1.3803 -1.7961
 8482TIP3   OH246860   1.385   2.785   5.102 -0.8019  0.3040 -0.0888
 8482TIP3    H146861   1.348   2.873   5.103  1.3701  1.2854  1.3906
 8482TIP3    H246862   1.358   2.747   5.186  0.3636  0.5459  0.4153
 8483TIP3   OH246863   5.563   1.608  16.090 -0.0720 -0.3166  0.0244
 8483TIP3    H146864   5.493   1.604  16.154  0.7205 -2.3286  0.8237
 8483TIP3    H246865   5.570   1.520  16.055  0.7743  0.3048 -1.4831
 8484TIP3   OH246866   4.006   2.309  15.641 -0.0365  0.5438 -0.4287
 8484TIP3    H146867   4.036   2.325  15.552 -3.2417  3.0184 -1.2343
 8484TIP3    H246868   3.966   2.222  15.638  0.6807  0.2284 -1.1506
 8485TIP3   OH246869   6.356   4.160  11.826  0.4670  0.3504  0.2283
 8485TIP3    H146870   6.429   4.109  11.861 -0.1988 -0.2669  0.7643
 8485TIP3    H246871   6.278   4.111  11.854 -0.2206  1.9607  1.2765
 8486TIP3   OH246872   0.861   2.499   4.303  0.2110  0.8910 -0.0660
 8486TIP3    H146873   0.870   2.594   4.297  2.4108  0.6423 -2.1119
 8486TIP3    H246874   0.939   2.470   4.350  1.8967 -0.1207 -3.1799
 8487TIP3   OH246875   1.496   4.543   4.949 -0.0985 -0.1101  0.3714
 8487TIP3    H146876   1.411   4.577   4.977 -0.4839  0.6801 -1.5648
 8487TIP3    H246877   1.532   4.502   5.027 -2.5975 -1.2012  1.0608
 8488TIP3   OH246878   3.138   3.833  13.598 -0.0159  0.1867 -0.1027
 8488TIP3    H146879   3.066   3.879  13.641 -0.6782  0.6884 -1.6909
 8488TIP3    H246880   3.156   3.758  13.655 -1.7419  0.0942  0.3691
 8489TIP3   OH246881   2.655   0.022  14.680 -0.4486 -0.5316 -0.6317
 8489TIP3    H146882   2.562  -0.000  14.679 -0.3288 -1.0560 -0.3476
 8489TIP3    H246883   2.672   0.054  14.591 -1.3229  1.4215 -0.1399
 8490TIP3   OH246884   3.299   0.748   2.387 -0.0565  0.6803 -0.0511
 8490TIP3    H146885   3.343   0.666   2.410  0.9271  0.9283 -0.9799
 8490TIP3    H246886   3.242   0.725   2.313  0.7341  0.9503 -0.7647
 8491TIP3   OH246887   5.980   6.038  15.377 -0.0741 -0.5131 -0.5215
 8491TIP3    H146888   6.046   5.981  15.338  1.8236  0.7567  0.6545
 8491TIP3    H246889   5.945   5.989  15.451 -0.4465 -1.1858 -1.1351
 8492TIP3   OH246890   2.833   4.383   0.855  0.7665 -0.0447  0.3134
 8492TIP3    H146891   2.828   4.338   0.939  0.1004 -2.0354 -0.7418
 8492TIP3    H246892   2.742   4.398   0.830  0.9517  0.0596 -0.3031
 8493TIP3   OH246893   0.514   5.751   0.286  0.2143  0.2962 -0.2378
 8493TIP3    H146894   0.521   5.812   0.213 -1.2552  1.5830  0.6367
 8493TIP3    H246895   0.469   5.800   0.354 -0.6075 -1.6109  0.6832
 8494TIP3   OH246896   1.608   2.431  15.710  0.3146 -0.2013 -0.5524
 8494TIP3    H146897   1.592   2.390  15.795 -0.0345  0.7358 -0.1539
 8494TIP3    H246898   1.605   2.358  15.647  0.6470 -0.9118  0.2364
 8495TIP3   OH246899   4.894   4.020  14.050  0.2184  0.4119 -0.2533
 8495TIP3    H146900   4.878   4.068  14.132 -2.6201  1.4568 -1.2825
 8495TIP3    H246901   4.971   4.061  14.012  0.3598  1.2881  0.9371
 8496TIP3   OH246902   2.881   3.950   4.835  0.1942  0.0262  0.2016
 8496TIP3    H146903   2.974   3.926   4.842  0.1823 -0.2838 -0.5636
 8496TIP3    H246904   2.845   3.930   4.921  0.6310 -0.8241  0.2046
 8497TIP3   OH246905   4.368   0.616  13.768 -0.0381  0.0475  0.1686
 8497TIP3    H146906   4.373   0.520  13.758  0.1286  0.1835 -1.1857
 8497TIP3    H246907   4.275   0.636  13.758 -0.0497  0.0432  0.2712
 8498TIP3   OH246908   0.819   2.763  10.549 -0.1526 -0.0721 -0.1503
 8498TIP3    H146909   0.788   2.777  10.460 -0.3805 -1.1995 -0.2643
 8498TIP3    H246910   0.906   2.724  10.538  0.0334  0.2589  0.1270
 8499TIP3   OH246911   0.022   5.437   3.374  0.8730 -0.7264  0.6113
 8499TIP3    H146912  -0.055   5.380   3.366  0.2600 -0.1221  2.0159
 8499TIP3    H246913   0.015   5.498   3.300 -0.3727 -0.2579  1.0977
 8500TIP3   OH246914   3.670   4.126  12.155 -0.1989  0.3197 -0.3793
 8500TIP3    H146915   3.677   4.205  12.103  0.4491  0.8981  0.5577
 8500TIP3    H246916   3.723   4.061  12.109  0.1500  0.7474 -0.5822
 8501TIP3   OH246917   2.447   1.911   3.699 -0.0061  0.3532  0.1722
 8501TIP3    H146918   2.519   1.877   3.646  1.0187  2.3582  0.1812
 8501TIP3    H246919   2.375   1.924   3.637  0.2430  0.0754 -0.1762
 8502TIP3   OH246920   6.368   6.430   4.918 -0.2947 -0.1636 -0.2408
 8502TIP3    H146921   6.419   6.364   4.965  0.5180  1.2251  0.9150
 8502TIP3    H246922   6.420   6.450   4.841 -0.7215 -1.1094 -0.7877
 8503TIP3   OH246923   5.185   1.818  10.444 -0.8883 -0.2878  0.3403
 8503TIP3    H146924   5.111   1.792  10.499 -1.1450  1.4272  0.8773
 8503TIP3    H246925   5.151   1.893  10.394  0.5906  0.7571  0.8546
 8504TIP3   OH246926   4.030   2.830  17.022  0.2403 -0.3602  0.4522
 8504TIP3    H146927   3.941   2.856  17.001 -0.0073 -1.5278 -0.0135
 8504TIP3    H246928   4.021   2.768  17.095  0.6157 -0.9501  0.0053
 8505TIP3   OH246929   4.948   4.190   1.362  0.1905 -0.2395 -0.0335
 8505TIP3    H146930   4.868   4.141   1.380  0.4737 -1.1288 -1.1181
 8505TIP3    H246931   4.939   4.218   1.271  0.7572  0.3540  0.0849
 8506TIP3   OH246932   6.119   3.830  13.225  0.1511 -0.7666  0.7090
 8506TIP3    H146933   6.185   3.764  13.244 -0.3435 -1.0965  1.3587
 8506TIP3    H246934   6.071   3.840  13.308 -0.2788 -0.1636  0.3967
 8507TIP3   OH246935   4.988   5.506   2.973 -0.0498  0.2106 -0.1375
 8507TIP3    H146936   4.944   5.503   2.888  0.3755  1.1805 -0.4010
 8507TIP3    H246937   5.051   5.434   2.969 -0.1619  0.1309 -0.5712
 8508TIP3   OH246938   2.792   3.030   3.195  0.4337 -0.1495 -0.1314
 8508TIP3    H146939   2.799   3.099   3.130  1.3251 -0.7793 -0.7296
 8508TIP3    H246940   2.754   2.956   3.148 -0.0764 -0.2255  0.3846
 8509TIP3   OH246941   6.375   5.045   1.489  0.1404  0.4010 -0.0881
 8509TIP3    H146942   6.432   5.099   1.435  0.5398 -0.1650 -0.2497
 8509TIP3    H246943   6.424   5.033   1.571  0.0185  0.3542 -0.0217
 8510TIP3   OH246944   6.533   0.006  13.418 -0.5491  0.3445 -0.0936
 8510TIP3    H146945   6.626  -0.018  13.417 -0.7359 -0.4026  0.0598
 8510TIP3    H246946   6.515   0.025  13.510 -0.8358 -0.7167  0.0898
 8511TIP3   OH246947   5.019   5.003  16.230  0.0511  0.4115  0.1819
 8511TIP3    H146948   4.923   5.008  16.226 -0.0377 -0.9011  0.4050
 8511TIP3    H246949   5.043   5.076  16.287 -0.7785  1.0016 -0.1898
 8512TIP3   OH246950   2.374   5.228   4.440 -0.5173 -0.1546 -0.2325
 8512TIP3    H146951   2.281   5.217   4.458 -0.7807  0.2714 -1.2300
 8512TIP3    H246952   2.387   5.323   4.437 -0.0694 -0.2119 -0.1929
 8513TIP3   OH246953   3.327   6.674  12.988  0.6515  0.4745  0.1017
 8513TIP3    H146954   3.408   6.718  13.015  2.2195 -2.2770  0.2908
 8513TIP3    H246955   3.330   6.674  12.892  2.4426 -2.0238  0.0573
 8514TIP3   OH246956   0.360   3.703   5.428 -0.2393 -0.3988  0.4727
 8514TIP3    H146957   0.339   3.638   5.495  0.0384 -0.6320  0.3356
 8514TIP3    H246958   0.299   3.683   5.356  1.8612 -2.5163 -0.8512
 8515TIP3   OH246959   1.339   4.478  16.025  0.3078 -1.0355  0.3978
 8515TIP3    H146960   1.282   4.415  15.981 -1.2734  2.1395 -2.6163
 8515TIP3    H246961   1.412   4.491  15.965 -1.0967  2.2503 -0.8669
 8516TIP3   OH246962   5.809   4.581   3.070  0.2634  0.4591 -0.3293
 8516TIP3    H146963   5.755   4.504   3.053  0.2744  0.6440 -1.2334
 8516TIP3    H246964   5.794   4.638   2.995  1.5523  0.6091 -0.4981
 8517TIP3   OH246965   3.203   3.880   2.162 -0.2586  0.2907  0.3627
 8517TIP3    H146966   3.239   3.831   2.236  0.2382 -0.4375 -0.3398
 8517TIP3    H246967   3.183   3.814   2.096 -1.4458  0.8452  0.1357
 8518TIP3   OH246968   1.147   6.078  12.012 -0.4309  0.0031  0.4792
 8518TIP3    H146969   1.177   6.126  11.935  1.8144 -2.1034 -0.1106
 8518TIP3    H246970   1.217   6.090  12.076 -2.2369  1.6653  2.2413
 8519TIP3   OH246971   6.797   0.038   5.907  0.1744  0.2202 -0.6504
 8519TIP3    H146972   6.874   0.034   5.850  1.6099 -1.3030  1.2400
 8519TIP3    H246973   6.802  -0.042   5.959 -3.3828 -0.5136 -1.2240
 8520TIP3   OH246974   4.520   6.261  13.318  0.2499  0.0166  0.1206
 8520TIP3    H146975   4.611   6.255  13.290  0.6679 -0.8970  1.5310
 8520TIP3    H246976   4.508   6.185  13.376 -1.8776 -0.8259 -1.2768
 8521TIP3   OH246977   0.248   4.716  11.330  0.1060  0.1862  0.5108
 8521TIP3    H146978   0.336   4.712  11.293  0.0126  0.3356  0.2714
 8521TIP3    H246979   0.195   4.759  11.262  0.0923  1.1460  1.1101
 8522TIP3   OH246980   4.104   2.798  16.495  0.3680  0.2060  0.2858
 8522TIP3    H146981   4.169   2.806  16.565 -0.2532  0.0627  0.8911
 8522TIP3    H246982   4.125   2.869  16.434  0.3385  0.9349  1.1084
 8523TIP3   OH246983   3.526   3.612  15.895 -0.5738  0.4445 -0.1402
 8523TIP3    H146984   3.534   3.687  15.953 -0.5200 -0.2158  0.7193
 8523TIP3    H246985   3.479   3.547  15.946 -0.7627 -0.0568 -0.9326
 8524TIP3   OH246986   4.947   3.700  16.194 -0.5960  0.3311 -0.2597
 8524TIP3    H146987   4.898   3.701  16.112  0.5328  1.1659 -0.9567
 8524TIP3    H246988   4.915   3.777  16.241 -0.1456  0.7282 -0.5997
 8525TIP3   OH246989   0.644   5.288  13.734  0.0349 -0.1862 -0.0022
 8525TIP3    H146990   0.657   5.311  13.827  0.9644 -0.2889 -0.0977
 8525TIP3    H246991   0.552   5.309  13.717  0.1228  0.8260  0.6659
 8526TIP3   OH246992   0.495   4.144  12.397  0.8215  0.4974  0.1169
 8526TIP3    H146993   0.426   4.210  12.395  0.1892 -0.1688 -0.3305
 8526TIP3    H246994   0.471   4.085  12.469  1.4332  0.7959  0.5776
 8527TIP3   OH246995   2.671   2.595  12.094  0.3501  0.3427 -0.0480
 8527TIP3    H146996   2.618   2.670  12.120 -0.3394  0.1201 -0.7613
 8527TIP3    H246997   2.698   2.555  12.177  1.1994  1.6854  0.3413
 8528TIP3   OH246998   5.370   4.372  10.563  0.6186  0.7657  0.7393
 8528TIP3    H146999   5.379   4.280  10.540  0.2682  0.7378  0.7125
 8528TIP3    H247000   5.306   4.374  10.634 -1.7380  1.2434 -1.2661
 8529TIP3   OH247001   6.527   3.683   0.092  0.7236  0.1137  0.3635
 8529TIP3    H147002   6.453   3.737   0.120  0.0497 -0.7624  0.3513
 8529TIP3    H247003   6.597   3.745   0.073 -0.2897  1.0451 -0.4985
 8530TIP3   OH247004   4.918   6.481  14.813 -0.6836  0.3541  0.1228
 8530TIP3    H147005   4.842   6.527  14.849 -0.0021  2.6816 -1.1791
 8530TIP3    H247006   4.901   6.476  14.719  0.5831  0.6328 -0.1537
 8531TIP3   OH247007   6.760   2.890  12.968 -0.0929  0.2763 -0.3733
 8531TIP3    H147008   6.702   2.889  12.892  0.0420 -0.2661 -0.4733
 8531TIP3    H247009   6.838   2.937  12.938  0.6491 -1.3319 -1.1055
 8532TIP3   OH247010   2.942   0.592   0.400  0.1961 -0.5915 -0.5198
 8532TIP3    H147011   2.980   0.656   0.340  2.0695 -2.5867 -1.6140
 8532TIP3    H247012   2.847   0.602   0.389  0.4582 -0.3947 -3.3269
 8533TIP3   OH247013   0.666   4.887  12.952 -0.1017 -0.5850  0.0888
 8533TIP3    H147014   0.599   4.955  12.953  0.2383 -0.2277 -0.6021
 8533TIP3    H247015   0.717   4.901  13.032  2.0494  2.1123 -1.6022
 8534TIP3   OH247016   4.008   1.843  16.353  0.1766 -0.2488 -0.3576
 8534TIP3    H147017   4.037   1.931  16.374  0.3934 -0.5936  0.8630
 8534TIP3    H247018   4.077   1.786  16.386  0.5742 -0.8583 -2.1024
 8535TIP3   OH247019   1.933   1.413   0.086  0.3382 -0.2509  0.2444
 8535TIP3    H147020   1.872   1.433   0.157 -0.6933  0.9513 -0.9146
 8535TIP3    H247021   1.907   1.327   0.054  0.8105 -0.7999  1.2874
 8536TIP3   OH247022   4.394   6.596  14.485 -0.4883 -0.2057 -0.5316
 8536TIP3    H147023   4.318   6.569  14.433 -1.2278  1.3199 -0.3164
 8536TIP3    H247024   4.364   6.675  14.531  1.3553  0.6854 -0.7734
 8537TIP3   OH247025   5.660   4.679  12.577  0.3068  0.5441  0.3148
 8537TIP3    H147026   5.629   4.608  12.633  0.8680 -0.9259 -1.1506
 8537TIP3    H247027   5.747   4.652  12.548  0.3607  1.6130 -0.6367
 8538TIP3   OH247028   2.328   2.464   6.017  0.2589 -0.8446 -0.6578
 8538TIP3    H147029   2.418   2.460   5.985 -0.4400 -0.4071 -2.8733
 8538TIP3    H247030   2.316   2.555   6.044  1.0549 -1.3668  1.6066
 8539TIP3   OH247031   0.580   0.329   4.989  0.0582 -0.3181 -0.4378
 8539TIP3    H147032   0.516   0.291   4.929  1.3561 -1.1355 -1.3457
 8539TIP3    H247033   0.613   0.406   4.943  1.8533 -1.5538 -1.3227
 8540TIP3   OH247034   5.039   3.652   3.357  0.0417 -0.3730 -0.8445
 8540TIP3    H147035   5.046   3.748   3.355 -0.0874 -0.3805 -2.7023
 8540TIP3    H247036   4.963   3.635   3.413  1.6201  0.4626  1.7624
 8541TIP3   OH247037   5.796   5.267   3.448 -0.0743  0.1620 -0.3778
 8541TIP3    H147038   5.859   5.197   3.466 -1.3341 -0.7979  0.4434
 8541TIP3    H247039   5.741   5.232   3.378  0.4987  1.1565 -1.3738
 8542TIP3   OH247040   3.800   4.032  13.091  0.7685  0.4492  0.3876
 8542TIP3    H147041   3.783   3.986  13.009  1.6624  1.5381 -0.4467
 8542TIP3    H247042   3.743   4.108  13.089  1.8602  1.2963  0.0267
 8543TIP3   OH247043   2.369   6.523   4.394  0.5792 -0.9883  0.2100
 8543TIP3    H147044   2.273   6.519   4.399  0.6605 -1.2923  2.3250
 8543TIP3    H247045   2.391   6.610   4.426  1.0295 -1.0345  0.0340
 8544TIP3   OH247046   2.688   5.023  11.755  0.0543  0.2274 -0.5016
 8544TIP3    H147047   2.667   4.930  11.758 -1.5311  0.5807  1.8599
 8544TIP3    H247048   2.620   5.065  11.808 -0.4724  3.0027 -3.1120
 8545TIP3   OH247049   1.312   0.313  16.561 -0.3529  0.0013  0.2705
 8545TIP3    H147050   1.329   0.392  16.612  0.9421 -0.5781  0.7819
 8545TIP3    H247051   1.253   0.262  16.615 -0.6235  0.2919  0.2559
 8546TIP3   OH247052   3.151   3.388  15.281 -0.3311  0.2236  0.0706
 8546TIP3    H147053   3.093   3.367  15.208 -0.6862 -2.4292  1.0271
 8546TIP3    H247054   3.106   3.354  15.358 -0.6334  4.1649  1.8684
 8547TIP3   OH247055   1.023   0.099  13.706  0.3358 -0.5082  0.2001
 8547TIP3    H147056   1.050   0.108  13.615 -0.8550  0.9688 -0.0533
 8547TIP3    H247057   0.930   0.076  13.702 -0.3715  1.9037  0.9775
 8548TIP3   OH247058   5.669   2.883  13.127 -0.4324 -0.0519  0.2748
 8548TIP3    H147059   5.730   2.937  13.077  0.0207  0.9014  1.8062
 8548TIP3    H247060   5.648   2.811  13.068  1.8573 -0.2021 -0.4702
 8549TIP3   OH247061   5.935   3.779  16.033  0.2606 -0.6271  0.0643
 8549TIP3    H147062   6.006   3.720  16.057  0.5631  0.2096  1.3741
 8549TIP3    H247063   5.915   3.758  15.942  4.1976  1.1041 -1.3971
 8550TIP3   OH247064   5.708   3.034   0.158  0.4000 -0.0895 -0.0431
 8550TIP3    H147065   5.685   2.993   0.241  0.2130  0.7462  0.3214
 8550TIP3    H247066   5.714   3.127   0.177  1.7587 -0.0282 -0.6612
 8551TIP3   OH247067   5.845   4.223  16.552 -0.7489  0.0761  0.3601
 8551TIP3    H147068   5.831   4.135  16.517 -1.7828  0.1794  0.4597
 8551TIP3    H247069   5.826   4.214  16.645  0.2658  0.1720  0.5857
 8552TIP3   OH247070   4.848   4.066  12.138  0.6755 -0.6696 -0.5738
 8552TIP3    H147071   4.864   3.977  12.170  0.8530 -0.6605 -0.6376
 8552TIP3    H247072   4.924   4.116  12.166 -0.1983 -0.1310  0.9417
 8553TIP3   OH247073   5.648   0.811  12.384  0.5255  0.0961  0.1509
 8553TIP3    H147074   5.614   0.791  12.297  1.6417 -0.2598 -0.2220
 8553TIP3    H247075   5.570   0.821  12.439 -0.2016  0.7999 -0.9795
 8554TIP3   OH247076   0.582   0.942  15.376  0.4565  0.3698 -0.5995
 8554TIP3    H147077   0.645   1.006  15.343 -0.5373  1.6713 -0.0270
 8554TIP3    H247078   0.499   0.989  15.381  0.1082 -0.3336  1.7433
 8555TIP3   OH247079   1.949   0.371  13.645  0.4474  0.4383  0.3833
 8555TIP3    H147080   1.943   0.436  13.715 -0.4456 -1.5497  2.2864
 8555TIP3    H247081   1.920   0.417  13.566 -1.0193  2.1016  1.8084
 8556TIP3   OH247082   5.648   0.775  14.730 -0.4322 -0.1858 -0.0485
 8556TIP3    H147083   5.682   0.820  14.652 -1.0263  0.8199  0.2428
 8556TIP3    H247084   5.726   0.750  14.779 -0.0660 -0.1411 -0.5967
 8557TIP3   OH247085   1.350   1.806   3.777 -0.4326  0.8464  0.1249
 8557TIP3    H147086   1.408   1.787   3.703  0.4889  0.6677  0.8896
 8557TIP3    H247087   1.367   1.897   3.799 -1.1985  1.1015 -0.3029
 8558TIP3   OH247088   5.414   4.959  13.423  0.3108 -0.1605 -0.5666
 8558TIP3    H147089   5.489   4.921  13.376  1.8247  1.3986  0.4500
 8558TIP3    H247090   5.374   4.884  13.469  3.1671 -0.6895  1.3540
 8559TIP3   OH247091   2.937   3.010   5.734 -0.6052 -0.2676 -0.0677
 8559TIP3    H147092   3.011   3.070   5.737  0.8374 -1.9472  0.2779
 8559TIP3    H247093   2.860   3.066   5.725  0.6976  1.5526 -0.4664
 8560TIP3   OH247094   4.835   1.203   3.217 -0.1446  0.2331  0.6567
 8560TIP3    H147095   4.882   1.143   3.159 -0.2644  0.1507  0.6441
 8560TIP3    H247096   4.766   1.240   3.161  0.5070  1.0965  0.3947
 8561TIP3   OH247097   0.883   2.283   2.029  0.2371  0.2490 -0.0158
 8561TIP3    H147098   0.923   2.276   1.943 -1.7283 -0.4529 -0.9354
 8561TIP3    H247099   0.804   2.335   2.015 -0.4975 -0.4777  1.2047
 8562TIP3   OH247100   2.865   2.080  11.435  0.0280 -0.3125  0.1708
 8562TIP3    H147101   2.914   2.162  11.425 -2.0095  0.8399 -1.0986
 8562TIP3    H247102   2.780   2.107  11.470 -0.0749 -2.1229  1.4231
 8563TIP3   OH247103   6.044   1.257   4.471 -0.3228 -0.2328 -0.5840
 8563TIP3    H147104   6.120   1.227   4.521  0.7789  2.6852 -0.3258
 8563TIP3    H247105   6.060   1.226   4.382  1.0234  0.0022 -0.4461
 8564TIP3   OH247106   0.325   1.837  13.284  0.4586  0.6604  0.1679
 8564TIP3    H147107   0.380   1.893  13.338  2.2333 -1.1900  0.4106
 8564TIP3    H247108   0.354   1.748  13.305 -0.9343 -0.2588 -1.5604
 8565TIP3   OH247109   4.916   6.200   4.885 -0.4608  0.3645  0.1016
 8565TIP3    H147110   4.954   6.172   4.802 -0.3850  1.2199 -0.1629
 8565TIP3    H247111   4.981   6.174   4.951 -0.2876  0.1457 -0.1549
 8566TIP3   OH247112   1.486   4.882   2.572  0.0756 -0.0853 -0.3896
 8566TIP3    H147113   1.394   4.861   2.555 -0.3811  2.6859 -2.0636
 8566TIP3    H247114   1.534   4.838   2.502 -0.2460  0.0833 -0.7207
 8567TIP3   OH247115   3.427   1.047  12.108  0.3475  0.3745 -0.2634
 8567TIP3    H147116   3.348   1.067  12.157  0.6084 -0.2370  0.4135
 8567TIP3    H247117   3.497   1.091  12.157  0.7625 -1.1695  0.5698
 8568TIP3   OH247118   1.616   4.725   0.574 -0.1874 -0.2800 -0.0960
 8568TIP3    H147119   1.633   4.790   0.642  0.6454 -2.7557  2.2660
 8568TIP3    H247120   1.700   4.716   0.528 -0.4555  0.6543 -0.7858
 8569TIP3   OH247121   2.580   5.889  11.490  0.1715  0.0216 -0.0197
 8569TIP3    H147122   2.620   5.889  11.577 -0.5198  0.7229  0.3135
 8569TIP3    H247123   2.515   5.819  11.493 -0.2950  0.4576  0.2516
 8570TIP3   OH247124   6.196   5.671  15.617  0.1953  0.5478 -0.2279
 8570TIP3    H147125   6.266   5.735  15.605  2.9706 -2.0304  0.6619
 8570TIP3    H247126   6.200   5.617  15.538 -0.3394 -0.0332  0.1370
 8571TIP3   OH247127   5.722   1.756  12.227 -0.0785 -0.4983 -0.3999
 8571TIP3    H147128   5.689   1.839  12.194 -0.0648 -0.6153 -0.7125
 8571TIP3    H247129   5.771   1.719  12.154  0.2431 -0.6009 -0.1349
 8572TIP3   OH247130   5.143   3.951  14.719 -0.4348  0.6678 -0.4328
 8572TIP3    H147131   5.121   3.859  14.701 -0.7224  0.6116  0.1697
 8572TIP3    H247132   5.186   3.981  14.639 -1.7178  0.4598 -1.2389
 8573TIP3   OH247133   3.155   6.629   5.607 -0.0395  0.3099  0.1838
 8573TIP3    H147134   3.241   6.640   5.565  0.0056 -0.4103  0.0702
 8573TIP3    H247135   3.092   6.661   5.541  0.1272  0.7237  0.2192
 8574TIP3   OH247136   2.211   1.654  11.447  0.1689 -0.4362 -0.2621
 8574TIP3    H147137   2.205   1.654  11.543  0.6456  0.5468 -0.2185
 8574TIP3    H247138   2.276   1.586  11.427 -0.7486 -1.4334  0.0295
 8575TIP3   OH247139   0.840   4.370   2.117 -0.3222  0.1566 -0.0232
 8575TIP3    H147140   0.882   4.423   2.050  0.5147 -0.9839 -0.4203
 8575TIP3    H247141   0.747   4.395   2.112 -0.2749  0.1321 -1.5768
 8576TIP3   OH247142   5.232   1.038   1.686  0.0029 -0.0994  0.6760
 8576TIP3    H147143   5.307   0.994   1.724 -0.5279 -3.1090 -1.4182
 8576TIP3    H247144   5.250   1.132   1.699  4.0765 -0.6423  0.2735
 8577TIP3   OH247145   0.214   6.152   6.366  0.7750  0.4444 -0.3998
 8577TIP3    H147146   0.141   6.180   6.311  0.6042  1.5170  0.3458
 8577TIP3    H247147   0.180   6.154   6.455  1.3155 -0.3906 -0.1604
 8578TIP3   OH247148   4.558   6.251   1.790  0.2222  0.6534  0.3084
 8578TIP3    H147149   4.637   6.302   1.807  1.0514 -0.5386  0.1721
 8578TIP3    H247150   4.588   6.176   1.739 -1.2655  0.9839 -1.1329
 8579TIP3   OH247151   1.256   0.613  11.882  0.2456 -0.4936 -1.0138
 8579TIP3    H147152   1.265   0.533  11.830  1.2983  0.4613 -2.3880
 8579TIP3    H247153   1.162   0.618  11.901  0.4114 -3.3061  1.3018
 8580TIP3   OH247154   4.674   0.810  14.504  0.8703  0.1126 -0.0038
 8580TIP3    H147155   4.720   0.785  14.423  0.4353  0.0289 -0.2301
 8580TIP3    H247156   4.689   0.904  14.511  0.6362  0.1824 -0.3664
 8581TIP3   OH247157   1.191   4.629  16.455  0.0535 -0.4858  0.2738
 8581TIP3    H147158   1.209   4.562  16.522 -0.8978  0.2759  1.3286
 8581TIP3    H247159   1.115   4.595  16.408 -2.0815  0.9183  2.4616
 8582TIP3   OH247160   0.454   0.945   0.848 -0.5157 -0.8066 -0.1130
 8582TIP3    H147161   0.428   0.855   0.871 -0.5957 -0.2391  2.3610
 8582TIP3    H247162   0.544   0.952   0.879 -0.5797  0.0092 -0.1041
 8583TIP3   OH247163   6.680   4.949   2.069 -0.1137  0.3591  0.5472
 8583TIP3    H147164   6.647   4.859   2.071  0.7375 -0.0040 -0.6079
 8583TIP3    H247165   6.691   4.972   2.161  0.3286 -0.9698  0.8518
 8584TIP3   OH247166   0.584   3.209   0.950 -0.2672  0.9733 -0.0241
 8584TIP3    H147167   0.491   3.217   0.926 -0.5664 -1.1217  0.1709
 8584TIP3    H247168   0.628   3.186   0.868  0.2640  2.8763 -0.3019
 8585TIP3   OH247169   0.943   0.893   6.106 -0.5202  0.3029  0.4179
 8585TIP3    H147170   0.865   0.945   6.124  0.1392  0.3981  3.5654
 8585TIP3    H247171   0.954   0.838   6.184  2.2491 -0.0783 -0.1318
 8586TIP3   OH247172   5.954   0.869   4.506  0.2386 -0.2131  0.2468
 8586TIP3    H147173   5.906   0.793   4.540 -1.4681  0.2036 -1.0657
 8586TIP3    H247174   6.009   0.833   4.436 -1.5646 -0.1149 -1.2861
 8587TIP3   OH247175   3.377   3.191  14.891 -0.1858 -0.5781 -0.0614
 8587TIP3    H147176   3.305   3.148  14.937  0.3386  0.0161  1.3726
 8587TIP3    H247177   3.436   3.220  14.960  0.1672  1.2161 -1.0467
 8588TIP3   OH247178   4.979   0.970   2.553 -0.1080 -0.0814  0.2270
 8588TIP3    H147179   4.925   0.958   2.630 -1.1408  0.1087 -0.4486
 8588TIP3    H247180   4.955   0.898   2.495 -2.2172  1.8469 -1.5034
 8589TIP3   OH247181   4.839   6.097   1.945 -0.3110 -0.2486 -0.2768
 8589TIP3    H147182   4.890   6.018   1.957  1.3344  0.8892  0.5103
 8589TIP3    H247183   4.881   6.143   1.872 -0.9152  0.1631 -0.3822
 8590TIP3   OH247184   5.373   4.769   1.302  0.4356  0.3423  0.0213
 8590TIP3    H147185   5.349   4.681   1.332  2.5419  0.1445  1.2711
 8590TIP3    H247186   5.290   4.818   1.304 -0.4804 -1.1723  0.8644
 8591TIP3   OH247187   5.943   1.177  16.496 -0.6911 -0.0315 -0.5683
 8591TIP3    H147188   5.899   1.209  16.575  3.3151 -0.3507  2.0489
 8591TIP3    H247189   5.903   1.091  16.480 -1.9340  0.2499  0.7793
 8592TIP3   OH247190   3.440   3.965   4.225  0.0529  0.2081 -0.3030
 8592TIP3    H147191   3.384   4.036   4.193  0.5269 -0.3823 -2.6210
 8592TIP3    H247192   3.393   3.885   4.201  0.2571 -0.3052  0.9157
 8593TIP3   OH247193   2.082   2.120   0.614 -0.2751 -0.4111  0.4570
 8593TIP3    H147194   2.063   2.057   0.544  0.2932  0.4890 -0.5311
 8593TIP3    H247195   2.002   2.171   0.623  0.5678  1.4449 -1.6682
 8594TIP3   OH247196   1.889   5.206   3.687 -0.7455 -0.1098  0.0794
 8594TIP3    H147197   1.831   5.153   3.632 -0.4602 -0.2863 -0.0569
 8594TIP3    H247198   1.844   5.212   3.771  0.6892 -3.3509  1.2080
 8595TIP3   OH247199   6.606   3.300   1.762 -0.0576 -0.0348 -0.5740
 8595TIP3    H147200   6.604   3.209   1.791  0.3181  0.2755  0.4767
 8595TIP3    H247201   6.647   3.297   1.675  1.2639 -0.7428  0.0387
 8596TIP3   OH247202   0.165   2.582   5.125 -0.3559 -0.2781 -0.3583
 8596TIP3    H147203   0.208   2.496   5.130 -0.5819 -0.3917 -0.3490
 8596TIP3    H247204   0.145   2.594   5.032 -0.2259 -0.1846 -0.3752
 8597TIP3   OH247205   1.740   6.103   2.902  0.0103  0.1429  0.2071
 8597TIP3    H147206   1.832   6.079   2.913  0.2652  0.9308 -0.1374
 8597TIP3    H247207   1.703   6.099   2.991  0.3451 -0.2965  0.3259
 8598TIP3   OH247208   2.514   3.702  12.663 -0.0351 -0.0277  0.0999
 8598TIP3    H147209   2.508   3.619  12.616 -1.1617  0.1762 -0.1462
 8598TIP3    H247210   2.551   3.763  12.600  3.5703 -0.9136  1.1107
 8599TIP3   OH247211   6.691   1.560  11.340  0.1095  0.4207 -0.2348
 8599TIP3    H147212   6.755   1.629  11.357  0.6330  0.5344 -2.3755
 8599TIP3    H247213   6.725   1.484  11.385  2.1440  0.3177 -1.7885
 8600TIP3   OH247214   0.982   4.827  17.054 -0.3868  0.4080 -0.3717
 8600TIP3    H147215   0.935   4.743  17.050 -0.0028  0.2258 -1.4313
 8600TIP3    H247216   1.042   4.817  17.128  0.4903 -0.7190 -1.1932
 8601TIP3   OH247217   5.569   0.616  11.904 -0.5045  0.0292  0.1443
 8601TIP3    H147218   5.634   0.547  11.890 -1.9788 -1.1789 -1.1060
 8601TIP3    H247219   5.520   0.620  11.822 -1.7914  1.1357  0.9304
 8602TIP3   OH247220   2.122   4.766   4.336 -0.2483 -0.3727  0.2747
 8602TIP3    H147221   2.041   4.717   4.345  0.2780 -1.6974 -1.4982
 8602TIP3    H247222   2.127   4.787   4.242  0.8797  0.7237  0.5497
 8603TIP3   OH247223   6.013   0.073   4.403 -0.5037  0.1211 -0.2535
 8603TIP3    H147224   5.991   0.070   4.496 -0.0939 -2.1411 -0.1647
 8603TIP3    H247225   6.055   0.158   4.391 -0.9217  0.6221  1.5360
 8604TIP3   OH247226   6.390   5.051  12.766  0.4418  0.5426  0.6567
 8604TIP3    H147227   6.324   5.060  12.697  2.0166 -1.5067 -1.2588
 8604TIP3    H247228   6.390   4.958  12.787  0.9803  0.9136  2.4728
 8605TIP3   OH247229   0.068   5.195   3.925  0.7716 -0.4734 -0.3505
 8605TIP3    H147230   0.156   5.200   3.888  0.5142 -0.5489 -0.9903
 8605TIP3    H247231   0.044   5.103   3.921  1.0457 -0.6010  0.7542
 8606TIP3   OH247232   0.853   6.238  15.029  0.1001 -0.1513 -0.2109
 8606TIP3    H147233   0.825   6.288  14.952 -0.1909  0.8889  0.5577
 8606TIP3    H247234   0.774   6.193  15.058  0.0122  0.1234 -0.0241
 8607TIP3   OH247235   6.396   2.285  15.367  0.0242  0.1898  0.2172
 8607TIP3    H147236   6.449   2.275  15.446 -0.7296 -1.2292  0.5805
 8607TIP3    H247237   6.445   2.238  15.299 -1.2301 -2.1591  0.8193
 8608TIP3   OH247238   6.045   0.611  12.282  0.2251 -0.1784 -0.4067
 8608TIP3    H147239   5.977   0.544  12.293  0.3049 -0.8340 -3.2061
 8608TIP3    H247240   6.005   0.691  12.314 -1.8423 -0.5853 -1.8091
 8609TIP3   OH247241   5.506   0.908  16.593 -0.1664 -0.0763  0.3530
 8609TIP3    H147242   5.539   0.818  16.584  1.7304  0.5594  0.4369
 8609TIP3    H247243   5.434   0.913  16.531 -0.3599 -1.6849  0.4093
 8610TIP3   OH247244   2.765   3.187   5.038  0.2868 -0.6520  0.1361
 8610TIP3    H147245   2.681   3.170   4.996  0.6183 -0.3639 -0.6666
 8610TIP3    H247246   2.758   3.277   5.070  0.5770 -0.3368 -0.6627
 8611TIP3   OH247247   5.328   3.427   2.800 -0.6899  0.0334  0.6276
 8611TIP3    H147248   5.402   3.485   2.820 -2.2619  1.2603  3.6292
 8611TIP3    H247249   5.349   3.346   2.846 -0.9554  0.1890  1.0255
 8612TIP3   OH247250   1.361   3.559   1.635 -0.0778  0.4741 -0.1153
 8612TIP3    H147251   1.423   3.630   1.616 -1.0261  2.0466  2.1183
 8612TIP3    H247252   1.381   3.534   1.726  0.1182 -2.0730 -0.7980
 8613TIP3   OH247253   4.276   3.033  13.707  0.0801  0.5896 -0.1809
 8613TIP3    H147254   4.277   3.103  13.642  1.7076  0.3010 -0.5178
 8613TIP3    H247255   4.227   2.962  13.666  0.5461  0.6443 -0.8376
 8614TIP3   OH247256   2.931   6.725  12.850 -0.0334  0.0481 -0.2419
 8614TIP3    H147257   2.863   6.669  12.811 -0.2063 -0.7837  1.1692
 8614TIP3    H247258   2.909   6.726  12.944  1.6615  0.0962  0.1861
 8615TIP3   OH247259   5.933   0.402   5.182  0.1624 -0.2234  0.3199
 8615TIP3    H147260   5.917   0.425   5.273  0.2992  2.2878 -0.2131
 8615TIP3    H247261   6.028   0.401   5.174  0.2214 -2.2529  0.5409
 8616TIP3   OH247262   4.939   5.488   1.095  0.4819 -0.2783 -0.6594
 8616TIP3    H147263   4.862   5.459   1.046 -0.5385  0.9359  0.1561
 8616TIP3    H247264   4.961   5.414   1.151  0.2412 -0.8269 -1.2761
 8617TIP3   OH247265   5.224   1.508   5.721  0.4726  1.0461 -0.1540
 8617TIP3    H147266   5.221   1.553   5.806 -0.1113  1.0931 -0.1979
 8617TIP3    H247267   5.207   1.416   5.742 -1.8211  1.3453 -0.4254
 8618TIP3   OH247268   5.132   1.173  13.186 -0.2295 -0.1067  0.6848
 8618TIP3    H147269   5.226   1.164  13.198 -0.5895 -2.2656  2.4787
 8618TIP3    H247270   5.112   1.120  13.108  0.1534  1.5154 -0.5790
 8619TIP3   OH247271   5.430   3.089   1.204  0.4790  0.1347  0.4631
 8619TIP3    H147272   5.405   3.022   1.141 -1.0706  0.4803  0.6689
 8619TIP3    H247273   5.506   3.053   1.249  0.2670 -1.0538 -0.0967
 8620TIP3   OH247274   2.434   2.974  15.715 -0.2873  0.2477  0.1921
 8620TIP3    H147275   2.361   2.925  15.753  0.9015 -0.5646  1.5457
 8620TIP3    H247276   2.394   3.051  15.675 -2.0048 -0.8616 -0.3043
 8621TIP3   OH247277   1.854   2.665   6.597 -0.4220 -0.0793  0.1757
 8621TIP3    H147278   1.922   2.613   6.640 -1.5795 -1.8012 -0.0140
 8621TIP3    H247279   1.893   2.691   6.513  0.0026 -1.0878  0.0466
 8622TIP3   OH247280   3.337   1.744   0.082  0.1279 -0.3204 -0.3640
 8622TIP3    H147281   3.318   1.778   0.170  1.1215  0.5858 -0.4769
 8622TIP3    H247282   3.397   1.672   0.097  1.9773  1.1527 -0.3797
 8623TIP3   OH247283   2.474   3.697   2.888  0.2018  0.3423 -0.2344
 8623TIP3    H147284   2.513   3.727   2.970 -0.8572 -0.1150  0.4624
 8623TIP3    H247285   2.391   3.656   2.915 -0.7474  1.2503 -1.6543
 8624TIP3   OH247286   2.805   6.210  14.437  0.4859  0.7777 -0.2243
 8624TIP3    H147287   2.817   6.214  14.342  0.1748  1.2817 -0.2456
 8624TIP3    H247288   2.852   6.286  14.470  0.2049  0.8576 -0.0121
 8625TIP3   OH247289   3.308   4.642   0.108 -0.2757  0.5799  0.0484
 8625TIP3    H147290   3.307   4.725   0.060 -0.1531 -0.4397 -1.8235
 8625TIP3    H247291   3.386   4.647   0.163  2.2134  0.1522 -3.1205
 8626TIP3   OH247292   0.760   4.182  11.495 -0.3350  0.0005  0.0099
 8626TIP3    H147293   0.757   4.199  11.589  1.4212  0.1258  0.0758
 8626TIP3    H247294   0.736   4.266  11.455 -1.7652 -0.2391  0.3239
 8627TIP3   OH247295   1.705   0.556   4.193  0.2883 -0.0095  0.0545
 8627TIP3    H147296   1.632   0.581   4.250 -0.9520 -1.8602 -0.6196
 8627TIP3    H247297   1.767   0.511   4.251  1.1706  1.9736  0.7179
 8628TIP3   OH247298   6.400   2.179  11.114  0.4300  0.3198  0.6651
 8628TIP3    H147299   6.458   2.151  11.043  0.5649  0.7004  0.6226
 8628TIP3    H247300   6.343   2.245  11.074 -0.0048 -0.0151  0.7199
 8629TIP3   OH247301   2.671   5.831  10.943  0.3318 -0.2087 -0.0229
 8629TIP3    H147302   2.730   5.811  11.015  1.7418  0.8216 -0.8366
 8629TIP3    H247303   2.715   5.796  10.865  0.4935  1.6311 -0.8032
 8630TIP3   OH247304   3.517   0.420  10.683 -0.4033  0.3774  0.3314
 8630TIP3    H147305   3.471   0.465  10.613 -0.3679  0.8041  0.5747
 8630TIP3    H247306   3.466   0.438  10.762  0.4871  1.3763  0.7141
 8631TIP3   OH247307   4.965   3.316   6.706 -0.3153 -0.0975 -0.1229
 8631TIP3    H147308   4.958   3.227   6.672  0.0998 -0.5346  0.8864
 8631TIP3    H247309   4.902   3.320   6.777  2.7794 -1.1808  2.9953
 8632TIP3   OH247310   6.494   0.360  12.950 -0.0457 -0.2417  0.2829
 8632TIP3    H147311   6.502   0.315  12.865  0.3562  0.3865 -0.0137
 8632TIP3    H247312   6.400   0.360  12.968 -0.0002 -2.0123  0.7317
 8633TIP3   OH247313   5.626   4.320   4.790  0.2040 -0.2857  0.0959
 8633TIP3    H147314   5.547   4.268   4.778 -0.2282  0.2477  0.5828
 8633TIP3    H247315   5.596   4.400   4.833  0.8368  0.4284 -0.7561
 8634TIP3   OH247316   3.587   3.086   5.269  0.6805 -0.1097 -0.5797
 8634TIP3    H147317   3.604   3.087   5.175 -0.7732  2.1790 -0.9041
 8634TIP3    H247318   3.511   3.030   5.279 -0.5936  1.4391 -1.1451
 8635TIP3   OH247319   2.518   5.496  16.360 -0.0796 -0.1027  0.2567
 8635TIP3    H147320   2.613   5.486  16.370  0.5540  1.2504 -3.1471
 8635TIP3    H247321   2.491   5.547  16.437  2.2681  1.0810  0.3755
 8636TIP3   OH247322   1.684   6.422  16.327 -0.3887  0.3150 -0.4132
 8636TIP3    H147323   1.621   6.467  16.383 -1.2409 -1.7366  0.3847
 8636TIP3    H247324   1.632   6.388  16.254 -0.5444 -2.2505  0.7505
 8637TIP3   OH247325   4.836   0.452   6.074 -0.2626  0.1787 -0.3006
 8637TIP3    H147326   4.894   0.490   6.140  0.2279 -1.0796  0.0269
 8637TIP3    H247327   4.748   0.461   6.112 -0.1965  1.1789 -0.3496
 8638TIP3   OH247328   1.467   2.241  12.577  0.0279  0.3502  0.1832
 8638TIP3    H147329   1.383   2.238  12.622  0.5827 -0.3479  1.2419
 8638TIP3    H247330   1.446   2.240  12.484 -1.1052 -2.7052  0.3595
 8639TIP3   OH247331   4.617   6.630  15.169 -0.6090 -0.4175 -0.0812
 8639TIP3    H147332   4.543   6.655  15.225 -0.9311 -1.8001  0.1686
 8639TIP3    H247333   4.593   6.662  15.082 -0.7425  0.5552  0.3008
 8640TIP3   OH247334   4.365   1.868  12.389  0.2457 -0.0090  0.4098
 8640TIP3    H147335   4.403   1.955  12.382 -2.5185  1.4307  1.6784
 8640TIP3    H247336   4.363   1.834  12.300  0.3614  1.7139 -0.2744
 8641TIP3   OH247337   1.157   0.682  12.813 -0.0082  0.1173  0.1907
 8641TIP3    H147338   1.139   0.625  12.738 -1.0275 -1.9702  1.9172
 8641TIP3    H247339   1.242   0.652  12.846 -0.5361 -0.3948  1.0963
 8642TIP3   OH247340   0.051   4.984  15.388 -1.0774  0.4016 -0.5116
 8642TIP3    H147341  -0.022   4.928  15.413 -0.8449  0.6563  0.7659
 8642TIP3    H247342   0.072   5.033  15.467 -0.2146  1.1088 -1.1644
 8643TIP3   OH247343   3.279   4.326  14.873 -0.3586  0.3079 -0.5308
 8643TIP3    H147344   3.192   4.301  14.844  0.2041  0.1381 -2.2214
 8643TIP3    H247345   3.265   4.393  14.940 -1.7845 -0.6812  0.1835
 8644TIP3   OH247346   5.870   5.858   3.527 -0.0034 -0.2128 -0.4271
 8644TIP3    H147347   5.832   5.895   3.607  1.5372 -0.9180  0.7044
 8644TIP3    H247348   5.896   5.769   3.552 -0.4287 -0.8288 -2.0444
 8645TIP3   OH247349   0.765   4.801   3.061  0.1926  0.2371  0.5696
 8645TIP3    H147350   0.802   4.876   3.016  1.6217 -0.1755  0.9886
 8645TIP3    H247351   0.713   4.839   3.132 -0.1916  0.8360 -0.0200
 8646TIP3   OH247352   5.713   4.362   3.516 -0.5470  0.2231  0.4474
 8646TIP3    H147353   5.764   4.410   3.582  1.2460  1.1618 -1.4985
 8646TIP3    H247354   5.687   4.281   3.560  3.3796 -0.7256  1.3566
 8647TIP3   OH247355   0.483   6.198  14.074 -0.0302 -0.3272  0.0418
 8647TIP3    H147356   0.548   6.194  14.003  0.0157 -1.5483  0.1231
 8647TIP3    H247357   0.421   6.128  14.053 -0.7243  0.1303  0.5433
 8648TIP3   OH247358   5.876   5.834  14.374  0.0590  0.4304 -0.4442
 8648TIP3    H147359   5.799   5.792  14.337  1.4038 -1.1747 -1.5384
 8648TIP3    H247360   5.912   5.886  14.303  0.8048 -0.0175 -0.4063
 8649TIP3   OH247361   6.784   5.006  15.053  0.2978 -0.0836 -0.0274
 8649TIP3    H147362   6.830   4.928  15.021  2.3452  1.2979 -0.7050
 8649TIP3    H247363   6.754   4.982  15.140 -0.6439 -2.1694 -0.8583
 8650TIP3   OH247364   6.520   3.567   4.396  0.0726  0.4260  0.3875
 8650TIP3    H147365   6.504   3.553   4.489 -0.2930  2.8646  0.7596
 8650TIP3    H247366   6.433   3.570   4.357  0.2185 -0.3717 -0.0346
 8651TIP3   OH247367   0.444   2.521   2.766 -0.1552  0.2787 -0.7698
 8651TIP3    H147368   0.423   2.614   2.771 -1.3996 -0.0159 -0.3567
 8651TIP3    H247369   0.532   2.514   2.806 -0.8304  1.0311  0.9468
 8652TIP3   OH247370   2.533   0.407  14.543 -0.3226 -0.0721 -0.3149
 8652TIP3    H147371   2.503   0.341  14.482  0.4130 -0.2830 -0.4480
 8652TIP3    H247372   2.478   0.484  14.524  1.0856  0.4885 -2.5026
 8653TIP3   OH247373   5.803   1.919  12.887  0.3552 -0.4719 -0.1545
 8653TIP3    H147374   5.814   1.836  12.841  2.3710  0.9900 -2.5314
 8653TIP3    H247375   5.836   1.985  12.827  1.1681  1.8486  2.6042
 8654TIP3   OH247376   5.324   1.377  16.080 -0.2072 -0.2137 -0.6872
 8654TIP3    H147377   5.285   1.307  16.029  1.2949 -1.0736 -0.7269
 8654TIP3    H247378   5.419   1.363  16.072  0.1041  0.6924  0.8628
 8655TIP3   OH247379   5.535   2.964  13.342  0.5960  0.6155  0.1309
 8655TIP3    H147380   5.596   2.952  13.415  0.4433 -1.3590 -0.0148
 8655TIP3    H247381   5.581   2.930  13.266  0.1413  1.1984 -0.4159
 8656TIP3   OH247382   6.766   1.881   3.207 -0.2380  0.6167 -0.2589
 8656TIP3    H147383   6.823   1.864   3.131  0.5112 -0.2477  0.4803
 8656TIP3    H247384   6.826   1.898   3.279 -0.9414  0.8863  0.2762
 8657TIP3   OH247385   4.615   2.571  12.287 -0.0903  0.0578  0.3008
 8657TIP3    H147386   4.562   2.649  12.271 -0.3009 -0.1151  0.1393
 8657TIP3    H247387   4.704   2.604  12.302 -0.1746  0.3246  0.2132
 8658TIP3   OH247388   2.399   2.747   3.555  0.6378 -0.9013 -0.1609
 8658TIP3    H147389   2.470   2.808   3.534 -1.0543  0.4829 -2.3107
 8658TIP3    H247390   2.351   2.789   3.627  1.0898 -1.0769  0.2450
 8659TIP3   OH247391   2.057   1.407   1.324 -0.1838  0.0509  0.4040
 8659TIP3    H147392   2.067   1.322   1.280 -0.6054  1.1764 -2.0362
 8659TIP3    H247393   2.089   1.392   1.413  2.3365 -1.9998 -0.7112
 8660TIP3   OH247394   5.637   3.695  13.024 -0.0880  0.3751  0.0472
 8660TIP3    H147395   5.709   3.665  13.080  0.5610 -0.5925 -1.2572
 8660TIP3    H247396   5.678   3.753  12.961  0.0181 -1.8532 -2.0692
 8661TIP3   OH247397   0.823   4.770   4.356  0.3834 -0.2285  0.6898
 8661TIP3    H147398   0.745   4.825   4.357 -0.1827 -1.0217  1.0948
 8661TIP3    H247399   0.805   4.703   4.291  0.8764 -0.2055  0.5268
 8662TIP3   OH247400   2.294   3.395  15.224 -0.3172  0.2057  0.2833
 8662TIP3    H147401   2.307   3.455  15.298 -1.9142  1.5031 -0.4278
 8662TIP3    H247402   2.202   3.369  15.230 -0.7134  0.9788 -1.6723
 8663TIP3   OH247403   6.133   0.351   0.042 -0.3500 -0.2985 -0.4449
 8663TIP3    H147404   6.068   0.281   0.049 -0.8053  0.2882  1.8739
 8663TIP3    H247405   6.087   0.421  -0.006 -0.1336 -1.2456 -2.1118
 8664TIP3   OH247406   4.665   5.458   2.306 -0.9547 -0.4643  0.6898
 8664TIP3    H147407   4.712   5.418   2.379 -0.1367 -1.1297 -0.1769
 8664TIP3    H247408   4.725   5.525   2.273 -0.9182 -0.8147  0.0362
 8665TIP3   OH247409   2.362   3.536  14.158  0.2911 -0.4981  0.1061
 8665TIP3    H147410   2.394   3.596  14.225 -1.1721  0.1199  0.2913
 8665TIP3    H247411   2.333   3.592  14.087 -0.8206 -0.9752  0.1572
 8666TIP3   OH247412   2.675   5.087  16.328  0.6032 -0.4524 -0.2435
 8666TIP3    H147413   2.638   4.999  16.333  0.6540 -0.5531 -1.3999
 8666TIP3    H247414   2.602   5.145  16.350  0.7709 -0.7952  1.3212
 8667TIP3   OH247415   3.755   3.961  12.642  0.6532  0.1375  0.1136
 8667TIP3    H147416   3.746   4.046  12.685 -2.0561  0.7853 -1.4926
 8667TIP3    H247417   3.830   3.972  12.583 -0.2356  1.8394 -0.8008
 8668TIP3   OH247418   2.450   3.324  13.094 -0.2508  0.0289  0.0784
 8668TIP3    H147419   2.412   3.389  13.154 -0.5179  1.5556 -1.6511
 8668TIP3    H247420   2.539   3.355  13.077 -0.3959 -0.0055 -0.8054
 8669TIP3   OH247421   4.825   5.496  13.961 -1.1518  0.1513  0.2710
 8669TIP3    H147422   4.853   5.434  13.894  1.0028 -0.6141  1.7789
 8669TIP3    H247423   4.851   5.456  14.044 -2.6271  1.6181  1.5266
 8670TIP3   OH247424   0.292   6.705  16.024 -0.8723  0.2917  0.0621
 8670TIP3    H147425   0.201   6.697  16.053 -0.4846  1.4259  1.7145
 8670TIP3    H247426   0.296   6.791  15.982 -1.2652 -1.0564 -2.9906
 8671TIP3   OH247427   1.508   1.530   5.181 -0.1802  0.2799 -0.0572
 8671TIP3    H147428   1.495   1.539   5.087  1.0651 -0.7724 -0.3613
 8671TIP3    H247429   1.473   1.443   5.202 -0.8899  0.7002  0.5540
 8672TIP3   OH247430   1.462   2.812   2.296 -0.0782  0.1145 -0.6620
 8672TIP3    H147431   1.391   2.800   2.233 -0.2638 -0.2676 -0.3864
 8672TIP3    H247432   1.476   2.725   2.333  1.0237  0.0298 -1.2186
 8673TIP3   OH247433   2.109   1.486  16.733  0.5621  0.1583 -0.2436
 8673TIP3    H147434   2.133   1.538  16.656  0.1327 -1.2217 -1.3634
 8673TIP3    H247435   2.028   1.526  16.764  0.2072  0.1508 -1.1163
 8674TIP3   OH247436   2.336   2.283  16.499  0.2207 -0.1248  0.4618
 8674TIP3    H147437   2.254   2.308  16.541 -0.6667 -1.0250 -0.6772
 8674TIP3    H247438   2.382   2.232  16.566 -1.3223 -1.8342  0.3061
 8675TIP3   OH247439   5.541   5.743  15.921 -0.1176  0.3134  0.6236
 8675TIP3    H147440   5.611   5.679  15.937 -0.3724 -0.0446  0.3276
 8675TIP3    H247441   5.579   5.827  15.947  0.4863  0.1496  0.2929
 8676TIP3   OH247442   5.320   3.263  12.992  0.0538  0.2795 -0.5168
 8676TIP3    H147443   5.323   3.216  13.075  1.9518  1.2980  0.0511
 8676TIP3    H247444   5.293   3.197  12.928  0.4705 -1.0153  0.5923
 8677TIP3   OH247445   6.163   5.666   4.176  0.0023  0.3257  0.3446
 8677TIP3    H147446   6.102   5.593   4.188  0.8522 -0.1744  1.9518
 8677TIP3    H247447   6.239   5.643   4.229  0.4770  2.1914  0.5510
 8678TIP3   OH247448   4.764   0.274  16.921  0.4275  0.4275  0.0631
 8678TIP3    H147449   4.692   0.219  16.888  0.8371  0.9248 -1.7930
 8678TIP3    H247450   4.783   0.334  16.849  2.2223  0.7926  0.7839
 8679TIP3   OH247451   6.175   6.557   3.790 -0.0505  0.5603 -0.3399
 8679TIP3    H147452   6.239   6.628   3.797 -0.5120  0.9991 -0.4634
 8679TIP3    H247453   6.091   6.599   3.806 -0.3556  0.0840 -0.6662
 8680TIP3   OH247454   6.625   3.043  12.202 -0.0672 -0.2401 -0.4948
 8680TIP3    H147455   6.630   3.008  12.113  0.1542  1.4300 -1.1845
 8680TIP3    H247456   6.709   3.087  12.215 -0.7561  1.0297 -0.1449
 8681TIP3   OH247457   5.940   3.376   0.179  0.0727 -0.1237  0.1698
 8681TIP3    H147458   5.969   3.285   0.181 -0.0370 -0.1659 -0.0728
 8681TIP3    H247459   5.845   3.371   0.166  0.1015  0.0263 -0.1193
 8682TIP3   OH247460   5.352   2.742  16.822  0.2856  0.2834  0.1252
 8682TIP3    H147461   5.416   2.688  16.777  0.2982 -0.0657  0.5512
 8682TIP3    H247462   5.355   2.712  16.913 -0.5140  0.2248  0.1404
 8683TIP3   OH247463   5.996   4.838   3.782  0.0415 -0.5612 -0.4706
 8683TIP3    H147464   6.008   4.924   3.822  1.7394 -1.6017  1.4427
 8683TIP3    H247465   6.016   4.776   3.852 -1.1550 -2.5419 -1.7926
 8684TIP3   OH247466   5.965   4.321   1.209  0.3271  0.3056 -0.7119
 8684TIP3    H147467   5.966   4.244   1.152  0.9071  0.9794 -1.6309
 8684TIP3    H247468   6.043   4.310   1.264 -1.1309 -1.2338  1.2504
 8685TIP3   OH247469   4.518   6.565  16.213 -0.4873  0.4800  0.2814
 8685TIP3    H147470   4.607   6.531  16.214 -1.0707 -1.1307 -0.0262
 8685TIP3    H247471   4.527   6.657  16.236  1.3580  0.5902 -0.7048
 8686TIP3   OH247472   4.679   1.879   0.318  0.1354 -0.7208  0.3235
 8686TIP3    H147473   4.737   1.896   0.244 -0.6562 -2.1072 -0.6790
 8686TIP3    H247474   4.654   1.965   0.350  0.7218 -0.0881 -0.8628
 8687TIP3   OH247475   6.291   6.077   2.566 -0.3289 -0.3687  0.0791
 8687TIP3    H147476   6.305   6.101   2.657  0.8576  0.1357 -0.2133
 8687TIP3    H247477   6.377   6.088   2.525 -1.2958  1.6649 -1.5974
 8688TIP3   OH247478   6.337   5.339  16.374  0.0907 -0.2203  0.0483
 8688TIP3    H147479   6.325   5.248  16.347  2.4553 -0.9327  1.0780
 8688TIP3    H247480   6.298   5.391  16.304 -1.2868 -2.0212 -0.5724
 8689TIP3   OH247481   2.289   3.666   3.522 -0.7398 -0.2837  0.6503
 8689TIP3    H147482   2.243   3.726   3.463  0.6603  0.4405  0.2469
 8689TIP3    H247483   2.259   3.690   3.610  0.4850  1.7331  0.6024
 8690TIP3   OH247484   6.508   4.743   2.891  0.6553  0.1043  0.0802
 8690TIP3    H147485   6.431   4.788   2.924  1.0258 -0.4348  1.7964
 8690TIP3    H247486   6.493   4.651   2.911  1.8982  0.0362  0.8072
 8691TIP3   OH247487   2.224   5.838   0.675 -0.2654  0.4687  0.2198
 8691TIP3    H147488   2.203   5.755   0.633 -0.4471 -0.4868  2.0848
 8691TIP3    H247489   2.142   5.888   0.672  0.3090  1.4249 -2.5541
 8692TIP3   OH247490   4.052   0.774  11.535 -0.0087 -0.6055  0.2648
 8692TIP3    H147491   4.089   0.689  11.560  0.7048 -1.2234 -2.5766
 8692TIP3    H247492   4.005   0.758  11.454  0.6897  1.8015 -0.7309
 8693TIP3   OH247493   0.809   6.709  14.163 -0.2822  0.3133  0.7471
 8693TIP3    H147494   0.744   6.722  14.093 -0.0816  2.2097  0.8531
 8693TIP3    H247495   0.820   6.614  14.168 -1.8367  0.0239 -0.3808
 8694TIP3   OH247496   1.470   4.446   3.183  0.6443  0.3286  0.3942
 8694TIP3    H147497   1.530   4.487   3.121 -0.6392  0.8094 -0.5779
 8694TIP3    H247498   1.397   4.415   3.129  0.1487 -0.4918  1.5010
 8695TIP3   OH247499   2.117   5.101  16.021 -0.4479 -0.3607 -0.3948
 8695TIP3    H147500   2.196   5.055  15.990 -0.0706  1.1760 -1.8382
 8695TIP3    H247501   2.045   5.041  16.001  0.1844 -1.0817 -0.5845
 8696TIP3   OH247502   5.378   6.537   1.499  0.1733  0.2651 -1.3352
 8696TIP3    H147503   5.411   6.451   1.473  0.0794 -0.1382 -0.1638
 8696TIP3    H247504   5.447   6.573   1.556 -0.7637  0.0041  0.0020
 8697TIP3   OH247505   2.602   0.513  15.374 -0.3747  0.6877 -0.1383
 8697TIP3    H147506   2.692   0.483  15.360 -0.2815  0.4544  0.8752
 8697TIP3    H247507   2.556   0.436  15.408 -1.1360  0.6238 -1.2361
 8698TIP3   OH247508   5.957   6.229  13.535  0.1377  0.4273 -0.5024
 8698TIP3    H147509   5.909   6.297  13.488  1.7799  0.4200 -2.3135
 8698TIP3    H247510   6.010   6.276  13.598 -0.7789  0.5801  0.1729
 8699TIP3   OH247511   3.827   6.613   2.725  0.1153 -0.8355 -0.3198
 8699TIP3    H147512   3.848   6.670   2.799  1.4342 -1.1995 -0.3900
 8699TIP3    H247513   3.778   6.540   2.763 -1.7475  0.3857 -0.2531
 8700TIP3   OH247514   3.363   3.930   5.637  0.5075  0.0391 -0.2823
 8700TIP3    H147515   3.384   3.930   5.543  1.3700  1.8645 -0.1322
 8700TIP3    H247516   3.276   3.968   5.642  1.2965  1.9470 -0.2453
 8701TIP3   OH247517   1.644   3.912   0.932 -0.1583  0.9718 -0.4350
 8701TIP3    H147518   1.725   3.901   0.881 -0.1006  0.0491 -0.1653
 8701TIP3    H247519   1.672   3.900   1.023 -0.9296 -1.6455 -0.4619
 8702TIP3   OH247520   0.262   2.748  11.386  0.0068  0.0231  0.0183
 8702TIP3    H147521   0.171   2.717  11.384  0.4695 -1.3942 -0.1682
 8702TIP3    H247522   0.281   2.759  11.479 -0.2258 -0.1058  0.0830
 8703TIP3   OH247523   6.429   5.954   5.110  0.3814 -0.2972  0.3343
 8703TIP3    H147524   6.363   5.990   5.052 -1.0926 -1.1001  1.4329
 8703TIP3    H247525   6.440   5.863   5.081  1.4463 -0.0133 -0.1982
 8704TIP3   OH247526   0.347   3.427   4.184 -0.2424  0.2636  1.0048
 8704TIP3    H147527   0.410   3.499   4.186  0.0601  0.0869 -0.6082
 8704TIP3    H247528   0.319   3.423   4.092 -2.6607  0.3785  1.6552
 8705TIP3   OH247529   0.955   2.427  16.019 -0.4329 -0.6116  0.0122
 8705TIP3    H147530   1.007   2.374  15.958 -2.0093 -1.2531 -0.8236
 8705TIP3    H247531   0.912   2.362  16.075 -0.6511 -0.1132  0.4226
 8706TIP3   OH247532   5.033   6.378  16.590 -0.0597  0.3228  0.2497
 8706TIP3    H147533   5.096   6.328  16.538  1.5065 -0.4055  2.6329
 8706TIP3    H247534   4.948   6.356  16.553  0.8393 -1.4581 -0.9189
 8707TIP3   OH247535   2.327   3.997   5.554  0.4482 -0.3713  0.3617
 8707TIP3    H147536   2.370   4.076   5.586  0.1690  0.5036 -1.3008
 8707TIP3    H247537   2.234   4.022   5.548  0.3338 -0.8790  0.0044
 8708TIP3   OH247538   4.654   6.583  15.883  0.9434 -0.7316 -0.0218
 8708TIP3    H147539   4.618   6.633  15.810  2.2204 -2.1773 -1.7405
 8708TIP3    H247540   4.640   6.639  15.960 -0.6727  0.7372 -1.3046
 8709TIP3   OH247541   4.988   1.259   4.218  0.3275 -0.8684 -0.1830
 8709TIP3    H147542   5.005   1.297   4.132 -3.6435  1.3576 -0.2509
 8709TIP3    H247543   5.032   1.317   4.280  2.0522 -1.6880 -0.5998
 8710TIP3   OH247544   1.345   6.359  13.454 -0.3379 -0.2445  0.2163
 8710TIP3    H147545   1.347   6.453  13.434 -1.1931 -0.3927 -0.6412
 8710TIP3    H247546   1.396   6.350  13.534  1.1122  0.7325 -0.5654
 8711TIP3   OH247547   5.853   2.188  12.784 -0.0618 -0.4569 -0.1201
 8711TIP3    H147548   5.791   2.198  12.712  0.0354  0.2187 -0.1162
 8711TIP3    H247549   5.930   2.238  12.757 -0.5357  0.9712  1.0232
 8712TIP3   OH247550   0.982   5.365  11.466  0.0212 -0.1643  0.3223
 8712TIP3    H147551   1.058   5.405  11.508 -0.2211  0.6520 -0.0082
 8712TIP3    H247552   0.910   5.380  11.527  0.1303 -1.0434  0.6926
 8713TIP3   OH247553   5.113   2.558  15.886 -0.3884  0.2102 -0.5236
 8713TIP3    H147554   5.034   2.570  15.938  0.1204 -1.3768  0.7007
 8713TIP3    H247555   5.184   2.553  15.950  0.0919 -3.3048 -1.1313
 8714TIP3   OH247556   0.432   3.106   3.170 -0.5529  0.7384 -0.2589
 8714TIP3    H147557   0.449   3.047   3.097  0.3453  0.8297 -0.1269
 8714TIP3    H247558   0.486   3.072   3.241 -0.2577  1.5482 -0.0921
 8715TIP3   OH247559   3.587   6.209   4.941 -0.1323  0.2640 -0.1895
 8715TIP3    H147560   3.571   6.208   5.035  0.8317  0.1143 -0.0166
 8715TIP3    H247561   3.638   6.130   4.924 -1.2320 -0.2815 -1.0203
 8716TIP3   OH247562   3.057   5.548   1.551  0.0979  0.0721 -0.6380
 8716TIP3    H147563   3.105   5.580   1.627 -1.3026 -1.6102  1.0494
 8716TIP3    H247564   3.125   5.523   1.489  1.4498 -1.4039  1.3103
 8717TIP3   OH247565   1.112   0.895   4.653 -0.0608 -0.1262  0.2875
 8717TIP3    H147566   1.082   0.977   4.694 -0.8998  0.5371 -1.5369
 8717TIP3    H247567   1.092   0.827   4.718  0.1977  1.0382  1.6354
 8718TIP3   OH247568   6.520   2.868  11.855 -0.5477  0.1117  0.2937
 8718TIP3    H147569   6.435   2.843  11.890 -0.2082 -0.0792  0.9911
 8718TIP3    H247570   6.579   2.798  11.881 -0.0190  0.6117  0.4826
 8719TIP3   OH247571   3.205   3.098  14.458  0.4852  0.2693  0.5179
 8719TIP3    H147572   3.174   3.040  14.528  1.5916  0.3777  1.1171
 8719TIP3    H247573   3.201   3.044  14.379  1.2700 -0.5643  1.0298
 8720TIP3   OH247574   6.308   1.161  11.382 -0.4810  0.7724  1.0169
 8720TIP3    H147575   6.249   1.112  11.440  0.3776 -0.0564  1.2229
 8720TIP3    H247576   6.304   1.251  11.415 -0.7306  0.4978  1.7640
 8721TIP3   OH247577   2.532   4.759  14.827  0.0951  0.2788 -0.1235
 8721TIP3    H147578   2.605   4.789  14.882 -0.5914  0.1712  0.8702
 8721TIP3    H247579   2.524   4.665  14.848  0.1163  0.1328 -0.7519
 8722TIP3   OH247580   5.646   5.772   0.617 -0.2940  0.0128  0.0085
 8722TIP3    H147581   5.710   5.701   0.619 -1.5729 -1.1895  0.9685
 8722TIP3    H247582   5.628   5.787   0.524  0.4302 -0.5130 -0.2198
 8723TIP3   OH247583   6.350   0.411  14.993  0.5907  0.1591  0.2240
 8723TIP3    H147584   6.271   0.365  14.963  1.8076 -2.1500  0.3453
 8723TIP3    H247585   6.356   0.390  15.086 -0.2540  2.8818  0.9866
 8724TIP3   OH247586   2.948   4.654  11.205  0.2065  0.3551  0.9273
 8724TIP3    H147587   2.895   4.726  11.241  1.2155  2.7035 -1.8498
 8724TIP3    H247588   2.920   4.647  11.113  1.1504 -1.8807  0.7447
 8725TIP3   OH247589   3.922   1.211  12.112  0.2352  0.0166 -0.0571
 8725TIP3    H147590   3.872   1.292  12.118 -0.2901 -0.4007  1.8414
 8725TIP3    H247591   3.975   1.221  12.033 -2.0740  0.9094 -1.6037
 8726TIP3   OH247592   3.383   3.615   0.783  0.1711  0.0203  0.0659
 8726TIP3    H147593   3.386   3.697   0.832 -0.5120 -0.7410  1.4608
 8726TIP3    H247594   3.427   3.552   0.840 -0.0377 -0.7668 -0.6225
 8727TIP3   OH247595   0.494   6.604   5.406 -0.4907 -0.1300  0.8223
 8727TIP3    H147596   0.543   6.557   5.473 -0.0628 -1.1933 -0.2004
 8727TIP3    H247597   0.412   6.555   5.397 -1.1341  0.7844  1.4822
 8728TIP3   OH247598   1.868   0.783  13.207  0.4290  0.3257 -0.1891
 8728TIP3    H147599   1.860   0.769  13.113 -0.5122 -0.8659  0.0455
 8728TIP3    H247600   1.857   0.696  13.246  0.3601  0.8625  1.0495
 8729TIP3   OH247601   3.409   6.050  15.127  0.3299  0.1757  0.2352
 8729TIP3    H147602   3.343   6.047  15.057 -0.1426 -2.3669  0.6848
 8729TIP3    H247603   3.490   6.019  15.085 -0.1988 -2.4069  0.9403
 8730TIP3   OH247604   0.369   3.528   5.636 -0.6428  0.4629  0.5619
 8730TIP3    H147605   0.391   3.436   5.654  3.4324  0.8349 -1.3682
 8730TIP3    H247606   0.403   3.575   5.712 -2.8751  0.4574  1.6261
 8731TIP3   OH247607   1.630   5.094   4.438  0.2494  0.3970  0.0475
 8731TIP3    H147608   1.565   5.072   4.505 -0.7908 -1.3890 -1.4481
 8731TIP3    H247609   1.626   5.189   4.432  0.2218  0.6156  2.3083
 8732TIP3   OH247610   6.514   0.708   0.638 -0.2189  0.0795 -0.0556
 8732TIP3    H147611   6.609   0.720   0.627 -0.1654  0.3250  0.5929
 8732TIP3    H247612   6.482   0.688   0.551  0.6643 -1.5840 -0.0425
 8733TIP3   OH247613   6.399   3.986   0.784 -0.8774  0.3418 -0.1348
 8733TIP3    H147614   6.401   3.933   0.704 -0.3792 -0.0089  0.1077
 8733TIP3    H247615   6.307   4.013   0.792 -1.1227 -0.4259 -0.3007
 8734TIP3   OH247616   0.388   3.138   1.241  0.4573 -0.0578  0.2554
 8734TIP3    H147617   0.354   3.227   1.250  0.5572  0.1059 -0.7880
 8734TIP3    H247618   0.321   3.092   1.191  1.7963  0.3325 -2.0265
 8735TIP3   OH247619   3.115   6.269   4.757 -0.4978  0.1232 -0.2445
 8735TIP3    H147620   3.206   6.291   4.776 -0.1069  1.1728 -2.8744
 8735TIP3    H247621   3.064   6.324   4.816  0.5250 -0.4603  1.2409
 8736TIP3   OH247622   4.078   0.130  12.222 -0.0371  0.4369  0.1677
 8736TIP3    H147623   3.988   0.156  12.243  0.1399  0.1037  1.3690
 8736TIP3    H247624   4.089   0.044  12.262  0.3841 -0.1579 -1.1615
 8737TIP3   OH247625   1.051   0.658  10.642  0.4621 -0.2691  0.1996
 8737TIP3    H147626   1.133   0.700  10.666  0.7272 -1.9574  2.6147
 8737TIP3    H247627   1.064   0.629  10.551  2.3178  0.0118  0.3472
 8738TIP3   OH247628   3.042   0.852   1.667 -0.2183 -0.4442  1.0424
 8738TIP3    H147629   3.137   0.846   1.667 -0.1520 -0.1263 -1.1884
 8738TIP3    H247630   3.019   0.863   1.759  2.0014  0.9708  1.5103
 8739TIP3   OH247631   4.773   0.881  11.936  0.1620 -0.1702 -0.2371
 8739TIP3    H147632   4.829   0.804  11.950 -0.3172 -0.4322  0.2736
 8739TIP3    H247633   4.689   0.857  11.976 -0.3092  0.2294 -0.9837
 8740TIP3   OH247634   4.089   0.193   0.334 -0.0455  0.0898 -0.7021
 8740TIP3    H147635   4.041   0.139   0.271 -0.6764  0.9822 -1.0051
 8740TIP3    H247636   4.021   0.232   0.389  0.5477 -2.2102  1.8842
 8741TIP3   OH247637   0.287   4.004   0.641  0.0848  0.1075  0.7889
 8741TIP3    H147638   0.374   4.017   0.680  0.7500  1.0335 -0.8636
 8741TIP3    H247639   0.226   4.042   0.704  0.8734 -0.5952  1.9980
 8742TIP3   OH247640   0.434   2.441  16.792  0.2148 -0.4177  0.0844
 8742TIP3    H147641   0.348   2.464  16.758  0.2342 -0.9285 -0.3306
 8742TIP3    H247642   0.493   2.505  16.753 -0.0967  0.5144  1.1127
 8743TIP3   OH247643   2.477   6.551  14.491  0.0770  0.2544 -0.2430
 8743TIP3    H147644   2.419   6.622  14.464 -0.1367  0.3019  0.3236
 8743TIP3    H247645   2.491   6.500  14.412  0.5196  1.1215 -0.7387
 8744TIP3   OH247646   2.992   4.043   6.445 -0.4200  0.3969 -0.7939
 8744TIP3    H147647   3.034   4.063   6.529  0.5611  1.1905 -1.4469
 8744TIP3    H247648   2.901   4.067   6.458 -0.5422 -0.5840  0.4034
 8745TIP3   OH247649   5.644   0.036   0.973  0.1847  0.0110  0.1828
 8745TIP3    H147650   5.652   0.126   1.007  0.6742  0.3764 -0.8691
 8745TIP3    H247651   5.633   0.047   0.879  2.5548 -1.1069 -0.2828
 8746TIP3   OH247652   3.075   0.135  11.093 -0.0994 -0.9488  0.4711
 8746TIP3    H147653   3.026   0.054  11.108  0.3357 -1.1586  0.7997
 8746TIP3    H247654   3.165   0.106  11.079 -0.0310 -0.5554  0.0754
 8747TIP3   OH247655   4.720   2.830  16.455 -0.2481  0.1427  0.2166
 8747TIP3    H147656   4.785   2.762  16.477 -0.7012 -1.5931 -3.1006
 8747TIP3    H247657   4.645   2.781  16.422 -1.3936  2.2487 -0.4756
 8748TIP3   OH247658   3.842   5.955  14.555 -0.3676  0.0961 -0.3626
 8748TIP3    H147659   3.888   5.903  14.621 -0.7699  0.3720  0.1441
 8748TIP3    H247660   3.859   5.911  14.472 -0.2203 -0.5028 -0.0133
 8749TIP3   OH247661   0.745   0.314   6.268 -0.0276  0.0176  0.4457
 8749TIP3    H147662   0.709   0.334   6.182  0.2265  1.3553  0.6293
 8749TIP3    H247663   0.668   0.309   6.325 -0.3049 -1.9411  0.0020
 8750TIP3   OH247664   3.674   5.548   4.139 -0.7153 -0.8321  0.0821
 8750TIP3    H147665   3.728   5.627   4.149 -2.1440  0.2228 -0.1981
 8750TIP3    H247666   3.723   5.493   4.079 -0.0716  0.2280 -0.3932
 8751TIP3   OH247667   1.139   1.003   3.654  0.6018 -0.7564 -0.4150
 8751TIP3    H147668   1.235   1.009   3.656  0.5448  1.1080 -1.5716
 8751TIP3    H247669   1.109   1.073   3.712 -0.0618  0.0969 -1.7550
 8752TIP3   OH247670   0.539   4.994   0.978 -0.4750  0.2923 -0.2714
 8752TIP3    H147671   0.511   5.003   1.069  0.7615 -0.0674  0.1650
 8752TIP3    H247672   0.623   5.038   0.973 -0.3079 -0.0831 -1.1313
 8753TIP3   OH247673   4.669   2.289  12.543  0.0303  0.1451  0.4786
 8753TIP3    H147674   4.610   2.276  12.469  0.9176 -1.4486  0.0029
 8753TIP3    H247675   4.710   2.203  12.556  1.5171  0.9584  1.4071
 8754TIP3   OH247676   0.404   6.779   2.268  0.5461  0.0153  0.1740
 8754TIP3    H147677   0.488   6.749   2.301  0.9187  1.8078  0.9532
 8754TIP3    H247678   0.397   6.741   2.180  0.4801 -3.1426  1.4131
 8755TIP3   OH247679   4.925   1.922   3.390  0.2039  0.4208  0.1145
 8755TIP3    H147680   4.918   1.830   3.367  2.1511  0.0979  0.5967
 8755TIP3    H247681   4.868   1.968   3.328 -0.3665 -1.0400 -0.4730
 8756TIP3   OH247682   4.974   0.463  16.206 -0.3009 -0.1633  0.9957
 8756TIP3    H147683   5.052   0.496  16.251 -0.3906 -0.2296  1.2004
 8756TIP3    H247684   4.948   0.534  16.147  0.6629 -0.6236 -0.0153
 8757TIP3   OH247685   3.051   0.122   4.486  0.1270  0.4724  0.6132
 8757TIP3    H147686   3.092   0.072   4.416 -0.6430 -0.7463  1.0022
 8757TIP3    H247687   2.970   0.075   4.505 -0.5632  1.7972  1.0959
 8758TIP3   OH247688   1.642   3.553   2.162  0.3755  0.0696 -0.0461
 8758TIP3    H147689   1.686   3.591   2.086  0.3451  0.5088  0.1544
 8758TIP3    H247690   1.562   3.604   2.171  1.9991  2.4638  2.4209
 8759TIP3   OH247691   5.559   6.175  16.780  0.2592 -0.4581 -0.6659
 8759TIP3    H147692   5.571   6.090  16.820  0.7420  1.1712  3.0453
 8759TIP3    H247693   5.638   6.190  16.729  0.7613 -1.6782 -0.2621
 8760TIP3   OH247694   5.134   4.015   0.551  0.4607  0.2689 -0.6577
 8760TIP3    H147695   5.083   3.985   0.626 -0.3051 -0.1550 -1.3373
 8760TIP3    H247696   5.220   4.035   0.587 -0.2022  1.0765  0.5178
 8761TIP3   OH247697   6.455   0.261  14.372 -0.8583 -0.1290 -0.0936
 8761TIP3    H147698   6.373   0.268  14.422 -0.0844  0.9681  1.0788
 8761TIP3    H247699   6.501   0.343  14.390  1.7135 -1.7590  1.4933
 8762TIP3   OH247700   4.461   0.674  11.592  0.1534 -0.0185  0.0721
 8762TIP3    H147701   4.502   0.748  11.637 -0.4652  1.8571 -2.2727
 8762TIP3    H247702   4.468   0.695  11.499 -1.6584 -2.0682 -0.6211
 8763TIP3   OH247703   3.899   5.271  16.086  0.1011  0.1146  0.3843
 8763TIP3    H147704   3.898   5.366  16.074  3.1704  0.5350  2.3009
 8763TIP3    H247705   3.946   5.238  16.009  0.7045  0.3984  0.6213
 8764TIP3   OH247706   0.105   3.107   4.267  0.1259  0.5028  0.3094
 8764TIP3    H147707   0.156   3.034   4.232  0.7793  1.0222  0.1436
 8764TIP3    H247708   0.156   3.137   4.343 -1.0193 -0.3002  1.4381
 8765TIP3   OH247709   6.558   2.329  16.644 -0.3483 -0.1212  0.0348
 8765TIP3    H147710   6.648   2.330  16.611 -0.3999  0.8950 -0.0993
 8765TIP3    H247711   6.538   2.421  16.660 -2.2301 -0.0093 -2.3458
 8766TIP3   OH247712   6.595   2.017  15.747 -0.3445 -0.4111 -0.0591
 8766TIP3    H147713   6.502   2.030  15.728 -0.5026 -0.7001  0.4868
 8766TIP3    H247714   6.597   1.939  15.803 -0.0663  1.2169  2.3709
 8767TIP3   OH247715   2.210   6.794  15.725  0.2815 -0.4530 -0.6286
 8767TIP3    H147716   2.253   6.875  15.753 -1.5624  0.5312 -0.4592
 8767TIP3    H247717   2.256   6.768  15.645  3.0553 -1.1245  1.0493
 8768TIP3   OH247718   1.334   1.640   3.496  0.2280  0.0811 -0.5031
 8768TIP3    H147719   1.385   1.721   3.484  1.5059 -0.8018 -1.2269
 8768TIP3    H247720   1.399   1.571   3.505 -0.8243 -0.7289  1.4967
 8769TIP3   OH247721   3.145   3.339   0.125 -0.1387  0.5561 -0.3530
 8769TIP3    H147722   3.145   3.246   0.148 -0.7641  0.6638  0.0986
 8769TIP3    H247723   3.231   3.370   0.155 -0.1535  0.2473  0.0264
 8770TIP3   OH247724   4.662   5.812  12.353  0.4880  0.0704  0.2135
 8770TIP3    H147725   4.610   5.815  12.273 -0.1627  1.3993  0.6537
 8770TIP3    H247726   4.753   5.806  12.322  0.3081  1.3232 -0.6747
 8771TIP3   OH247727   6.003   1.801   4.591 -0.1494  0.0172 -0.6977
 8771TIP3    H147728   6.086   1.846   4.606 -0.6439  0.9164 -0.6230
 8771TIP3    H247729   6.027   1.721   4.544  1.1058 -1.2209  1.7991
 8772TIP3   OH247730   0.933   6.175   1.251  0.6743  0.8924 -0.7570
 8772TIP3    H147731   0.889   6.192   1.167 -0.4162 -0.0843 -0.4121
 8772TIP3    H247732   0.863   6.182   1.316  0.9615 -0.8768 -0.2044
 8773TIP3   OH247733   0.350   0.698   0.987  0.0616  0.1254 -0.6382
 8773TIP3    H147734   0.382   0.668   1.072  0.9398 -0.7301 -1.2509
 8773TIP3    H247735   0.260   0.665   0.984  0.0397  0.1156 -0.0687
 8774TIP3   OH247736   5.298   2.738  13.229  0.1868 -1.0116  0.7201
 8774TIP3    H147737   5.322   2.830  13.243 -0.1375 -0.8792  0.4295
 8774TIP3    H247738   5.235   2.741  13.157  2.1930 -1.7055 -1.1828
 8775TIP3   OH247739   3.832   3.961   5.757 -0.7503 -0.4926  0.4336
 8775TIP3    H147740   3.779   3.949   5.678 -0.2635  2.0713 -0.3778
 8775TIP3    H247741   3.768   3.983   5.825 -0.9567  0.0961  0.0566
 8776TIP3   OH247742   3.778   1.165   2.231 -0.4264  0.3069 -0.8788
 8776TIP3    H147743   3.849   1.224   2.254  0.2962 -0.6664 -0.5833
 8776TIP3    H247744   3.800   1.082   2.272 -1.5045 -0.1457 -1.1621
 8777TIP3   OH247745   3.904   4.572   1.655 -0.2165  0.4310 -0.4768
 8777TIP3    H147746   3.935   4.492   1.696 -1.7981 -1.0226 -1.9247
 8777TIP3    H247747   3.957   4.582   1.576 -0.4431  0.4359 -0.6322
 8778TIP3   OH247748   0.980   4.144   4.377 -0.5913  0.3853 -0.6399
 8778TIP3    H147749   1.056   4.202   4.377 -0.8093  0.6921  0.4131
 8778TIP3    H247750   0.967   4.121   4.469 -1.3957 -0.1656 -0.8757
 8779TIP3   OH247751   1.832   1.234  11.994  0.3475 -0.5206  0.0524
 8779TIP3    H147752   1.763   1.255  11.931  0.5697 -0.8194 -0.2965
 8779TIP3    H247753   1.884   1.314  12.002  0.7664 -0.7071 -0.7215
 8780TIP3   OH247754   5.907   6.067   0.400 -0.0490 -0.0550  0.0149
 8780TIP3    H147755   5.956   6.020   0.467  1.0669  0.0581 -0.6984
 8780TIP3    H247756   5.841   6.005   0.370 -0.8256  0.0368  1.4874
 8781TIP3   OH247757   0.578   4.956  16.979 -0.6078 -0.2811 -0.6613
 8781TIP3    H147758   0.584   4.946  17.074  2.2973 -1.4961 -0.8631
 8781TIP3    H247759   0.485   4.948  16.960 -1.3042  0.2155  2.0675
 8782TIP3   OH247760   6.128   6.136   4.235 -0.0800  0.4503 -1.2855
 8782TIP3    H147761   6.205   6.169   4.279  0.1201 -0.0439 -1.2561
 8782TIP3    H247762   6.055   6.155   4.295  0.1437  0.0835 -0.8941
 8783TIP3   OH247763   5.431   1.167  17.132 -0.2548 -0.2950 -0.3557
 8783TIP3    H147764   5.410   1.203  17.218  0.0362  0.6017 -0.6412
 8783TIP3    H247765   5.484   1.090  17.150  0.5707  0.3928  0.2660
 8784TIP3   OH247766   3.186   3.037   2.113  0.1657 -0.3121 -0.2343
 8784TIP3    H147767   3.253   2.987   2.066  0.9933  0.8927 -0.3732
 8784TIP3    H247768   3.188   3.124   2.072 -0.7885  0.0429  0.4373
 8785TIP3   OH247769   4.784   4.727   2.447  0.1324 -0.0131  0.1613
 8785TIP3    H147770   4.811   4.641   2.417 -1.0694 -0.4639  0.3322
 8785TIP3    H247771   4.788   4.721   2.543  1.4328  0.5938  0.1691
 8786TIP3   OH247772   4.027   1.690  11.441  1.0157 -0.0098  0.1843
 8786TIP3    H147773   3.982   1.623  11.493  0.2810  0.2799 -0.0699
 8786TIP3    H247774   4.000   1.773  11.479  0.2900  0.2162 -0.7901
 8787TIP3   OH247775   3.597   0.796  13.507  0.4207 -0.1882  0.1214
 8787TIP3    H147776   3.616   0.889  13.518  0.9513 -0.1320 -1.1063
 8787TIP3    H247777   3.668   0.752  13.554 -0.6499 -0.0180  2.0092
 8788TIP3   OH247778   5.610   4.041  11.800 -1.0336 -0.0140 -0.6417
 8788TIP3    H147779   5.564   3.957  11.806 -1.7732  0.4656  2.6437
 8788TIP3    H247780   5.558   4.101  11.854  2.3358  1.0337  1.8433
 8789TIP3   OH247781   4.163   1.428   3.411  0.2058  0.4056 -0.7671
 8789TIP3    H147782   4.155   1.408   3.504  0.6355  0.8475 -0.6276
 8789TIP3    H247783   4.121   1.355   3.367 -0.1048  0.2478 -0.2219
 8790TIP3   OH247784   1.950   0.597   3.992  0.0189  0.3658 -0.5465
 8790TIP3    H147785   1.869   0.546   3.996  1.0970 -1.4602 -0.5704
 8790TIP3    H247786   1.951   0.647   4.073  0.0034 -1.4933  0.6614
 8791TIP3   OH247787   4.627   5.674   1.414 -0.3699  0.7798 -0.5237
 8791TIP3    H147788   4.614   5.580   1.405 -0.5636  0.9888 -3.6684
 8791TIP3    H247789   4.544   5.707   1.448 -0.1014 -0.1831  1.1873
 8792TIP3   OH247790   1.548   0.665   1.051 -0.0269 -1.0139 -0.1613
 8792TIP3    H147791   1.468   0.637   1.006  0.0449  0.0571 -0.9871
 8792TIP3    H247792   1.525   0.662   1.144 -1.4284  0.3946 -0.4197
 8793TIP3   OH247793   0.400   3.400  11.457 -0.2004  0.5408 -0.0339
 8793TIP3    H147794   0.425   3.459  11.386 -1.2597  0.4106 -0.5352
 8793TIP3    H247795   0.406   3.453  11.536  2.7884  0.2082  0.0782
 8794TIP3   OH247796   3.659   2.671  14.824 -0.3736 -0.1459  0.5535
 8794TIP3    H147797   3.633   2.595  14.772  2.4477 -1.1710  0.4350
 8794TIP3    H247798   3.729   2.712  14.773  0.2102  0.7558  1.9965
 8795TIP3   OH247799   6.002   0.255   3.351 -0.1996 -0.6950 -0.0863
 8795TIP3    H147800   6.078   0.209   3.388  3.0073  2.6745 -1.7691
 8795TIP3    H247801   5.967   0.194   3.286  2.5509 -1.6553 -0.8261
 8796TIP3   OH247802   5.655   6.223   4.149 -0.3450  0.0569 -0.8805
 8796TIP3    H147803   5.561   6.236   4.148 -0.4681 -0.7152 -0.3772
 8796TIP3    H247804   5.668   6.144   4.202  0.9114  2.9082  3.5894
 8797TIP3   OH247805   0.094   1.646   0.869 -0.2840 -0.2818  0.4135
 8797TIP3    H147806   0.057   1.724   0.826  0.2755 -0.6794 -0.8032
 8797TIP3    H247807   0.158   1.612   0.807  0.3483 -1.0340  1.4562
 8798TIP3   OH247808   4.216   6.489   5.602  0.1328 -0.2654  0.7327
 8798TIP3    H147809   4.224   6.418   5.666  0.6711 -0.0227  0.9430
 8798TIP3    H247810   4.258   6.454   5.523  1.8453  0.3594  1.3030
 8799TIP3   OH247811   2.728   5.452  12.862  0.0766 -0.1277  0.8857
 8799TIP3    H147812   2.650   5.443  12.917 -0.8055  0.8104 -0.1521
 8799TIP3    H247813   2.696   5.437  12.773  1.4308 -1.4211  0.5844
 8800TIP3   OH247814   6.764   2.550  16.181  0.0417  0.4124  0.0825
 8800TIP3    H147815   6.766   2.642  16.207 -1.7827  0.7025 -0.7179
 8800TIP3    H247816   6.823   2.507  16.244 -0.3873  1.8465  1.5353
 8801TIP3   OH247817   2.949   3.566  13.207 -0.9600 -0.9706 -0.5816
 8801TIP3    H147818   3.020   3.532  13.263  0.0744 -0.1997 -1.3868
 8801TIP3    H247819   2.973   3.539  13.119 -1.6459 -0.6388 -0.8789
 8802TIP3   OH247820   2.380   3.860  11.300  0.3108  0.6527  0.1837
 8802TIP3    H147821   2.418   3.947  11.292  1.7861  0.1794  1.6170
 8802TIP3    H247822   2.418   3.810  11.227 -1.0793  1.3203 -1.0760
 8803TIP3   OH247823   1.481   6.262  13.947  0.4347  0.2246 -0.4448
 8803TIP3    H147824   1.432   6.230  14.023  1.5080  1.3486  0.7707
 8803TIP3    H247825   1.572   6.241  13.967  1.2356  3.8419  0.4628
 8804TIP3   OH247826   0.132   6.108   4.028  0.5215  0.2490  0.1556
 8804TIP3    H147827   0.042   6.090   4.001  0.8668  0.0391 -0.8967
 8804TIP3    H247828   0.131   6.199   4.058 -0.2194 -0.0248  0.9807
 8805TIP3   OH247829   5.829   2.449   3.916 -0.4335  0.0666 -0.4022
 8805TIP3    H147830   5.787   2.413   3.837 -2.2062 -0.2797  0.6238
 8805TIP3    H247831   5.774   2.417   3.988  1.3227  0.0897  1.0205
 8806TIP3   OH247832   2.504   1.317  16.115 -0.1274  0.5355 -0.1230
 8806TIP3    H147833   2.504   1.354  16.026 -0.7879 -1.2204 -0.9008
 8806TIP3    H247834   2.577   1.360  16.159  0.5869  1.0188 -1.7039
 8807TIP3   OH247835   3.934   0.097  12.529 -0.2020  0.2238  0.5695
 8807TIP3    H147836   3.955   0.031  12.462  2.2394  0.0516  1.3886
 8807TIP3    H247837   3.974   0.178  12.495 -1.7788  0.9293  0.3324
 8808TIP3   OH247838   5.684   1.500  11.938  0.1358 -0.1319 -0.4261
 8808TIP3    H147839   5.640   1.439  11.997 -1.1492  0.9124 -0.2519
 8808TIP3    H247840   5.777   1.489  11.956 -0.1659 -0.8197  0.8069
 8809TIP3   OH247841   1.198   5.652  14.569 -0.4585 -0.1003  0.1896
 8809TIP3    H147842   1.159   5.573  14.605 -1.1676  1.1379  2.3529
 8809TIP3    H247843   1.217   5.706  14.646  0.9499  1.4130 -1.1369
 8810TIP3   OH247844   5.920   2.627  16.006 -0.6873 -0.0607  0.3415
 8810TIP3    H147845   5.887   2.539  15.990 -0.1256 -0.2802  0.3711
 8810TIP3    H247846   5.841   2.680  16.023 -0.9734 -0.7142  1.1201
 8811TIP3   OH247847   1.654   4.654  12.336 -0.0612  0.4167  0.0428
 8811TIP3    H147848   1.591   4.596  12.378  0.4230 -0.5854 -0.5886
 8811TIP3    H247849   1.706   4.597  12.280 -0.8219  1.7295 -2.1237
 8812TIP3   OH247850   5.445   4.434  13.178 -0.3112  0.1764 -0.1003
 8812TIP3    H147851   5.525   4.401  13.137 -0.7372  0.6038 -1.2973
 8812TIP3    H247852   5.419   4.365  13.239  1.4972  0.4423  1.0392
 8813TIP3   OH247853   3.811   4.499   2.093 -0.5360  0.1240 -0.5087
 8813TIP3    H147854   3.786   4.487   2.185 -1.3982 -2.3957 -0.9796
 8813TIP3    H247855   3.728   4.515   2.048 -0.1357  1.1864 -0.9031
 8814TIP3   OH247856   5.120   3.289   3.791 -0.0782 -0.2643 -0.2255
 8814TIP3    H147857   5.122   3.264   3.698  1.3739  0.3677 -0.3963
 8814TIP3    H247858   5.156   3.213   3.837  0.7176  0.0351 -0.3494
 8815TIP3   OH247859   2.896   5.862  15.564  0.2464  0.3154 -0.4987
 8815TIP3    H147860   2.882   5.952  15.534 -1.9306  0.2010  0.0037
 8815TIP3    H247861   2.927   5.871  15.654  1.7715  0.5623 -1.0220
 8816TIP3   OH247862   5.112   5.421  11.205  0.1847  0.2803  0.3728
 8816TIP3    H147863   5.146   5.468  11.281  0.9233  2.4830 -1.2299
 8816TIP3    H247864   5.038   5.473  11.174  0.3728 -0.1410 -0.8667
 8817TIP3   OH247865   0.193   2.333  14.875 -0.3504  0.1674 -0.3588
 8817TIP3    H147866   0.197   2.275  14.799  1.3503  0.5174 -0.5679
 8817TIP3    H247867   0.221   2.418  14.842  1.4082  0.1047  0.8282
 8818TIP3   OH247868   3.149   1.068   0.528 -0.2145  0.2394 -0.4012
 8818TIP3    H147869   3.164   1.072   0.433 -2.1373  0.0966 -0.7673
 8818TIP3    H247870   3.074   1.009   0.537 -0.7936  1.1539  1.1117
 8819TIP3   OH247871   6.485   5.135   1.995 -0.4344 -0.3627  0.2064
 8819TIP3    H147872   6.409   5.123   2.052 -1.2141  0.0847 -0.7108
 8819TIP3    H247873   6.525   5.048   1.989 -1.9965 -1.0357 -0.8445
 8820TIP3   OH247874   6.072   0.046   0.065  0.5774  0.6302 -0.0076
 8820TIP3    H147875   5.981   0.021   0.076  0.7594 -0.0406 -0.0072
 8820TIP3    H247876   6.103  -0.008  -0.008  1.0524  0.6517  0.1759
 8821TIP3   OH247877   5.579   2.930   4.974 -0.8953 -0.0367  0.0182
 8821TIP3    H147878   5.567   2.947   4.881 -1.2900  0.4558  0.1523
 8821TIP3    H247879   5.568   2.835   4.982 -0.5586 -0.1209 -0.4771
 8822TIP3   OH247880   3.199   2.401   4.476  0.4416 -0.1586  0.0625
 8822TIP3    H147881   3.213   2.357   4.560  0.4855  0.0767  0.1778
 8822TIP3    H247882   3.253   2.351   4.415  1.2976  0.3419  0.3855
 8823TIP3   OH247883   6.145   1.740  16.042 -0.5433  0.2099  0.0565
 8823TIP3    H147884   6.072   1.685  16.017 -1.6284  1.3142  0.6999
 8823TIP3    H247885   6.220   1.681  16.045 -1.1603 -0.7290 -1.7164
 8824TIP3   OH247886   4.919   5.353   3.984  0.0707  0.0493 -0.0442
 8824TIP3    H147887   4.871   5.356   4.067 -0.1053  2.4627 -0.1841
 8824TIP3    H247888   4.860   5.393   3.920  1.5473  1.4937 -0.5684
 8825TIP3   OH247889   0.231   0.449   3.740 -0.2649 -0.7924 -0.3995
 8825TIP3    H147890   0.212   0.543   3.745  0.0949 -0.7325 -0.1549
 8825TIP3    H247891   0.181   0.411   3.813 -0.6171 -0.8280 -0.6548
 8826TIP3   OH247892   5.454   1.333   3.017 -0.9074 -0.3243 -0.4719
 8826TIP3    H147893   5.506   1.413   3.011 -0.9924 -0.2005  0.3456
 8826TIP3    H247894   5.370   1.356   2.977 -0.6345 -0.2794 -1.0393
 8827TIP3   OH247895   6.344   5.172   2.225  0.1755  0.8446 -0.3373
 8827TIP3    H147896   6.270   5.123   2.261  0.8858  0.2130  0.3057
 8827TIP3    H247897   6.309   5.260   2.209 -1.2185  0.0773 -1.8091
 8828TIP3   OH247898   5.826   2.881  17.114 -0.2938 -0.0778  0.2375
 8828TIP3    H147899   5.749   2.889  17.057  1.0902  0.7676 -1.5872
 8828TIP3    H247900   5.804   2.934  17.191 -2.0736 -0.9815  0.4037
 8829TIP3   OH247901   3.272   2.199   4.673  0.4090  0.0503  0.3569
 8829TIP3    H147902   3.186   2.164   4.649  1.5839 -1.7144 -1.4835
 8829TIP3    H247903   3.260   2.231   4.763 -1.0727 -4.2301  1.9107
 8830TIP3   OH247904   1.265   2.681   2.154  0.2368 -0.4789  0.3012
 8830TIP3    H147905   1.325   2.630   2.100 -1.3589 -0.6096 -1.4755
 8830TIP3    H247906   1.185   2.628   2.157  0.1642 -0.3364  2.6303
 8831TIP3   OH247907   5.463   0.137  14.624  0.4096 -0.3517  0.0694
 8831TIP3    H147908   5.409   0.080  14.569 -1.0307 -1.1267  2.1834
 8831TIP3    H247909   5.471   0.091  14.707  1.6939  1.2207  0.8785
 8832TIP3   OH247910   2.403   2.190   0.652  0.5996 -0.3184 -0.3636
 8832TIP3    H147911   2.308   2.178   0.660  0.5917 -0.9883 -1.3323
 8832TIP3    H247912   2.414   2.284   0.636 -0.0395 -0.4482 -1.7641
 8833TIP3   OH247913   2.522   2.678   5.938 -0.1802 -0.6794  0.1050
 8833TIP3    H147914   2.608   2.669   5.978  0.0990  0.9337 -0.0690
 8833TIP3    H247915   2.465   2.708   6.008 -0.1495  0.1342 -0.2016
 8834TIP3   OH247916   5.058   4.530   3.264 -0.3583 -0.1273  0.1602
 8834TIP3    H147917   5.106   4.609   3.287  0.9238 -0.6957 -0.4803
 8834TIP3    H247918   5.011   4.552   3.184 -0.7937  0.2751  0.5190
 8835TIP3   OH247919   0.613   4.595  12.586 -0.8143  0.1044 -0.1135
 8835TIP3    H147920   0.650   4.515  12.549 -1.1648 -0.2000  0.1987
 8835TIP3    H247921   0.523   4.573  12.608 -1.2638  0.8984 -1.0518
 8836TIP3   OH247922   1.053   3.524  14.839  0.1159  0.1011  0.6596
 8836TIP3    H147923   1.098   3.445  14.868  2.6407  1.2801  0.2351
 8836TIP3    H247924   1.028   3.568  14.921 -1.5525 -1.1960  0.8981
 8837TIP3   OH247925   0.617   2.773  12.790 -0.1425 -0.2225  0.4570
 8837TIP3    H147926   0.605   2.866  12.808 -0.8215  0.0497 -1.1586
 8837TIP3    H247927   0.573   2.727  12.861 -3.4434  0.7401 -0.8000
 8838TIP3   OH247928   1.024   3.854  13.483 -0.0130  0.0499  0.3858
 8838TIP3    H147929   1.104   3.884  13.438 -1.5583  0.5949 -2.2343
 8838TIP3    H247930   0.953   3.898  13.436 -1.9380 -1.2209  1.9594
 8839TIP3   OH247931   6.686   0.261   1.428 -0.0755 -0.1952 -0.0144
 8839TIP3    H147932   6.742   0.216   1.365  0.6902 -1.8836  1.7745
 8839TIP3    H247933   6.628   0.315   1.375  0.2473 -1.8543 -2.1646
 8840TIP3   OH247934   1.277   1.914  11.211  0.1972 -0.0433  0.1222
 8840TIP3    H147935   1.345   1.978  11.231  0.2489  0.0069 -0.2160
 8840TIP3    H247936   1.294   1.843  11.273 -0.9632  1.0275  1.7324
 8841TIP3   OH247937   5.767   0.963   5.702 -0.1088  0.5394 -0.1957
 8841TIP3    H147938   5.687   0.945   5.653 -0.1906 -0.3535  0.2450
 8841TIP3    H247939   5.826   0.891   5.680 -0.3022 -0.1317  1.3241
 8842TIP3   OH247940   0.537   5.096   5.775 -0.1724 -0.3883 -0.2817
 8842TIP3    H147941   0.468   5.073   5.837  0.6957 -0.3003  0.7567
 8842TIP3    H247942   0.567   5.012   5.740 -2.1991 -0.3223 -2.3573
 8843TIP3   OH247943   2.787   5.487  16.386 -0.5177  0.2773 -0.6703
 8843TIP3    H147944   2.847   5.561  16.373  0.6888 -0.7875 -1.4241
 8843TIP3    H247945   2.823   5.417  16.332 -0.4283 -1.5420  1.5863
 8844TIP3   OH247946   0.668   5.110   2.576  0.1263  0.2084  0.4695
 8844TIP3    H147947   0.655   5.044   2.508 -2.0352  1.4680 -0.4668
 8844TIP3    H247948   0.593   5.100   2.635 -1.3330  2.8958 -0.7398
 8845TIP3   OH247949   0.192   5.847   4.112  0.2579  0.5097 -0.3440
 8845TIP3    H147950   0.170   5.870   4.202 -0.2499  0.5338 -0.4732
 8845TIP3    H247951   0.151   5.915   4.059  1.0993  0.8572 -0.5535
 8846TIP3   OH247952   3.457   5.325   2.150  0.3791 -0.1409  0.2440
 8846TIP3    H147953   3.480   5.290   2.064  1.1812  0.5115  0.1884
 8846TIP3    H247954   3.521   5.287   2.210  1.3332  1.2896  0.1673
 8847TIP3   OH247955   2.298   4.567  11.894  0.3894 -0.3416 -0.1725
 8847TIP3    H147956   2.263   4.644  11.938  0.6294  1.1305 -2.3751
 8847TIP3    H247957   2.383   4.596  11.860 -0.1635 -1.0465 -2.2983
 8848TIP3   OH247958   5.765   1.533   6.414 -0.2796  0.2211 -0.1636
 8848TIP3    H147959   5.825   1.475   6.461 -1.4545 -1.3086 -0.4838
 8848TIP3    H247960   5.765   1.613   6.465  1.3393 -0.0592  0.3382
 8849TIP3   OH247961   3.261   6.191   4.124 -0.6954  0.8393  0.0531
 8849TIP3    H147962   3.284   6.176   4.033  1.3829  0.4783  0.5839
 8849TIP3    H247963   3.260   6.104   4.164  1.1806  1.1696  0.9328
 8850TIP3   OH247964   2.946   6.318   2.564 -0.5114  0.3646  0.0549
 8850TIP3    H147965   3.016   6.381   2.579 -0.4261 -0.1364  1.9128
 8850TIP3    H247966   2.866   6.371   2.566 -0.3681  0.5653  0.5675
 8851TIP3   OH247967   0.626   4.083   1.565  0.2118 -0.1707 -0.0443
 8851TIP3    H147968   0.717   4.052   1.574  0.0626 -0.5795  0.0674
 8851TIP3    H247969   0.629   4.173   1.597  0.4573 -0.3784  0.5459
 8852TIP3   OH247970   4.334   2.715   3.575 -0.1516  0.1692  0.1443
 8852TIP3    H147971   4.333   2.773   3.499  0.1042 -0.0665 -0.0407
 8852TIP3    H247972   4.394   2.757   3.637  1.5717 -0.8370 -0.7478
 8853TIP3   OH247973   3.814   2.264  13.396 -0.1045  0.3800  0.3059
 8853TIP3    H147974   3.788   2.207  13.322 -2.4948  0.0922  1.2814
 8853TIP3    H247975   3.869   2.331  13.356  1.0580 -1.3718 -1.2423
 8854TIP3   OH247976   2.891   0.884  14.353  0.1912  0.3355  0.3663
 8854TIP3    H147977   2.831   0.824  14.398  1.1887  1.0665  2.8615
 8854TIP3    H247978   2.835   0.932  14.292 -1.1137 -1.2753  0.2168
 8855TIP3   OH247979   3.321   0.797  12.119 -0.0819  0.0398 -0.3911
 8855TIP3    H147980   3.382   0.736  12.077 -0.5535 -2.1079  1.8096
 8855TIP3    H247981   3.373   0.876  12.135  0.7090  0.0715 -2.8380
 8856TIP3   OH247982   3.797   5.147  13.494 -0.6572  0.8668  0.7328
 8856TIP3    H147983   3.825   5.089  13.423 -0.0904  2.6723 -0.5989
 8856TIP3    H247984   3.876   5.160  13.547 -0.8810  0.1461  1.2550
 8857TIP3   OH247985   3.400   0.523  10.458 -0.1322 -0.2568 -0.2055
 8857TIP3    H147986   3.476   0.542  10.403  1.2270  1.0686  1.9692
 8857TIP3    H247987   3.326   0.560  10.409  0.5566 -1.4637 -2.3156
 8858TIP3   OH247988   6.140   6.580  15.990  0.2090  0.5937 -0.0645
 8858TIP3    H147989   6.203   6.509  16.002 -0.7757 -0.5632 -1.4161
 8858TIP3    H247990   6.194   6.659  15.983  1.5129 -0.3286 -0.9823
 8859TIP3   OH247991   6.693   2.757   5.751  0.6062  0.0172 -0.4534
 8859TIP3    H147992   6.664   2.677   5.706 -0.4767 -0.7506  1.5065
 8859TIP3    H247993   6.674   2.741   5.843  2.4727  1.6507  0.2816
 8860TIP3   OH247994   5.200   0.564  11.567 -0.0044 -0.2540 -0.2044
 8860TIP3    H147995   5.114   0.574  11.608 -0.0611 -1.0629 -0.1140
 8860TIP3    H247996   5.262   0.594  11.635  0.0028 -2.9220  1.0999
 8861TIP3   OH247997   2.427   1.865   5.921 -0.3572 -0.0485  0.0205
 8861TIP3    H147998   2.385   1.838   6.002  0.6548  0.8692  0.8803
 8861TIP3    H247999   2.446   1.958   5.932  1.3327 -0.2750 -0.5393
 8862TIP3   OH248000   6.065   1.487  15.845  0.2331  0.3368 -0.3343
 8862TIP3    H148001   6.058   1.503  15.751  0.4584 -0.1815 -0.4413
 8862TIP3    H248002   6.159   1.484  15.862  0.1932  0.3444 -0.1108
 8863TIP3   OH248003   2.314   4.734  13.752 -0.4411  0.1690 -0.1361
 8863TIP3    H148004   2.390   4.742  13.811 -0.5141  0.0923 -0.0299
 8863TIP3    H248005   2.321   4.645  13.717 -0.2851  0.2845 -0.4008
 8864TIP3   OH248006   3.424   3.154   1.026 -0.0713 -0.4743  0.0640
 8864TIP3    H148007   3.401   3.233   0.978  1.3288 -0.7795 -1.1871
 8864TIP3    H248008   3.367   3.086   0.991  0.1984 -0.4612 -0.4049
 8865TIP3   OH248009   5.130   3.800  12.536 -0.0458  0.4594 -0.5480
 8865TIP3    H148010   5.139   3.753  12.618  1.9991  0.2707 -0.8185
 8865TIP3    H248011   5.039   3.830  12.535 -0.7121 -1.3158  0.7820
 8866TIP3   OH248012   2.633   1.419  11.435 -0.1182  0.2446  0.1343
 8866TIP3    H148013   2.649   1.343  11.379 -0.4704  0.0043  0.3550
 8866TIP3    H248014   2.697   1.412  11.505 -0.4195 -0.0721  0.3779
 8867TIP3   OH248015   5.812   4.908  10.878 -1.0098 -0.4211  0.1501
 8867TIP3    H148016   5.792   4.953  10.796 -2.2298  0.0638  0.7032
 8867TIP3    H248017   5.779   4.819  10.865 -0.6056 -0.5409 -0.1087
 8868TIP3   OH248018   5.696   4.460  17.130  0.3995 -0.2326  0.0550
 8868TIP3    H148019   5.686   4.367  17.110 -1.2756 -0.3196  1.0803
 8868TIP3    H248020   5.634   4.504  17.072  0.6257  0.1684  0.1111
 8869TIP3   OH248021   1.294   5.079   1.465  0.2481  0.2111  0.0130
 8869TIP3    H148022   1.280   5.174   1.471 -0.9097  0.1649 -1.3861
 8869TIP3    H248023   1.359   5.069   1.396 -0.8447 -0.0398 -1.0294
 8870TIP3   OH248024   5.059   1.572   4.207 -0.0352  0.1385  0.2055
 8870TIP3    H148025   5.132   1.629   4.181  0.2796 -0.8768 -1.2606
 8870TIP3    H248026   5.014   1.621   4.276  2.1686  0.6662  1.3360
 8871TIP3   OH248027   3.972   2.848   3.209 -0.7279  0.3261  0.0232
 8871TIP3    H148028   4.006   2.838   3.120 -1.7282 -1.0786 -0.2258
 8871TIP3    H248029   3.986   2.763   3.250 -1.8382  0.4230  0.6494
 8872TIP3   OH248030   2.982   2.975   0.379 -0.0912 -0.6656  0.6763
 8872TIP3    H148031   3.049   2.907   0.389  0.7295  0.2014  1.1889
 8872TIP3    H248032   2.970   2.982   0.284  1.9845  0.5050  0.4387
 8873TIP3   OH248033   5.864   4.875   2.105  0.1399 -0.0510  0.7381
 8873TIP3    H148034   5.945   4.921   2.127 -0.7988  1.2156  1.6997
 8873TIP3    H248035   5.867   4.795   2.158  0.4505  0.3227  1.2903
 8874TIP3   OH248036   4.985   3.478  10.755 -0.0157  0.5141  0.2981
 8874TIP3    H148037   5.047   3.546  10.727 -0.4191  1.4110  1.5154
 8874TIP3    H248038   4.932   3.520  10.823  0.2894 -1.2606  1.7138
 8875TIP3   OH248039   6.250   3.903  16.648  0.5999 -0.0777  0.2235
 8875TIP3    H148040   6.199   3.966  16.700 -0.5892 -0.7760 -0.0561
 8875TIP3    H248041   6.338   3.908  16.684  0.3620  1.2075  0.7021
 8876TIP3   OH248042   2.059   0.146  15.122  0.3715  0.3249 -0.7753
 8876TIP3    H148043   2.142   0.103  15.145  0.1247  0.3049  0.1295
 8876TIP3    H248044   2.021   0.170  15.207 -1.2468 -0.9955 -1.0668
 8877TIP3   OH248045   5.704   0.695  10.489 -0.0509  0.0813 -0.2675
 8877TIP3    H148046   5.789   0.650  10.484  0.1956  0.4606  0.3941
 8877TIP3    H248047   5.722   0.784  10.460 -0.2804  0.0957 -0.3713
 8878TIP3   OH248048   2.726   4.499  17.140  0.4071  0.1087 -0.1024
 8878TIP3    H148049   2.686   4.507  17.053  0.9862  2.6677 -0.2198
 8878TIP3    H248050   2.662   4.451  17.192 -0.9479  0.4791 -1.3617
 8879TIP3   OH248051   1.244   0.927  16.954 -0.7712 -0.4211  0.3779
 8879TIP3    H148052   1.291   0.843  16.959  2.2951  1.1910  1.3202
 8879TIP3    H248053   1.303   0.985  16.906 -3.0817  1.1221 -0.8048
 8880TIP3   OH248054   3.814   5.735  10.648  0.0631 -0.0277  0.6608
 8880TIP3    H148055   3.900   5.730  10.606 -0.5673 -1.1660 -0.5549
 8880TIP3    H248056   3.820   5.676  10.722  0.3435 -0.0452  0.6253
 8881TIP3   OH248057   1.106   6.586  13.738  0.0862  0.2492  0.2969
 8881TIP3    H148058   1.173   6.653  13.744 -1.7689  2.4107 -1.1943
 8881TIP3    H248059   1.145   6.508  13.777  3.1225  1.5867  0.1558
 8882TIP3   OH248060   4.586   2.302  14.955 -0.1764  0.0420  0.8241
 8882TIP3    H148061   4.609   2.259  14.872 -1.6408  0.1933  0.2910
 8882TIP3    H248062   4.623   2.246  15.023  1.0895 -0.0655  0.0735
 8883TIP3   OH248063   1.525   1.850   3.531  0.3413  0.5980  0.6795
 8883TIP3    H148064   1.611   1.866   3.570  1.0695 -2.5374  0.6657
 8883TIP3    H248065   1.545   1.822   3.441 -0.8200  1.1381  0.2332
 8884TIP3   OH248066   5.916   4.607   4.880  0.1421 -0.5291  0.6912
 8884TIP3    H148067   5.973   4.681   4.860 -1.4386 -0.1056 -3.2230
 8884TIP3    H248068   5.859   4.639   4.950 -1.7888  2.9606 -2.0986
 8885TIP3   OH248069   2.494   1.855  12.744 -0.0389 -0.6459  0.6576
 8885TIP3    H148070   2.414   1.872  12.794 -1.3231 -1.4331 -0.9859
 8885TIP3    H248071   2.518   1.939  12.706 -2.2186 -0.9442 -1.6828
 8886TIP3   OH248072   1.195   2.860   0.723  0.5248 -0.5899  0.2583
 8886TIP3    H148073   1.202   2.844   0.629  0.4938 -0.7766  0.2883
 8886TIP3    H248074   1.107   2.894   0.736 -0.4548 -3.0873  0.5833
 8887TIP3   OH248075   4.283   3.660   4.293 -0.4262  0.3997  0.1872
 8887TIP3    H148076   4.272   3.689   4.202  1.7547 -2.2600 -1.0838
 8887TIP3    H248077   4.362   3.704   4.324 -1.5581  1.8591  1.1358
 8888TIP3   OH248078   4.309   3.616  11.701 -0.0325  0.1581  0.0857
 8888TIP3    H148079   4.340   3.530  11.730  2.4321  1.1699  0.7284
 8888TIP3    H248080   4.283   3.661  11.782  2.2313  1.2687  0.2638
 8889TIP3   OH248081   5.134   1.712   3.484  0.1058 -0.5472 -0.3461
 8889TIP3    H148082   5.146   1.642   3.549 -0.6492 -0.1246  0.2601
 8889TIP3    H248083   5.116   1.790   3.536 -1.0682 -0.3139 -1.0730
 8890TIP3   OH248084   4.120   4.529  13.443 -0.1176  0.6895 -0.2794
 8890TIP3    H148085   4.166   4.519  13.359  3.4868  0.7993  1.4785
 8890TIP3    H248086   4.128   4.623  13.463  0.1614  0.4584  0.7188
 8891TIP3   OH248087   1.443   6.688  11.288 -0.5594 -0.0281 -0.2129
 8891TIP3    H148088   1.349   6.674  11.293 -0.8167  0.8226 -1.9145
 8891TIP3    H248089   1.454   6.782  11.303  0.0867 -0.2006  0.4566
 8892TIP3   OH248090   6.257   1.693   4.655 -0.4434 -0.5928 -0.3483
 8892TIP3    H148091   6.285   1.672   4.566 -0.2309  0.3576 -0.5213
 8892TIP3    H248092   6.224   1.610   4.690 -2.2034 -0.6409 -1.9370
 8893TIP3   OH248093   5.278   1.231  15.601  0.4134  0.3419 -0.3551
 8893TIP3    H148094   5.359   1.234  15.653  0.6007 -1.5130 -0.4675
 8893TIP3    H248095   5.284   1.307  15.543  0.7416  1.8018  1.5157
 8894TIP3   OH248096   6.256   0.962   0.035  0.1445  0.3141 -0.1839
 8894TIP3    H148097   6.224   1.046   0.067 -1.3017  0.2446 -1.3514
 8894TIP3    H248098   6.201   0.897   0.078  0.7273  0.0011  0.1008
 8895TIP3   OH248099   3.808   6.618  12.975  0.0505 -0.3149 -0.2455
 8895TIP3    H148100   3.871   6.569  13.027  0.1588 -0.9481 -0.9559
 8895TIP3    H248101   3.861   6.679  12.924 -0.0290  0.0992  0.1693
 8896TIP3   OH248102   0.361   4.137   5.826  0.2048  0.1563 -0.3250
 8896TIP3    H148103   0.279   4.126   5.875  0.4889 -0.5200  0.0191
 8896TIP3    H248104   0.376   4.051   5.786  0.4234  0.4572 -0.8949
 8897TIP3   OH248105   5.812   1.289  16.701  0.1914 -0.2628 -0.4897
 8897TIP3    H148106   5.788   1.264  16.790  0.3893  2.1414  0.3175
 8897TIP3    H248107   5.751   1.360  16.679  1.2832  0.3848 -1.5689
 8898TIP3   OH248108   3.686   5.606   3.606 -0.2905  0.1643  0.2420
 8898TIP3    H148109   3.736   5.667   3.661 -0.4035 -0.4216  1.0161
 8898TIP3    H248110   3.629   5.560   3.668 -1.4242  0.4655 -0.5706
 8899TIP3   OH248111   5.609   0.261  11.586 -0.0461 -0.0577  0.1145
 8899TIP3    H148112   5.634   0.296  11.501 -0.1432 -0.0532  0.0871
 8899TIP3    H248113   5.513   0.257  11.582  0.0088 -1.5783 -0.3973
 8900TIP3   OH248114   2.965   3.705  14.534  0.1957  0.0378 -0.0630
 8900TIP3    H148115   2.981   3.707  14.628  1.5876  0.6875 -0.2993
 8900TIP3    H248116   2.869   3.703  14.526  0.0550  0.3178  1.3486
 8901TIP3   OH248117   6.586   4.024   5.654  0.0909  0.1709 -0.3175
 8901TIP3    H148118   6.507   3.983   5.618 -0.7722  1.4611  0.0360
 8901TIP3    H248119   6.630   4.061   5.578  0.2113 -0.2775 -0.4742
 8902TIP3   OH248120   1.954   6.469  16.448 -0.1062  0.0421  0.1513
 8902TIP3    H148121   2.003   6.388  16.432 -1.0085 -0.6422  0.7356
 8902TIP3    H248122   1.874   6.459  16.398  0.1689  0.9872 -0.4963
 8903TIP3   OH248123   3.069   3.804   1.759 -0.2513 -0.8260 -0.0390
 8903TIP3    H148124   2.986   3.851   1.755  0.3998  0.3858  0.0998
 8903TIP3    H248125   3.064   3.740   1.689 -1.4766 -1.0722  0.2551
 8904TIP3   OH248126   0.461   2.892  15.307 -0.3892  0.1699  0.6024
 8904TIP3    H148127   0.384   2.920  15.257 -0.1814 -0.2027  0.0549
 8904TIP3    H248128   0.436   2.904  15.399 -0.9854  0.3455  0.4242
 8905TIP3   OH248129   5.190   0.219   0.626  0.5068  0.4684 -0.7596
 8905TIP3    H148130   5.215   0.135   0.663  1.6520  0.8165 -0.7210
 8905TIP3    H248131   5.104   0.203   0.585  0.8668 -0.7903 -1.0523
 8906TIP3   OH248132   5.426   1.234  13.231  0.4331 -0.0304  0.1083
 8906TIP3    H148133   5.436   1.318  13.186 -0.4170 -0.4314 -0.8521
 8906TIP3    H248134   5.470   1.248  13.315 -0.5127  1.6856  0.3740
 8907TIP3   OH248135   2.229   3.994  13.959  0.3779 -0.3563  0.2081
 8907TIP3    H148136   2.205   4.077  14.000  1.5253 -0.6691  1.5839
 8907TIP3    H248137   2.174   3.929  14.003 -1.3045 -0.2477 -1.6167
 8908TIP3   OH248138   1.946   6.657   1.284  0.0516  0.5383 -0.3290
 8908TIP3    H148139   1.859   6.685   1.311  0.3275  1.0878  0.0073
 8908TIP3    H248140   2.006   6.719   1.325  0.6197  0.0332 -0.3664
 8909TIP3   OH248141   3.402   2.955  15.713  0.1324  0.0123  0.2323
 8909TIP3    H148142   3.383   2.867  15.682 -0.4849  0.6143 -1.2288
 8909TIP3    H248143   3.497   2.957  15.724  0.0041 -1.3324  2.0175
 8910TIP3   OH248144   4.044   2.595  10.661 -0.5378 -0.1452 -0.1982
 8910TIP3    H148145   4.095   2.557  10.590 -0.2768  1.7891 -1.1319
 8910TIP3    H248146   4.101   2.589  10.737  0.0924 -0.2557 -0.6646
 8911TIP3   OH248147   0.159   0.103   1.304  0.5024  0.0950 -0.6010
 8911TIP3    H148148   0.089   0.116   1.240 -0.6369 -3.5337 -0.3578
 8911TIP3    H248149   0.173   0.189   1.343 -5.2965  0.8029  0.8257
 8912TIP3   OH248150   5.418   2.266   1.099 -0.0398 -0.0528 -0.5026
 8912TIP3    H148151   5.329   2.256   1.065  0.0114  0.1848 -0.7048
 8912TIP3    H248152   5.409   2.246   1.193 -0.4316  0.6270 -0.3908
 8913TIP3   OH248153   2.349   1.370   5.545  0.0147  0.1033  0.1355
 8913TIP3    H148154   2.326   1.277   5.554 -0.6317  0.2384 -0.0710
 8913TIP3    H248155   2.265   1.414   5.529  0.4625  0.5682 -1.0050
 8914TIP3   OH248156   1.017   4.128   5.703 -0.1854  0.4404 -0.1900
 8914TIP3    H148157   1.086   4.065   5.679  0.3387  1.2537 -0.8621
 8914TIP3    H248158   0.935   4.083   5.681 -0.0214 -1.3157  2.3798
 8915TIP3   OH248159   4.399   3.932  14.829 -0.0276 -0.3686  0.0711
 8915TIP3    H148160   4.453   3.990  14.883  1.7086 -0.2835 -1.6354
 8915TIP3    H248161   4.309   3.960  14.846  0.6522  1.8068  0.4653
 8916TIP3   OH248162   0.005   1.036  16.705 -0.4627  0.3279 -0.5381
 8916TIP3    H148163   0.053   1.116  16.727 -0.4321 -0.0241  0.7486
 8916TIP3    H248164   0.028   1.019  16.613 -0.5148  1.8119 -0.8539
 8917TIP3   OH248165   1.963   0.148   2.984  0.3546 -0.3204  0.1366
 8917TIP3    H148166   1.980   0.102   3.066 -3.6732 -1.0623  0.7653
 8917TIP3    H248167   1.943   0.079   2.921  2.1556  0.3094 -1.2137
 8918TIP3   OH248168   1.668   5.144  13.756 -0.2633  0.9896 -0.6518
 8918TIP3    H148169   1.625   5.091  13.689  0.7129  0.3118 -0.7595
 8918TIP3    H248170   1.705   5.218  13.709  0.2107  0.6417 -0.8366
 8919TIP3   OH248171   6.696   0.570   0.198 -0.5149 -0.4875 -0.4310
 8919TIP3    H148172   6.624   0.632   0.197  0.7884  1.4615  3.8062
 8919TIP3    H248173   6.767   0.615   0.151 -1.0007 -1.0247 -1.7369
 8920TIP3   OH248174   1.861   5.879  10.857 -0.0935 -0.9836  1.0350
 8920TIP3    H148175   1.847   5.886  10.762 -1.5774 -0.0461  1.2773
 8920TIP3    H248176   1.852   5.969  10.888 -1.8049 -1.5358  2.2990
 8921TIP3   OH248177   2.260   2.566   1.705 -0.7271  0.2759  0.0568
 8921TIP3    H148178   2.191   2.625   1.736 -0.1661  0.6811  0.5466
 8921TIP3    H248179   2.338   2.622   1.698 -0.1662 -0.4235  0.6233
 8922TIP3   OH248180   0.747   5.783  14.602  0.4455  0.4617  0.1270
 8922TIP3    H148181   0.746   5.696  14.641  1.7280  0.6026  0.5190
 8922TIP3    H248182   0.801   5.773  14.523 -1.0217  0.4803 -0.9277
 8923TIP3   OH248183   3.202   6.221   2.356  0.4413  0.3628 -0.1090
 8923TIP3    H148184   3.137   6.206   2.425  2.2922  0.0887  1.6984
 8923TIP3    H248185   3.189   6.150   2.294 -2.4006  1.5516 -1.0648
 8924TIP3   OH248186   4.670   0.178  11.672 -0.6501 -0.3359  0.5735
 8924TIP3    H148187   4.678   0.126  11.592  0.1121 -0.6622  0.8535
 8924TIP3    H248188   4.575   0.183  11.688 -0.8387  0.0480 -0.5396
 8925TIP3   OH248189   1.813   4.452  14.193  0.1750 -0.1180  0.5220
 8925TIP3    H148190   1.746   4.512  14.223  0.7644  0.7054  0.2184
 8925TIP3    H248191   1.840   4.487  14.108  1.3905 -0.1027  0.8946
 8926TIP3   OH248192   5.738   4.793   3.699  0.7913  0.5040  0.2864
 8926TIP3    H148193   5.816   4.830   3.740  2.7093 -2.0295 -0.8031
 8926TIP3    H248194   5.677   4.779   3.772  2.3933  0.1064  1.6021
 8927TIP3   OH248195   1.808   0.611   5.474  0.2230 -0.0720  0.6402
 8927TIP3    H148196   1.805   0.617   5.570  1.2646 -1.2377  0.7715
 8927TIP3    H248197   1.899   0.589   5.455  0.1830  0.8171 -0.6795
 8928TIP3   OH248198   6.136   0.844   3.553 -0.6418 -0.0883 -0.2133
 8928TIP3    H148199   6.092   0.887   3.627 -1.3903 -0.9948 -0.1136
 8928TIP3    H248200   6.098   0.756   3.551 -1.0119  0.0878 -2.0189
 8929TIP3   OH248201   5.230   4.515  11.783  0.5919 -0.4474 -0.1623
 8929TIP3    H148202   5.159   4.458  11.752 -1.6265  1.9628  0.1196
 8929TIP3    H248203   5.234   4.497  11.877 -0.2586 -0.0354 -0.0322
 8930TIP3   OH248204   1.136   5.909  16.374  0.3905  0.0755 -0.2262
 8930TIP3    H148205   1.149   5.815  16.388  0.8120  0.1600 -0.0339
 8930TIP3    H248206   1.190   5.929  16.297  0.3677  0.1731 -0.2173
 8931TIP3   OH248207   3.510   3.348   3.010 -0.7097 -0.2476 -0.5544
 8931TIP3    H148208   3.527   3.306   2.926  0.0669 -1.1517  0.0311
 8931TIP3    H248209   3.587   3.327   3.063  0.2462  2.8394 -0.5657
 8932TIP3   OH248210   2.899   6.197  11.987  0.4872  0.5278 -0.0296
 8932TIP3    H148211   2.902   6.142  12.065  0.1693 -0.1037 -0.4575
 8932TIP3    H248212   2.891   6.136  11.914 -0.5580  1.1603 -0.4760
 8933TIP3   OH248213   4.357   6.662   0.976 -0.2983 -0.3559 -0.0241
 8933TIP3    H148214   4.337   6.641   0.885  0.9271  0.7351 -0.5743
 8933TIP3    H248215   4.419   6.594   1.004  0.7215  0.3228 -0.5932
 8934TIP3   OH248216   3.028   3.792  16.560 -0.2884  0.1007 -0.6952
 8934TIP3    H148217   3.051   3.751  16.477  0.1047 -0.2112 -0.4348
 8934TIP3    H248218   3.112   3.816  16.599 -0.4182 -0.7004  0.0933
 8935TIP3   OH248219   1.788   1.352   4.991  0.6622 -0.8254 -0.3036
 8935TIP3    H148220   1.801   1.273   5.043  1.5619 -1.6412 -1.6814
 8935TIP3    H248221   1.718   1.328   4.929  0.4242 -0.2904 -0.2410
 8936TIP3   OH248222   4.012   1.963   4.434 -0.0081  0.7844 -0.2161
 8936TIP3    H148223   3.991   2.030   4.499  1.7810  1.2722 -0.1148
 8936TIP3    H248224   4.039   1.887   4.485 -2.7646 -0.3719 -0.2977
 8937TIP3   OH248225   5.945   1.280  11.177  0.3861 -0.4767  0.0847
 8937TIP3    H148226   5.850   1.268  11.179  0.3138  0.1314  0.5699
 8937TIP3    H248227   5.962   1.345  11.245  1.0329  0.2065 -0.7202
 8938TIP3   OH248228   3.042   2.172  10.643  1.1213 -0.4250 -0.0887
 8938TIP3    H148229   3.113   2.110  10.655  1.3683 -0.0493  0.3924
 8938TIP3    H248230   3.083   2.258  10.651  0.3546 -0.1903  1.8269
 8939TIP3   OH248231   4.555   3.524   4.133 -0.9031 -0.0562  0.1072
 8939TIP3    H148232   4.591   3.564   4.212 -1.5842  0.0207  0.3847
 8939TIP3    H248233   4.612   3.554   4.063 -0.2156 -0.2233  0.5850
 8940TIP3   OH248234   6.443   1.441  15.641  0.1615  0.3009 -0.4473
 8940TIP3    H148235   6.369   1.384  15.621  0.3962  0.4019 -1.6754
 8940TIP3    H248236   6.449   1.500  15.566  0.7061  1.1122  0.2226
 8941TIP3   OH248237   0.484   4.791   3.295 -0.3054 -0.4160  0.4480
 8941TIP3    H148238   0.488   4.886   3.283 -0.4793 -0.4382  0.1884
 8941TIP3    H248239   0.566   4.768   3.338  0.3959 -0.3223 -0.7760
 8942TIP3   OH248240   6.511   4.501   3.040 -0.5265 -0.0336 -0.2846
 8942TIP3    H148241   6.546   4.458   3.118 -1.0258 -0.0401 -0.0612
 8942TIP3    H248242   6.548   4.452   2.967  1.7556  1.2964 -0.1496
 8943TIP3   OH248243   5.545   4.693  12.076 -0.2059 -0.0839  0.0273
 8943TIP3    H148244   5.570   4.611  12.034  0.9069 -0.7290  1.7958
 8943TIP3    H248245   5.506   4.746  12.006 -0.4974 -1.9122 -1.2642
 8944TIP3   OH248246   6.005   2.813   2.028  0.1984  0.2843 -0.0631
 8944TIP3    H148247   6.056   2.894   2.020  0.7485 -0.1195 -0.7221
 8944TIP3    H248248   6.047   2.765   2.099  1.0181 -0.2378 -0.8840
 8945TIP3   OH248249   2.285   2.031   5.069 -0.5893 -0.0531 -0.1982
 8945TIP3    H148250   2.279   2.018   4.975 -1.2841 -0.1074 -0.1564
 8945TIP3    H248251   2.304   1.944   5.105 -3.6239 -0.7615 -0.0435
 8946TIP3   OH248252   2.387   1.881   2.128 -0.3290  0.4349  0.4323
 8946TIP3    H148253   2.395   1.953   2.190  0.7357  0.7704 -0.0496
 8946TIP3    H248254   2.464   1.826   2.145 -1.0640 -0.5176  0.7059
 8947TIP3   OH248255   4.774   0.084   5.998 -0.1923 -0.0224 -0.6207
 8947TIP3    H148256   4.692   0.130   6.014  0.6846  1.7108 -0.8641
 8947TIP3    H248257   4.816   0.079   6.084 -0.9912 -1.8947 -0.2908
 8948TIP3   OH248258   5.017   2.650   2.689 -0.0385  0.7313 -0.0087
 8948TIP3    H148259   4.973   2.573   2.724 -1.0954  0.6573 -1.4264
 8948TIP3    H248260   5.095   2.660   2.744 -0.1514 -1.0280  0.5283
 8949TIP3   OH248261   0.218   2.418  11.510  0.2136 -0.3471 -0.1310
 8949TIP3    H148262   0.164   2.494  11.489  1.7968  0.4620 -1.5252
 8949TIP3    H248263   0.220   2.366  11.429  1.9800 -0.0125 -0.3618
 8950TIP3   OH248264   0.309   4.650  11.604  0.4936 -0.2784 -0.5231
 8950TIP3    H148265   0.327   4.697  11.686  0.9033  0.8067 -1.2095
 8950TIP3    H248266   0.311   4.718  11.537 -1.8608 -0.8006 -1.2179
 8951TIP3   OH248267   0.623   2.598  11.998 -0.4531 -0.2285  0.2952
 8951TIP3    H148268   0.595   2.655  11.927 -0.0528  1.2514  1.2909
 8951TIP3    H248269   0.705   2.559  11.967  0.2096  1.1309  0.2948
 8952TIP3   OH248270   1.933   0.135   5.731  0.1585 -0.0050  0.0655
 8952TIP3    H148271   1.942   0.050   5.773  0.2662  0.0463  0.1463
 8952TIP3    H248272   1.840   0.141   5.709 -0.0159  0.2197  0.8310
 8953TIP3   OH248273   1.122   6.587  13.149 -0.3991  0.3028  0.1892
 8953TIP3    H148274   1.139   6.502  13.190 -0.5989  0.9966  1.7965
 8953TIP3    H248275   1.048   6.571  13.091 -0.3094 -0.6706  0.3336
 8954TIP3   OH248276   2.166   6.798  13.639  0.1755  0.6636  0.1843
 8954TIP3    H148277   2.170   6.873  13.581  1.0983  0.2946 -0.2425
 8954TIP3    H248278   2.082   6.756  13.618  0.2817  0.8045 -0.5365
 8955TIP3   OH248279   3.406   1.528   3.061 -0.5618 -0.2722  0.0322
 8955TIP3    H148280   3.475   1.510   2.997  0.4927  0.9499  0.7669
 8955TIP3    H248281   3.377   1.442   3.090 -0.5919 -0.8318 -1.5798
 8956TIP3   OH248282   1.664   6.495   2.905  0.1278  0.0438  0.7740
 8956TIP3    H148283   1.584   6.446   2.885  1.2718 -1.1743 -1.1999
 8956TIP3    H248284   1.685   6.472   2.995 -1.5448  0.1431  1.2240
 8957TIP3   OH248285   0.263   5.630  10.526  0.0718  0.1493  0.6430
 8957TIP3    H148286   0.292   5.566  10.591  0.8105 -2.5046 -2.0601
 8957TIP3    H248287   0.175   5.602  10.502 -0.5806  1.6777  1.0941
 8958TIP3   OH248288   2.577   1.619  13.562  0.5787  0.1356  0.4555
 8958TIP3    H148289   2.563   1.587  13.473  0.6299 -0.1639  0.5543
 8958TIP3    H248290   2.661   1.665  13.558  0.6000  0.0873  0.3587
 8959TIP3   OH248291   0.905   1.221  10.624 -0.2145  0.2178 -0.7771
 8959TIP3    H148292   0.971   1.182  10.682 -0.0905 -0.5041 -1.3885
 8959TIP3    H248293   0.831   1.162  10.628 -0.4744  0.5366 -0.8182
 8960TIP3   OH248294   5.329   5.457  13.939  0.1443  0.1804 -0.6276
 8960TIP3    H148295   5.328   5.475  13.845 -1.3449  0.7605 -0.5302
 8960TIP3    H248296   5.317   5.543  13.980 -2.1057 -0.3645 -0.0075
 8961TIP3   OH248297   1.222   6.004   2.333 -0.4170  0.5804 -0.1309
 8961TIP3    H148298   1.140   5.966   2.364  0.0626  1.3074  2.2633
 8961TIP3    H248299   1.211   6.011   2.239 -2.2024 -1.4066 -0.1384
 8962TIP3   OH248300   2.867   6.753  15.164  0.6050  0.5790 -0.2578
 8962TIP3    H148301   2.774   6.765  15.181  0.1897 -1.5756 -0.6406
 8962TIP3    H248302   2.896   6.836  15.126 -1.5178  0.7889 -1.5780
 8963TIP3   OH248303   2.826   3.154   3.722 -0.1572  0.6374  0.0210
 8963TIP3    H148304   2.788   3.110   3.646  2.8897  1.5788 -2.2547
 8963TIP3    H248305   2.858   3.083   3.778  0.1050 -0.0883 -1.0183
 8964TIP3   OH248306   6.561   5.270   5.725 -0.1351 -0.6122 -0.6842
 8964TIP3    H148307   6.589   5.347   5.774 -2.3310  1.6593 -2.7377
 8964TIP3    H248308   6.514   5.217   5.790  0.0069  0.5573  0.4108
 8965TIP3   OH248309   4.319   0.181  13.174 -0.4815  0.0090  0.1626
 8965TIP3    H148310   4.279   0.096  13.189 -1.6618  0.8265  2.1213
 8965TIP3    H248311   4.326   0.220  13.261 -0.6132  2.1736 -0.7192
 8966TIP3   OH248312   6.751   4.677   1.925  0.1338  0.3764 -0.4999
 8966TIP3    H148313   6.811   4.628   1.982  0.5664  1.3729 -0.0794
 8966TIP3    H248314   6.666   4.670   1.969  0.2530  0.2621 -0.2850
 8967TIP3   OH248315   5.806   2.788   0.932 -0.2688  0.1517  0.0515
 8967TIP3    H148316   5.853   2.709   0.958 -1.4542 -0.7293 -0.4026
 8967TIP3    H248317   5.784   2.774   0.840  1.6589  2.1203 -0.8303
 8968TIP3   OH248318   4.129   2.387  14.207 -0.6096  0.0968  0.2589
 8968TIP3    H148319   4.077   2.375  14.128  1.0125  1.8198 -1.1619
 8968TIP3    H248320   4.091   2.464  14.250  1.0542  1.8196 -1.1665
 8969TIP3   OH248321   2.603   6.082  11.322 -1.0261  0.2137 -0.3097
 8969TIP3    H148322   2.594   6.008  11.382 -0.8490  0.6343  0.2339
 8969TIP3    H248323   2.680   6.060  11.269 -0.0646  0.6935  0.8440
 8970TIP3   OH248324   1.014   2.397   0.994  1.0719 -0.1762 -0.7321
 8970TIP3    H148325   1.057   2.404   0.908  0.5060 -0.2210 -1.0190
 8970TIP3    H248326   1.081   2.358   1.050  0.9404 -1.6120 -1.5290
 8971TIP3   OH248327   4.362   5.003  16.362 -0.4877  0.3024  0.5357
 8971TIP3    H148328   4.297   5.025  16.295  0.2976 -0.5008 -0.5307
 8971TIP3    H248329   4.354   5.072  16.427 -1.8998  0.6173  0.0630
 8972TIP3   OH248330   1.984   3.206   1.591 -0.3592  0.5169  0.2126
 8972TIP3    H148331   1.992   3.160   1.508  0.7838 -0.8983  1.0691
 8972TIP3    H248332   1.891   3.232   1.595 -1.1771 -2.0769 -0.1468
 8973TIP3   OH248333   2.212   0.374   1.643 -0.2905  0.3323  0.7116
 8973TIP3    H148334   2.182   0.464   1.662  0.6315  0.3911  1.9721
 8973TIP3    H248335   2.170   0.321   1.711 -0.3225 -0.1089  0.3478
 8974TIP3   OH248336   0.465   3.982  14.999  0.3592  0.1564 -0.3055
 8974TIP3    H148337   0.382   4.029  15.004  1.5429  2.1391  2.7435
 8974TIP3    H248338   0.530   4.042  15.034  2.8003 -2.0823 -0.6620
 8975TIP3   OH248339   5.716   3.428   2.477  0.0428  0.1989  0.5361
 8975TIP3    H148340   5.667   3.354   2.515  2.2376 -1.5304  0.2203
 8975TIP3    H248341   5.744   3.396   2.391  1.2575  1.3024  0.4947
 8976TIP3   OH248342   4.609   3.684  14.059  0.4792 -0.1835  0.0755
 8976TIP3    H148343   4.629   3.647  13.973  0.3783 -0.0827  0.0085
 8976TIP3    H248344   4.523   3.724  14.048 -0.2655 -1.5444  0.6425
 8977TIP3   OH248345   2.081   4.029   3.703 -0.3608  0.7266  0.1381
 8977TIP3    H148346   2.080   4.124   3.712 -1.5267  0.7190  0.2801
 8977TIP3    H248347   2.084   4.014   3.608  0.8620  0.8835  0.1370
 8978TIP3   OH248348   3.069   0.342   0.494  0.5490 -0.1814  0.0342
 8978TIP3    H148349   3.164   0.341   0.502  0.6140  1.5899 -0.2561
 8978TIP3    H248350   3.049   0.422   0.446 -1.1094 -0.4341  0.2358
 8979TIP3   OH248351   1.629   5.286  16.658 -0.1565 -0.2839 -0.3986
 8979TIP3    H148352   1.609   5.223  16.588  1.0096 -1.3749  0.2023
 8979TIP3    H248353   1.592   5.368  16.628 -1.1840 -1.1204 -1.5089
 8980TIP3   OH248354   5.864   0.737  14.026  0.3170  0.4070 -0.3512
 8980TIP3    H148355   5.769   0.723  14.027  0.5540 -1.5633  1.1376
 8980TIP3    H248356   5.899   0.654  13.993  1.5682  0.8658 -0.2157
 8981TIP3   OH248357   6.621   5.590  11.339  0.1644  0.1875 -0.2051
 8981TIP3    H148358   6.532   5.598  11.305  0.1615 -0.9467 -0.5064
 8981TIP3    H248359   6.611   5.545  11.423  0.4360  0.2898 -0.1169
 8982TIP3   OH248360   0.658   1.108  10.593 -0.1065 -0.4257 -0.1255
 8982TIP3    H148361   0.627   1.018  10.606 -0.1306 -0.6661 -1.6772
 8982TIP3    H248362   0.582   1.163  10.612 -0.2507 -0.7581  0.2778
 8983TIP3   OH248363   6.339   3.176   2.408  0.2406  0.2812  0.1304
 8983TIP3    H148364   6.418   3.157   2.356  0.0792 -1.4978  0.4654
 8983TIP3    H248365   6.372   3.222   2.485  0.8733  0.1630 -0.0579
 8984TIP3   OH248366   0.429   6.761   3.032 -0.3435 -0.2186 -0.0864
 8984TIP3    H148367   0.385   6.830   3.082  1.1739 -0.9341  2.4170
 8984TIP3    H248368   0.521   6.773   3.052  0.5762  0.2030 -3.8618
 8985TIP3   OH248369   2.111   3.387  15.723 -0.5198  0.0227 -0.6433
 8985TIP3    H148370   2.150   3.362  15.807  0.7230 -0.1641 -1.2526
 8985TIP3    H248371   2.032   3.435  15.746  0.9429  1.8996  0.6748
 8986TIP3   OH248372   2.765   6.142   0.760 -0.1309 -0.2923  0.1037
 8986TIP3    H148373   2.751   6.047   0.765 -0.2071 -0.2552  0.8318
 8986TIP3    H248374   2.721   6.176   0.838  0.2951  0.2924  0.0938
 8987TIP3   OH248375   5.803   4.383  11.077  0.1388 -0.7063 -0.0201
 8987TIP3    H148376   5.774   4.308  11.128  0.1687 -0.3054  0.5945
 8987TIP3    H248377   5.773   4.365  10.987 -1.6409 -0.5164  0.4895
 8988TIP3   OH248378   2.225   5.162  17.064  0.7398 -0.3873 -0.2525
 8988TIP3    H148379   2.153   5.217  17.034  0.0674 -0.5237  1.0452
 8988TIP3    H248380   2.294   5.175  16.999  0.1813  1.1011 -0.5805
 8989TIP3   OH248381   3.617   3.349  14.394  0.5200 -0.0493 -0.0778
 8989TIP3    H148382   3.569   3.272  14.362  1.1275 -0.4859  0.0431
 8989TIP3    H248383   3.598   3.417  14.329 -0.6883 -0.0477  0.2458
 8990TIP3   OH248384   1.326   0.631   1.504 -0.1484  0.2728 -0.3462
 8990TIP3    H148385   1.233   0.610   1.513 -0.3866  0.9630 -1.1974
 8990TIP3    H248386   1.335   0.670   1.417  1.2634 -1.5613 -1.1040
 8991TIP3   OH248387   6.102   4.073  16.797 -0.0144  0.1125  0.5059
 8991TIP3    H148388   6.012   4.054  16.823 -0.0442  1.3181  1.3436
 8991TIP3    H248389   6.120   4.161  16.831  1.4094 -0.0102  0.1648
 8992TIP3   OH248390   5.315   5.356   4.310 -0.2566  0.4041 -0.0331
 8992TIP3    H148391   5.286   5.447   4.316  0.1088  0.4872  0.6391
 8992TIP3    H248392   5.402   5.361   4.270 -0.6059  0.2725 -0.8132
 8993TIP3   OH248393   5.986   1.183  11.503  0.1516  0.4531 -1.0013
 8993TIP3    H148394   6.066   1.146  11.540 -0.2434  0.8940  0.3312
 8993TIP3    H248395   5.957   1.118  11.439  0.3685 -0.7746  0.1083
 8994TIP3   OH248396   1.848   5.920  12.400  0.1300 -0.0840 -0.0219
 8994TIP3    H148397   1.831   5.992  12.461  0.5770 -0.0943  0.1193
 8994TIP3    H248398   1.860   5.843  12.455  2.6818  0.2882  0.0762
 8995TIP3   OH248399   2.817   2.559   1.922  0.1537 -0.1956  0.2105
 8995TIP3    H148400   2.743   2.574   1.981  1.0904 -0.1913  1.4171
 8995TIP3    H248401   2.839   2.467   1.934 -0.8375 -0.7381 -1.6050
 8996TIP3   OH248402   0.391   3.719  11.861  0.6875  0.5153 -0.0819
 8996TIP3    H148403   0.362   3.670  11.938 -0.4983 -1.3685 -1.6351
 8996TIP3    H248404   0.366   3.809  11.880  1.8024  0.3915  2.3479
 8997TIP3   OH248405   3.326   1.330   3.914 -0.2006 -0.0756  0.2145
 8997TIP3    H148406   3.306   1.404   3.857  3.1281  0.8541  0.0913
 8997TIP3    H248407   3.331   1.255   3.855 -0.5256  0.1601 -0.1162
 8998TIP3   OH248408   4.348   2.727   4.227 -0.3582  0.3957  0.2175
 8998TIP3    H148409   4.283   2.729   4.298 -0.8967 -0.4433 -0.2314
 8998TIP3    H248410   4.346   2.637   4.196  1.5111  0.1896  0.6130
 8999TIP3   OH248411   1.592   2.266   0.654 -0.2486 -0.4633 -0.2492
 8999TIP3    H148412   1.624   2.193   0.706  0.8833 -1.2072 -1.9125
 8999TIP3    H248413   1.530   2.227   0.593 -1.7960  0.4434  0.6497
 9000TIP3   OH248414   5.829   6.638   0.478 -0.2515  0.4540  0.3858
 9000TIP3    H148415   5.858   6.672   0.562  0.1227  1.4336 -0.1147
 9000TIP3    H248416   5.899   6.579   0.450  0.7714  1.9061 -0.2746
 9001TIP3   OH248417   5.662   1.163   0.284 -0.3028  0.3914  0.1290
 9001TIP3    H148418   5.601   1.118   0.226 -0.9124  1.3768 -0.0004
 9001TIP3    H248419   5.612   1.235   0.321  1.0976  1.9524 -0.9009
 9002TIP3   OH248420   3.412   3.934  13.558  0.5821 -0.3167  0.0352
 9002TIP3    H148421   3.437   4.016  13.602  0.5438 -0.9178  1.2205
 9002TIP3    H248422   3.326   3.913  13.594  0.8087 -1.1314  0.1091
 9003TIP3   OH248423   1.162   3.370  15.104 -0.5414  0.1894 -0.1409
 9003TIP3    H148424   1.125   3.372  15.193  0.2656  2.3970  0.2144
 9003TIP3    H248425   1.229   3.301  15.108  0.4891  1.2120  1.4382
 9004TIP3   OH248426   3.800   6.232   3.016  0.6937 -0.1104 -0.1579
 9004TIP3    H148427   3.788   6.319   3.052  1.3952  0.1229 -0.4663
 9004TIP3    H248428   3.891   6.231   2.985  1.9174 -2.1152  3.0416
 9005TIP3   OH248429   1.984   6.634  12.047 -0.5534  0.1657 -1.0649
 9005TIP3    H148430   1.988   6.547  12.087  0.2786  0.8016  0.2961
 9005TIP3    H248431   2.006   6.619  11.955 -1.7447 -1.2315 -1.1527
 9006TIP3   OH248432   5.862   1.326   5.295 -0.1431  0.1264 -0.4119
 9006TIP3    H148433   5.770   1.341   5.276 -0.0011 -0.2975 -1.4876
 9006TIP3    H248434   5.869   1.232   5.308 -0.1035  0.3187  1.1202
 9007TIP3   OH248435   2.594   1.023   6.253 -0.2509  0.2164  0.0164
 9007TIP3    H148436   2.607   1.084   6.326  0.9097  0.0054  0.0004
 9007TIP3    H248437   2.602   1.077   6.175 -3.5077  0.8471 -0.0086
 9008TIP3   OH248438   2.666   5.274   4.135  0.4380  0.2243  0.6178
 9008TIP3    H148439   2.726   5.291   4.062  0.6549 -1.8168  0.2348
 9008TIP3    H248440   2.718   5.292   4.213  1.1572 -0.3031  0.2770
 9009TIP3   OH248441   3.112   5.043  11.633 -0.8016  0.3032  0.0063
 9009TIP3    H148442   3.041   5.087  11.680 -1.4147  0.5818 -1.1464
 9009TIP3    H248443   3.068   4.994  11.563 -0.0347 -1.2565  0.5698
 9010TIP3   OH248444   3.839   1.839  12.398  0.5718  0.1139 -0.4716
 9010TIP3    H148445   3.847   1.790  12.480 -0.9216  1.7086  0.7075
 9010TIP3    H248446   3.925   1.880  12.387  0.9754 -0.5962 -0.0217
 9011TIP3   OH248447   3.130   1.952   0.071  0.6234 -0.9945  0.6222
 9011TIP3    H148448   3.174   1.868   0.062  1.5306 -0.4973  0.2567
 9011TIP3    H248449   3.085   1.965  -0.012  1.5818 -0.5280  0.1539
 9012TIP3   OH248450   5.120   4.749   4.165  0.9010  0.4188  0.1478
 9012TIP3    H148451   5.120   4.655   4.151  1.8034  0.0867  2.0392
 9012TIP3    H248452   5.116   4.787   4.077  0.1674 -1.3636 -0.6241
 9013TIP3   OH248453   4.575   1.836  13.550  0.3388 -0.3772  0.0115
 9013TIP3    H148454   4.496   1.814  13.600  0.0197  0.7597  0.0439
 9013TIP3    H248455   4.633   1.760  13.561  0.0993 -0.3448  1.7425
 9014TIP3   OH248456   5.361   3.458  14.971 -0.4777 -0.3133  0.0947
 9014TIP3    H148457   5.418   3.393  14.930  1.0418  0.7042  0.5117
 9014TIP3    H248458   5.303   3.488  14.900 -0.4579 -1.3149 -0.3555
 9015TIP3   OH248459   0.319   1.860   1.257 -0.0452  0.2381  0.3990
 9015TIP3    H148460   0.341   1.894   1.170  1.8227 -0.6187  0.4716
 9015TIP3    H248461   0.332   1.766   1.249  0.5549  0.1931  1.6939
 9016TIP3   OH248462   3.878   0.409  11.540 -0.0257 -0.2221 -0.1310
 9016TIP3    H148463   3.944   0.460  11.586 -0.3660 -0.7039  0.9143
 9016TIP3    H248464   3.919   0.323  11.526 -0.7573 -0.8814  1.4707
 9017TIP3   OH248465   2.582   1.479  10.552  0.2928  0.5701  0.0061
 9017TIP3    H148466   2.514   1.493  10.618 -1.3406  1.0454 -1.6707
 9017TIP3    H248467   2.639   1.555  10.560 -1.1980  1.8093 -0.5792
 9018TIP3   OH248468   2.513   3.554   6.301 -0.3070 -0.7311  0.2839
 9018TIP3    H148469   2.418   3.538   6.302 -0.0479 -2.4737  0.7675
 9018TIP3    H248470   2.524   3.631   6.245 -2.1157  0.3420  1.2952
 9019TIP3   OH248471   4.064   4.861   1.815 -0.0661  0.3820  0.3600
 9019TIP3    H148472   4.135   4.797   1.821 -0.5829 -0.2616 -0.3417
 9019TIP3    H248473   4.071   4.911   1.897  1.8384  1.0175 -0.1333
 9020TIP3   OH248474   1.123   1.696   2.841 -0.1029  0.0664 -0.6783
 9020TIP3    H148475   1.028   1.686   2.842  0.0467 -1.8465  0.0361
 9020TIP3    H248476   1.143   1.725   2.753 -1.1893 -2.1221 -1.7338
 9021TIP3   OH248477   3.369   3.369  15.731 -0.1519  0.7573 -0.4642
 9021TIP3    H148478   3.386   3.459  15.702  0.7286  0.2719 -1.5490
 9021TIP3    H248479   3.456   3.333  15.748 -0.4770 -0.0034 -0.4004
 9022TIP3   OH248480   4.603   3.788   1.602 -0.1207  0.6533  0.4913
 9022TIP3    H148481   4.548   3.731   1.549  0.3834  0.5991  0.0266
 9022TIP3    H248482   4.544   3.859   1.629 -0.5882  0.2502  0.5565
 9023TIP3   OH248483   2.359   2.402  16.268 -0.8515 -0.0920  0.7360
 9023TIP3    H148484   2.349   2.352  16.349  1.9087  1.3609  2.1100
 9023TIP3    H248485   2.353   2.493  16.295 -3.1381  0.4680 -1.2964
 9024TIP3   OH248486   3.299   6.447  15.223  0.5093 -0.8452 -0.6001
 9024TIP3    H148487   3.211   6.411  15.234  1.0874 -2.4760 -0.9349
 9024TIP3    H248488   3.305   6.517  15.288 -1.5158  0.3145 -1.5700
 9025TIP3   OH248489   1.005   6.573   4.419 -0.0804  0.4377  0.1093
 9025TIP3    H148490   0.993   6.658   4.377 -1.4635 -0.0908 -0.6150
 9025TIP3    H248491   0.942   6.515   4.376 -0.4344 -0.5310  1.8210
 9026TIP3   OH248492   2.117   1.513   5.535  0.3348 -0.1150  0.5528
 9026TIP3    H148493   2.064   1.590   5.516  2.6209  1.9728  2.0168
 9026TIP3    H248494   2.070   1.468   5.605 -0.1017  1.0082  0.9958
 9027TIP3   OH248495   3.358   1.961  15.811  0.2865  0.5191 -0.0170
 9027TIP3    H148496   3.298   1.968  15.886  1.9074  0.8167  1.2983
 9027TIP3    H248497   3.440   1.998  15.842  0.2213  3.5768 -2.9422
 9028TIP3   OH248498   0.578   6.577   0.151  0.0063  0.2340 -0.3874
 9028TIP3    H148499   0.561   6.574   0.057 -1.8985  0.9989 -0.1117
 9028TIP3    H248500   0.580   6.485   0.177  0.6825  0.0115 -1.1814
 9029TIP3   OH248501   3.593   0.174   3.195  0.7009  0.2761  0.0686
 9029TIP3    H148502   3.558   0.134   3.274  1.3733 -2.4014 -0.8852
 9029TIP3    H248503   3.596   0.103   3.131  0.6716  2.2196 -2.2251
 9030TIP3   OH248504   5.451   0.669   2.171 -0.6408 -0.4160  0.3595
 9030TIP3    H148505   5.398   0.619   2.109 -0.6622 -0.9107  0.7677
 9030TIP3    H248506   5.476   0.748   2.123 -0.2930 -0.9864 -0.4315
 9031TIP3   OH248507   3.013   0.465   2.698  0.2301  0.0703 -1.1128
 9031TIP3    H148508   3.088   0.446   2.754 -0.6072  0.2075  0.0797
 9031TIP3    H248509   3.047   0.529   2.634  1.0717  0.2892 -0.4615
 9032TIP3   OH248510   2.491   5.829  15.748  0.1285  0.3368  0.0707
 9032TIP3    H148511   2.427   5.827  15.818  0.2349  1.4504  0.2225
 9032TIP3    H248512   2.512   5.737  15.731 -0.1991  0.0407  1.2127
 9033TIP3   OH248513   3.013   5.488  15.111  0.1391  0.0124 -0.0864
 9033TIP3    H148514   3.021   5.505  15.205 -2.4143 -1.5959  0.4984
 9033TIP3    H248515   3.056   5.563  15.070  1.8235  0.4988  2.3138
 9034TIP3   OH248516   2.061   1.236  11.383  0.6184 -0.0283 -0.2726
 9034TIP3    H148517   2.108   1.184  11.448  0.3119  0.8015  0.6422
 9034TIP3    H248518   2.129   1.265  11.322  0.8152 -1.3319 -0.7033
 9035TIP3   OH248519   0.340   6.360  11.405 -0.0653 -0.1425  0.0698
 9035TIP3    H148520   0.432   6.364  11.430 -0.5282 -0.2439  1.9783
 9035TIP3    H248521   0.332   6.280  11.353  1.0790  0.3795 -0.9599
 9036TIP3   OH248522   3.910   4.345  11.734  0.4312  0.0900  0.1615
 9036TIP3    H148523   3.930   4.294  11.655  0.6073  2.2534 -1.2615
 9036TIP3    H248524   3.878   4.429  11.701  1.5096  1.4532  2.3936
 9037TIP3   OH248525   3.018   6.729  15.843 -0.0869  0.4151  0.7304
 9037TIP3    H148526   3.087   6.760  15.784  0.8533 -1.8987  0.4932
 9037TIP3    H248527   2.942   6.715  15.787  1.0850 -2.7512 -0.3449
 9038TIP3   OH248528   4.909   1.616   5.826 -0.0569  0.2260 -0.1299
 9038TIP3    H148529   4.935   1.612   5.917 -0.4578  1.2822  0.0423
 9038TIP3    H248530   4.987   1.591   5.777 -0.2507 -1.8349  0.5228
 9039TIP3   OH248531   0.256   2.585  12.278  0.4956 -0.6400  0.1329
 9039TIP3    H148532   0.240   2.536  12.358  1.1276 -1.3199 -0.1453
 9039TIP3    H248533   0.342   2.555  12.248 -0.1545 -1.1596 -1.3253
 9040TIP3   OH248534   4.318   1.764   0.951 -0.2018 -0.1945  0.5526
 9040TIP3    H148535   4.413   1.778   0.951 -0.0794  0.2503 -3.6009
 9040TIP3    H248536   4.281   1.851   0.962 -0.0150  0.0325 -0.4989
 9041TIP3   OH248537   0.921   5.739  11.543 -0.4312  0.3171  0.2106
 9041TIP3    H148538   0.845   5.698  11.502 -0.2865  1.6427 -1.5157
 9041TIP3    H248539   0.933   5.820  11.494  1.0531  0.9808  1.5913
 9042TIP3   OH248540   5.771   1.359   5.543 -0.2914 -0.0247 -0.2741
 9042TIP3    H148541   5.854   1.367   5.590  0.0545 -0.7795 -0.7368
 9042TIP3    H248542   5.796   1.341   5.452 -0.9597 -0.8852 -0.3021
 9043TIP3   OH248543   2.620   1.131  14.606  0.1599  0.3539 -0.2050
 9043TIP3    H148544   2.554   1.062  14.599  0.1090  0.5242 -1.6363
 9043TIP3    H248545   2.694   1.089  14.650  0.4061 -0.8563 -1.6641
 9044TIP3   OH248546   4.463   1.669  15.399  0.0995 -0.5435 -0.6335
 9044TIP3    H148547   4.448   1.735  15.331 -0.6307 -0.9322 -0.8613
 9044TIP3    H248548   4.554   1.643  15.388 -0.3903 -1.6542 -2.4318
 9045TIP3   OH248549   0.255   4.195   0.060 -0.0920  0.0040 -0.3241
 9045TIP3    H148550   0.164   4.226   0.062  0.4838  1.8062 -0.2916
 9045TIP3    H248551   0.276   4.176   0.152  0.0199  1.0512 -0.1228
 9046TIP3   OH248552   0.227   1.740  15.924  0.4333  0.0178 -0.3149
 9046TIP3    H148553   0.289   1.712  15.991 -0.1591  1.0330  0.6989
 9046TIP3    H248554   0.143   1.704  15.952  0.2394  0.1399 -0.7230
 9047TIP3   OH248555   1.285   0.441   3.849  0.3136 -0.0973 -0.8136
 9047TIP3    H148556   1.267   0.501   3.777  2.2786 -0.5461 -1.7498
 9047TIP3    H248557   1.339   0.492   3.910  0.2520 -0.2861 -0.5990
 9048TIP3   OH248558   1.206   1.105  11.106  0.1426  0.2347 -0.2480
 9048TIP3    H148559   1.231   1.013  11.115  0.6621  0.5147  1.4152
 9048TIP3    H248560   1.226   1.126  11.014  1.1258 -0.9731 -0.3387
 9049TIP3   OH248561   2.766   1.017  14.100  0.1065 -0.0157 -0.3999
 9049TIP3    H148562   2.690   1.044  14.049 -0.6246  0.1536  0.7455
 9049TIP3    H248563   2.819   0.965  14.039  0.8485  2.7418 -2.2724
 9050TIP3   OH248564   1.331   0.896   2.076  0.1444 -0.6917  0.2772
 9050TIP3    H148565   1.250   0.856   2.107  0.2237  0.9148  2.8019
 9050TIP3    H248566   1.342   0.862   1.987 -2.6947 -1.8102  0.2578
 9051TIP3   OH248567   5.582   6.056   5.260 -0.1781  0.1929  0.3985
 9051TIP3    H148568   5.610   6.013   5.179  3.0400  1.5970  0.6021
 9051TIP3    H248569   5.534   6.133   5.231 -1.3580 -0.6667 -0.0449
 9052TIP3   OH248570   5.374   0.290   3.329  0.6794  0.1249  0.2980
 9052TIP3    H148571   5.410   0.324   3.247  0.8260 -0.1375  0.2516
 9052TIP3    H248572   5.406   0.200   3.333 -0.4371 -0.3072 -0.0283
 9053TIP3   OH248573   3.178   0.297  10.443  0.0586  0.0784 -0.2734
 9053TIP3    H148574   3.112   0.243  10.400  0.6787  0.3017 -1.5501
 9053TIP3    H248575   3.177   0.380  10.395 -0.8893  1.2670  1.6668
 9054TIP3   OH248576   0.236   4.025  14.449 -0.5588  0.3973 -0.3207
 9054TIP3    H148577   0.160   3.968  14.452 -0.5222  0.3895  1.0226
 9054TIP3    H248578   0.311   3.966  14.464 -0.5180  0.7591  1.0236
 9055TIP3   OH248579   2.723   2.180   0.008  0.2059 -0.2036 -0.3260
 9055TIP3    H148580   2.730   2.229  -0.074  0.8198  0.0141 -0.1503
 9055TIP3    H248581   2.683   2.097  -0.017 -1.3928  0.5912 -0.5419
 9056TIP3   OH248582   5.491   1.742  13.628 -0.8388  0.6319 -0.5889
 9056TIP3    H148583   5.567   1.697  13.590 -1.6872  0.6270 -2.4218
 9056TIP3    H248584   5.524   1.829  13.651  0.7021 -0.6502  2.5513
 9057TIP3   OH248585   6.605   6.568   2.814 -0.3218 -0.4977  0.3194
 9057TIP3    H148586   6.620   6.645   2.869 -0.1203 -0.7885  0.6701
 9057TIP3    H248587   6.520   6.584   2.773 -0.1571  0.0417  0.1771
 9058TIP3   OH248588   1.054   3.639  16.052 -0.6572 -0.2047 -0.0044
 9058TIP3    H148589   1.117   3.644  15.980 -0.2787  0.7094  0.3714
 9058TIP3    H248590   1.036   3.545  16.063  0.0019 -0.4103 -0.6637
 9059TIP3   OH248591   6.389   4.972   0.259  0.4380 -0.3123 -0.3232
 9059TIP3    H148592   6.403   4.881   0.285  0.6344 -0.1861  0.0259
 9059TIP3    H248593   6.476   5.002   0.232  0.3671 -0.2342 -0.4645
 9060TIP3   OH248594   4.137   4.549  11.143 -0.0685  0.3354  0.1023
 9060TIP3    H148595   4.106   4.617  11.082 -2.3517  1.6912  2.5515
 9060TIP3    H248596   4.057   4.509  11.176  1.0384 -0.1424  2.3635
 9061TIP3   OH248597   3.437   0.949  12.828  0.1564 -0.1042 -0.8800
 9061TIP3    H148598   3.427   1.043  12.836 -0.7285 -0.0951 -1.8878
 9061TIP3    H248599   3.528   0.936  12.799  0.4147  0.3914 -0.3104
 9062TIP3   OH248600   4.743   6.310  11.539  0.3977  0.3373 -0.8332
 9062TIP3    H148601   4.812   6.244  11.547  1.7528  1.6115 -1.4748
 9062TIP3    H248602   4.667   6.261  11.509  0.0328 -1.6499  2.7818
 9063TIP3   OH248603   5.574   4.431   2.505 -0.5471 -0.1567 -0.3787
 9063TIP3    H148604   5.621   4.459   2.427  1.4508  1.1467  1.2034
 9063TIP3    H248605   5.575   4.507   2.563 -1.9775 -1.0771  0.9409
 9064TIP3   OH248606   1.932   2.291  16.041 -0.1702  0.2575  0.4173
 9064TIP3    H148607   1.902   2.365  15.990  1.4347  0.6240 -0.0427
 9064TIP3    H248608   1.896   2.306  16.129  0.9603  2.1447  0.6088
 9065TIP3   OH248609   5.135   5.601   1.514 -0.0451  0.3131  0.0053
 9065TIP3    H148610   5.093   5.573   1.433 -0.5135  3.3166 -0.9163
 9065TIP3    H248611   5.225   5.570   1.506 -0.0879  0.5132 -1.6886
 9066TIP3   OH248612   2.394   6.347  11.276 -0.4485 -0.7348  0.3065
 9066TIP3    H148613   2.389   6.251  11.286  0.4497 -1.0204 -1.5811
 9066TIP3    H248614   2.472   6.361  11.222 -1.0097  1.0331 -0.0895
 9067TIP3   OH248615   3.562   2.789   1.457  0.3409 -0.4655 -0.3527
 9067TIP3    H148616   3.629   2.846   1.420  0.9201 -1.0009 -0.1564
 9067TIP3    H248617   3.539   2.729   1.386  1.5403 -1.5714  0.1509
 9068TIP3   OH248618   1.113   5.357  15.802  0.0089  0.2121  0.7246
 9068TIP3    H148619   1.076   5.419  15.866 -0.9692 -0.3819  0.7585
 9068TIP3    H248620   1.161   5.294  15.855  0.4725  0.5674  0.7394
 9069TIP3   OH248621   1.296   1.590  15.839 -0.6255  0.4139  0.1886
 9069TIP3    H148622   1.359   1.644  15.792 -0.2033  0.8237  1.1995
 9069TIP3    H248623   1.236   1.558  15.771  0.3496  0.4430 -0.7093
 9070TIP3   OH248624   0.499   5.785   3.653  0.5211 -0.5039 -0.0620
 9070TIP3    H148625   0.534   5.840   3.583  0.0241  1.7351  1.3279
 9070TIP3    H248626   0.572   5.775   3.715  0.1845 -0.1284  0.4045
 9071TIP3   OH248627   1.024   6.555   5.499 -0.2348 -0.2013  0.0083
 9071TIP3    H148628   1.011   6.649   5.484 -1.3508 -0.2723  0.3928
 9071TIP3    H248629   1.112   6.549   5.536 -0.6619  0.8782  1.3198
 9072TIP3   OH248630   6.288   6.731   5.889 -0.4593  0.2122  0.3886
 9072TIP3    H148631   6.212   6.731   5.948 -0.8926 -1.3527 -0.1301
 9072TIP3    H248632   6.250   6.723   5.802  0.2338  1.5129 -0.0579
 9073TIP3   OH248633   2.632   6.386  11.866 -0.4021 -0.5022  0.1168
 9073TIP3    H148634   2.634   6.304  11.818 -1.0305 -1.2521  1.3071
 9073TIP3    H248635   2.711   6.385  11.920 -0.2082 -0.1333 -0.1541
 9074TIP3   OH248636   0.180   0.945   3.162  0.1404  0.1196  0.0066
 9074TIP3    H148637   0.171   0.860   3.204 -0.8930  0.4134  0.4074
 9074TIP3    H248638   0.206   0.925   3.072  0.7857 -0.5743  0.3386
 9075TIP3   OH248639   6.073   3.723   2.226 -0.2225 -0.1755 -0.6556
 9075TIP3    H148640   6.023   3.664   2.171  1.9901 -2.3570 -0.4869
 9075TIP3    H248641   6.033   3.716   2.313 -0.5054 -0.7854 -0.8334
 9076TIP3   OH248642   5.488   3.721   0.185 -0.1537  0.9651 -0.0975
 9076TIP3    H148643   5.476   3.736   0.091  0.7924  1.2873 -0.1769
 9076TIP3    H248644   5.475   3.627   0.197  0.5456  0.7812 -0.6923
 9077TIP3   OH248645   6.496   3.891  15.316  0.0741  0.1897 -0.2336
 9077TIP3    H148646   6.502   3.824  15.248  2.0283 -0.2102  0.2625
 9077TIP3    H248647   6.560   3.957  15.290 -1.2232  1.4793 -0.2713
 9078TIP3   OH248648   2.445   5.812  15.222 -0.3403  0.5548 -0.3088
 9078TIP3    H148649   2.431   5.808  15.316  2.8251  0.4642  0.2688
 9078TIP3    H248650   2.394   5.740  15.186  0.0275 -0.7283  1.6163
 9079TIP3   OH248651   4.152   5.921  15.878  0.3246  0.1904  0.3668
 9079TIP3    H148652   4.087   5.924  15.949  1.5807  1.2200  1.5231
 9079TIP3    H248653   4.210   5.849  15.902  0.0440 -0.2770 -0.3093
 9080TIP3   OH248654   6.403   3.972  13.596  0.0075  0.0472 -0.2439
 9080TIP3    H148655   6.378   3.918  13.521  1.0026 -2.0544  0.8523
 9080TIP3    H248656   6.458   4.041  13.559 -1.1210  0.2447 -1.6638
 9081TIP3   OH248657   6.605   2.265   5.993  0.2856  0.0609  0.0647
 9081TIP3    H148658   6.560   2.247   6.075  1.3695 -0.2091  0.6093
 9081TIP3    H248659   6.653   2.346   6.008 -0.6530  0.8127 -0.7933
 9082TIP3   OH248660   2.643   6.738  10.798 -0.4917 -0.2742  0.5288
 9082TIP3    H148661   2.584   6.674  10.758 -0.1080  0.3771 -1.1319
 9082TIP3    H248662   2.692   6.688  10.864 -0.4851 -1.5884 -0.4405
 9083TIP3   OH248663   1.753   2.534   1.185  0.1303 -0.0046  0.3944
 9083TIP3    H148664   1.759   2.463   1.249 -2.4998 -1.1303 -0.4502
 9083TIP3    H248665   1.768   2.491   1.100 -0.2418  0.6882 -0.0302
 9084TIP3   OH248666   5.533   2.550  15.751 -0.3533  0.1932  0.0286
 9084TIP3    H148667   5.564   2.483  15.690  0.2451  0.2654  0.2429
 9084TIP3    H248668   5.602   2.616  15.751 -0.7267  0.5914  0.1654
 9085TIP3   OH248669   0.228   6.228   2.989 -0.5936 -0.9277  0.4368
 9085TIP3    H148670   0.140   6.247   3.023 -1.8994 -3.1911 -1.3254
 9085TIP3    H248671   0.240   6.293   2.919 -0.3537  0.0576  1.3545
 9086TIP3   OH248672   3.797   4.812   1.742  0.1686  0.3904  0.8546
 9086TIP3    H148673   3.886   4.822   1.776  0.8542  0.2457 -0.8090
 9086TIP3    H248674   3.803   4.741   1.679 -0.9495  0.9063  0.1397
 9087TIP3   OH248675   2.645   3.020  14.738 -0.3671 -0.0069  0.2987
 9087TIP3    H148676   2.679   2.933  14.723  0.6754  0.7733 -2.3224
 9087TIP3    H248677   2.712   3.079  14.704 -1.7454  1.7761  0.4994
 9088TIP3   OH248678   4.457   5.079   4.574  0.1069  0.1185 -0.3134
 9088TIP3    H148679   4.398   5.009   4.602  1.1503 -0.3736  0.7550
 9088TIP3    H248680   4.447   5.083   4.479 -1.2350 -0.3127 -0.2038
 9089TIP3   OH248681   0.166   0.627  15.701  0.1272 -0.0373 -0.1735
 9089TIP3    H148682   0.083   0.670  15.720  0.0480  0.4366 -1.4653
 9089TIP3    H248683   0.216   0.692  15.651  0.1645 -1.2384 -1.8149
 9090TIP3   OH248684   3.600   4.664   4.438  0.1967 -0.2761 -0.4853
 9090TIP3    H148685   3.543   4.692   4.366 -0.0825  0.9063  0.1642
 9090TIP3    H248686   3.554   4.691   4.517  0.9627 -0.6629  0.1097
 9091TIP3   OH248687   6.529   6.268   2.300 -0.4013 -0.2919  0.0791
 9091TIP3    H148688   6.504   6.306   2.216  0.9022  0.3174 -0.0620
 9091TIP3    H248689   6.625   6.271   2.300 -0.3144 -1.9011  0.8521
 9092TIP3   OH248690   0.534   3.415  16.851  0.2020  0.4276 -0.1366
 9092TIP3    H148691   0.544   3.480  16.782  0.4854 -0.3765 -0.8790
 9092TIP3    H248692   0.440   3.413  16.869  0.3549  2.2530  1.1336
 9093TIP3   OH248693   5.781   1.183  15.346  0.1066 -0.2334  0.6386
 9093TIP3    H148694   5.686   1.198  15.351  0.0751 -0.1917 -0.0147
 9093TIP3    H248695   5.813   1.249  15.286  0.4668 -0.6078  0.4123
 9094TIP3   OH248696   0.658   1.351  15.403  0.1499  0.2476 -0.1155
 9094TIP3    H148697   0.667   1.258  15.382  0.9273  0.5973 -1.4590
 9094TIP3    H248698   0.704   1.363  15.486  0.5511 -0.4532 -0.2371
 9095TIP3   OH248699   1.732   5.593   4.462  0.7244 -0.3452 -0.2299
 9095TIP3    H148700   1.698   5.681   4.477  1.4559 -0.1219  0.1732
 9095TIP3    H248701   1.770   5.568   4.546 -0.0321 -1.2987 -0.1634
 9096TIP3   OH248702   0.971   2.940  11.019  0.0414  0.1580 -0.4271
 9096TIP3    H148703   0.963   3.030  11.051  1.8500 -0.1439  1.0185
 9096TIP3    H248704   0.911   2.890  11.075  1.1436  0.0588  0.6992
 9097TIP3   OH248705   3.299   6.433   5.820  0.1521 -0.4371  0.1804
 9097TIP3    H148706   3.296   6.337   5.820 -0.8301 -0.4465  1.7397
 9097TIP3    H248707   3.391   6.454   5.833  0.2157 -1.2193  1.1826
 9098TIP3   OH248708   2.168   5.993   4.055  0.0081 -0.1779  0.4813
 9098TIP3    H148709   2.243   6.041   4.020  0.5010 -1.2699 -0.0432
 9098TIP3    H248710   2.207   5.916   4.097 -0.7739 -0.3283  0.9545
 9099TIP3   OH248711   1.463   5.888   1.317  0.6346  0.4774  0.2646
 9099TIP3    H148712   1.467   5.793   1.313 -1.1127  0.4087 -1.2592
 9099TIP3    H248713   1.382   5.907   1.364 -0.5472  1.1142 -1.8869
 9100TIP3   OH248714   5.456   0.752  16.347 -0.1963  0.3626 -0.1945
 9100TIP3    H148715   5.375   0.766  16.396 -0.8257  0.1941 -1.1726
 9100TIP3    H248716   5.429   0.750  16.255  1.2868  3.3459 -0.8018
 9101TIP3   OH248717   2.758   0.177  10.786  0.3304  0.3225 -0.3507
 9101TIP3    H148718   2.746   0.086  10.812  0.4685  0.4747  0.2797
 9101TIP3    H248719   2.849   0.197  10.809  0.4643  0.4609 -0.9905
 9102TIP3   OH248720   1.251   2.594  12.911 -0.6927 -0.3499  0.0835
 9102TIP3    H148721   1.265   2.687  12.894  0.4116 -0.5722 -0.3171
 9102TIP3    H248722   1.186   2.567  12.846 -1.2285  0.1963  0.3842
 9103TIP3   OH248723   6.149   3.803  16.959  0.4775 -0.0366 -0.5655
 9103TIP3    H148724   6.057   3.792  16.983  0.7652 -1.6324 -0.0509
 9103TIP3    H248725   6.162   3.898  16.956 -1.6481  0.2990 -2.5689
 9104TIP3   OH248726   1.348   6.695   4.416 -0.2200 -0.2071 -0.2757
 9104TIP3    H148727   1.300   6.744   4.483  1.7918  1.5353 -0.0205
 9104TIP3    H248728   1.398   6.630   4.466  0.2160  0.1678 -0.2265
 9105TIP3   OH248729   6.407   0.789   1.067  0.6525 -0.3601 -0.1814
 9105TIP3    H148730   6.366   0.767   1.150  0.5764  2.3982  0.6091
 9105TIP3    H248731   6.455   0.709   1.042  0.2735 -1.4303  2.2281
 9106TIP3   OH248732   1.337   2.121   5.785 -0.4574 -0.3244  0.2817
 9106TIP3    H148733   1.377   2.178   5.851 -1.5135 -1.1007  1.6371
 9106TIP3    H248734   1.411   2.078   5.743  0.2168 -1.7995  2.7912
 9107TIP3   OH248735   3.338   1.475  13.468  0.2852 -0.0540  0.1222
 9107TIP3    H148736   3.245   1.499  13.464  0.3027  0.1298  0.7408
 9107TIP3    H248737   3.357   1.440  13.381 -0.5286 -0.7070  0.1875
 9108TIP3   OH248738   1.124   1.955  11.870 -0.1323 -0.0724  0.1721
 9108TIP3    H148739   1.190   1.926  11.932 -1.1851  1.0976  1.9125
 9108TIP3    H248740   1.045   1.905  11.893 -0.1684 -0.6920 -1.1986
 9109TIP3   OH248741   0.094   0.184   4.525 -0.1364  0.0940  0.4719
 9109TIP3    H148742   0.014   0.149   4.564 -1.1196 -0.0614 -1.5791
 9109TIP3    H248743   0.111   0.265   4.573 -1.0075 -0.3192  1.5191
 9110TIP3   OH248744   5.807   0.736   0.833 -0.4447 -0.2562 -0.3333
 9110TIP3    H148745   5.749   0.803   0.797 -0.4613  0.9602  1.8087
 9110TIP3    H248746   5.895   0.772   0.826 -0.1716 -1.0699 -1.3567
 9111TIP3   OH248747   1.196   4.729   1.881  0.0623 -0.6798  0.4485
 9111TIP3    H148748   1.182   4.763   1.969  1.8530  0.5576  0.3108
 9111TIP3    H248749   1.290   4.736   1.867  0.1410 -2.9663 -0.7489
 9112TIP3   OH248750   5.351   1.222  11.268  0.0903 -0.4289 -0.3134
 9112TIP3    H148751   5.271   1.258  11.232 -0.5866  0.7426  2.1752
 9112TIP3    H248752   5.399   1.298  11.302  1.7697 -1.2230 -0.7685
 9113TIP3   OH248753   6.330   0.717  11.966  0.1283  0.1381  0.2130
 9113TIP3    H148754   6.303   0.726  11.874 -0.3945  0.1814  0.3638
 9113TIP3    H248755   6.273   0.648  12.000 -1.0984  1.4790  1.0245
 9114TIP3   OH248756   3.254   5.633  13.672 -0.0714 -0.2828  0.1809
 9114TIP3    H148757   3.342   5.609  13.643  0.2944  0.1651  0.8679
 9114TIP3    H248758   3.218   5.553  13.709  1.0589  0.0991  2.2842
 9115TIP3   OH248759   0.266   6.122   0.238 -0.0925  0.3996 -0.0532
 9115TIP3    H148760   0.179   6.154   0.214 -0.8001 -0.4867  1.2223
 9115TIP3    H248761   0.322   6.149   0.165 -1.7761 -0.6565 -1.8277
 9116TIP3   OH248762   5.502   1.737  11.593 -0.5400  0.7445 -0.1977
 9116TIP3    H148763   5.499   1.822  11.636  0.7421 -0.5297  2.6895
 9116TIP3    H248764   5.497   1.673  11.665  0.4733 -1.6061 -2.0610
 9117TIP3   OH248765   1.556   6.055   2.329 -0.9471 -0.9221  0.1364
 9117TIP3    H148766   1.589   6.134   2.287 -2.2292  0.1379  1.0340
 9117TIP3    H248767   1.555   5.989   2.259 -1.9467  0.4724 -1.2256
 9118TIP3   OH248768   0.076   2.804   6.175 -0.4046  0.2951 -0.2177
 9118TIP3    H148769   0.020   2.851   6.237 -1.8857  1.4239 -2.2628
 9118TIP3    H248770   0.114   2.733   6.226  1.1452  2.9932  2.8258
 9119TIP3   OH248771   4.990   1.284   2.879  0.3772  0.2529  0.2360
 9119TIP3    H148772   5.014   1.213   2.939 -1.6459 -1.1067 -0.4742
 9119TIP3    H248773   4.895   1.277   2.870  0.0914  3.0209  0.0442
 9120TIP3   OH248774   4.069   3.064   2.607 -0.6235 -0.0573  0.2738
 9120TIP3    H148775   4.159   3.094   2.615 -0.6348 -0.4554  2.1932
 9120TIP3    H248776   4.050   3.072   2.513  0.8108  1.6843  0.0814
 9121TIP3   OH248777   6.475   2.274  13.970  0.7870 -0.1069 -0.2350
 9121TIP3    H148778   6.465   2.218  14.047  0.1588  1.0936  0.6028
 9121TIP3    H248779   6.500   2.215  13.900 -1.2067 -1.6680  0.2632
 9122TIP3   OH248780   1.745   6.129   0.126 -0.1841  0.3218  0.2237
 9122TIP3    H148781   1.663   6.156   0.085  0.4671 -1.4144 -2.4160
 9122TIP3    H248782   1.755   6.037   0.103  2.4161  0.4241  0.6187
 9123TIP3   OH248783   3.271   5.329  13.652 -0.1724 -0.0503 -0.0469
 9123TIP3    H148784   3.341   5.359  13.593 -1.4737  2.0750 -0.6519
 9123TIP3    H248785   3.305   5.343  13.740 -0.4977  3.1109 -0.2892
 9124TIP3   OH248786   6.728   1.105  14.843 -0.4489  0.1389  0.1405
 9124TIP3    H148787   6.752   1.048  14.770 -0.8217 -0.3410  0.3829
 9124TIP3    H248788   6.704   1.044  14.914  0.1119  0.5917  0.7310
 9125TIP3   OH248789   3.653   0.026   6.411 -0.2731  0.1026 -0.4613
 9125TIP3    H148790   3.746   0.035   6.392 -0.0190  1.7095  1.2595
 9125TIP3    H248791   3.643  -0.061   6.448  0.8831  0.5078  0.8927
 9126TIP3   OH248792   4.113   3.638  16.897  0.0260 -0.2520  0.2541
 9126TIP3    H148793   4.069   3.683  16.825  2.2165  0.7384 -0.5573
 9126TIP3    H248794   4.073   3.551  16.898  0.3094 -0.5183 -2.6004
 9127TIP3   OH248795   6.031   3.733  12.649 -0.5761 -0.1149 -0.0475
 9127TIP3    H148796   6.115   3.777  12.657 -1.2517  1.0125  1.3145
 9127TIP3    H248797   5.999   3.758  12.562  0.7694 -1.1090 -0.8556
 9128TIP3   OH248798   4.048   4.867   6.437 -0.2304 -0.0150 -0.3938
 9128TIP3    H148799   4.120   4.806   6.454  1.2740  2.0353  0.9784
 9128TIP3    H248800   3.972   4.826   6.479  0.0006 -2.2847 -1.9764
 9129TIP3   OH248801   1.919   4.244   2.658  0.1531 -0.4261  0.8106
 9129TIP3    H148802   1.867   4.323   2.645  0.8350 -0.1636 -0.5689
 9129TIP3    H248803   1.987   4.269   2.720  1.5953  0.7285 -1.1259
 9130TIP3   OH248804   4.905   6.688   0.969  0.3025  1.1060  0.0548
 9130TIP3    H148805   4.939   6.612   1.017  0.5788 -0.3583 -2.2899
 9130TIP3    H248806   4.830   6.717   1.021  0.3242 -0.6227  1.1452
 9131TIP3   OH248807   1.306   5.422  15.641 -0.4413 -0.1926  0.5011
 9131TIP3    H148808   1.244   5.413  15.713 -1.8177 -0.0989 -0.6524
 9131TIP3    H248809   1.352   5.338  15.638 -1.3709 -0.7188  0.5860
 9132TIP3   OH248810   2.280   3.286   4.860  0.2185 -0.3686 -0.5226
 9132TIP3    H148811   2.241   3.200   4.843  1.3045 -0.6391 -1.8502
 9132TIP3    H248812   2.355   3.268   4.917 -0.9337  0.0203  1.1677
 9133TIP3   OH248813   3.268   3.501  15.006 -0.2838  0.1533  0.1786
 9133TIP3    H148814   3.290   3.577  15.060  0.1650  0.4009 -0.3389
 9133TIP3    H248815   3.173   3.493  15.012 -0.4406  1.3164 -0.4868
 9134TIP3   OH248816   2.232   1.996  15.478 -0.2367 -0.2511 -0.7114
 9134TIP3    H148817   2.144   2.025  15.501 -0.2281 -1.2165  0.6744
 9134TIP3    H248818   2.289   2.066  15.508 -0.4374 -0.3022 -0.1981
 9135TIP3   OH248819   3.081   5.075   3.504  0.4923 -0.1141  0.0248
 9135TIP3    H148820   3.170   5.047   3.524  0.7429  0.4325 -0.2938
 9135TIP3    H248821   3.092   5.151   3.446 -0.1721  0.2204  0.3218
 9136TIP3   OH248822   2.570   2.082   3.217 -0.3329  0.0635 -0.5062
 9136TIP3    H148823   2.641   2.082   3.281 -0.4160 -1.9058 -0.3466
 9136TIP3    H248824   2.609   2.117   3.137  0.9768 -1.3830 -0.5376
 9137TIP3   OH248825   4.820   0.634  16.931 -0.0386  0.5187  0.6471
 9137TIP3    H148826   4.759   0.707  16.942 -1.3915 -0.7241  1.9148
 9137TIP3    H248827   4.832   0.600  17.019  0.9273 -0.4964  0.1459
 9138TIP3   OH248828   0.196   2.559  15.848  1.0635  0.4414 -0.2969
 9138TIP3    H148829   0.152   2.475  15.832 -2.6956  2.1474  0.0221
 9138TIP3    H248830   0.240   2.547  15.932 -2.1069 -0.3965  1.4246
 9139TIP3   OH248831   5.608   6.734  12.495 -0.3158  0.3677 -0.2792
 9139TIP3    H148832   5.533   6.773  12.451  0.1363  0.0061 -1.4086
 9139TIP3    H248833   5.671   6.806  12.503 -0.9038  0.7644  1.0069
 9140TIP3   OH248834   1.796   3.532  15.752  0.6495 -0.3217  0.1446
 9140TIP3    H148835   1.827   3.509  15.840  0.0197 -2.3855 -0.1201
 9140TIP3    H248836   1.750   3.615  15.764 -1.1624 -1.5161  2.1981
 9141TIP3   OH248837   2.699   4.920   1.738  0.4444 -0.0342 -0.2525
 9141TIP3    H148838   2.777   4.913   1.792  1.5352  0.0640 -1.7446
 9141TIP3    H248839   2.732   4.929   1.648 -1.2884 -2.8998 -1.3045
 9142TIP3   OH248840   5.662   0.166   3.323  0.3763  0.0993 -0.0428
 9142TIP3    H148841   5.722   0.161   3.248  1.2251 -0.5617  0.6616
 9142TIP3    H248842   5.595   0.100   3.303  0.2328  0.3903 -0.5335
 9143TIP3   OH248843   5.837   0.241  13.298 -0.5591 -0.1299  0.7176
 9143TIP3    H148844   5.768   0.217  13.235  0.2687 -1.6050  0.3265
 9143TIP3    H248845   5.886   0.310  13.253 -1.8831  1.1342  1.1055
 9144TIP3   OH248846   2.383   4.755  10.661  0.5057  0.3184 -0.1641
 9144TIP3    H148847   2.400   4.661  10.658  0.7106  0.3128  0.9216
 9144TIP3    H248848   2.469   4.796  10.644  0.6718  0.3042  0.6350
 9145TIP3   OH248849   6.569   2.553   0.337 -0.3735  0.0965 -0.1551
 9145TIP3    H148850   6.517   2.493   0.283 -0.5737 -0.3800  0.5636
 9145TIP3    H248851   6.612   2.497   0.402 -1.9181  0.9030  1.6398
 9146TIP3   OH248852   4.261   0.179   5.632  0.0272 -0.2001 -0.0109
 9146TIP3    H148853   4.350   0.205   5.656  0.6002 -1.6494 -0.4746
 9146TIP3    H248854   4.241   0.105   5.690 -0.7774 -0.0484 -0.0841
 9147TIP3   OH248855   4.549   2.144   5.466 -0.7668 -0.2339  0.0755
 9147TIP3    H148856   4.506   2.229   5.477 -0.3730  0.0561 -0.5795
 9147TIP3    H248857   4.627   2.149   5.520  0.1018  0.4341 -1.1929
 9148TIP3   OH248858   3.133   3.980   5.819  0.5178 -0.2654 -0.0268
 9148TIP3    H148859   3.052   4.016   5.854  0.7839 -0.9940  1.3870
 9148TIP3    H248860   3.200   4.047   5.837  0.5177 -0.3296  0.2118
 9149TIP3   OH248861   4.798   3.494  10.947 -0.4006 -0.1653 -0.1017
 9149TIP3    H148862   4.703   3.498  10.952 -0.3011  1.4774  1.0440
 9149TIP3    H248863   4.826   3.462  11.033  0.1730  2.6980  0.8941
 9150TIP3   OH248864   0.890   2.525   2.860 -0.4380 -0.3014  0.2421
 9150TIP3    H148865   0.909   2.613   2.828 -2.2687  0.5972  1.5165
 9150TIP3    H248866   0.956   2.510   2.928 -0.6634  0.4670  0.6462
 9151TIP3   OH248867   2.549   0.044  15.758  0.0811 -0.4350  0.4218
 9151TIP3    H148868   2.593  -0.022  15.811  1.0711  2.1039  2.9750
 9151TIP3    H248869   2.601   0.049  15.678  1.9856 -0.4112  1.6173
 9152TIP3   OH248870   5.438   4.274  13.880 -0.4208  0.2109  0.0575
 9152TIP3    H148871   5.351   4.269  13.839 -0.0421 -0.3333 -0.7031
 9152TIP3    H248872   5.499   4.260  13.808  0.3035  0.5502  0.5971
 9153TIP3   OH248873   3.382   2.758  14.853 -0.4682 -0.2415  0.1573
 9153TIP3    H148874   3.356   2.733  14.765  1.1726  0.5789 -0.6023
 9153TIP3    H248875   3.478   2.754  14.852 -0.1356  3.9234  0.5859
 9154TIP3   OH248876   1.627   1.632  17.003 -0.1398 -0.0458 -0.2882
 9154TIP3    H148877   1.614   1.539  17.021 -0.1926 -0.1207 -0.7072
 9154TIP3    H248878   1.618   1.640  16.908  2.0177  0.0341 -0.5447
 9155TIP3   OH248879   5.760   1.235  15.780 -0.0866 -0.0459 -0.2553
 9155TIP3    H148880   5.827   1.230  15.712  0.2535 -0.6504  0.1181
 9155TIP3    H248881   5.809   1.245  15.861 -0.4265 -0.9453  0.0678
 9156TIP3   OH248882   5.228   5.793  11.184  0.3211 -0.7503 -0.1477
 9156TIP3    H148883   5.220   5.863  11.120  0.6572  0.0002  0.6039
 9156TIP3    H248884   5.292   5.733  11.146  2.7811  1.1499  0.6757
 9157TIP3   OH248885   0.278   1.914   5.605  0.3976 -0.4129 -0.0841
 9157TIP3    H148886   0.242   1.837   5.649  0.5396 -0.1200  0.5532
 9157TIP3    H248887   0.372   1.900   5.604  0.2855 -1.3720 -2.1186
 9158TIP3   OH248888   2.375   4.519  12.631  0.1054  0.6270  0.5211
 9158TIP3    H148889   2.328   4.547  12.552  2.6336  0.3962 -1.1581
 9158TIP3    H248890   2.466   4.544  12.616  1.2005 -1.9444  2.0992
 9159TIP3   OH248891   1.664   3.915  16.158 -0.4917 -0.5733  0.3200
 9159TIP3    H148892   1.635   3.994  16.114 -0.0195 -0.5343  0.0669
 9159TIP3    H248893   1.706   3.863  16.089  0.0587 -0.6098  0.6739
 9160TIP3   OH248894   5.711   2.597  16.458 -0.4264 -0.3788  0.3084
 9160TIP3    H148895   5.797   2.555  16.457 -1.1181 -1.8712 -0.3792
 9160TIP3    H248896   5.730   2.691  16.458  1.1870 -0.6720  1.1135
 9161TIP3   OH248897   4.586   0.380   3.569  0.9045  0.2350 -0.2582
 9161TIP3    H148898   4.547   0.347   3.650 -0.6297  1.3560 -0.5057
 9161TIP3    H248899   4.676   0.403   3.594  1.7780 -3.1362  0.1303
 9162TIP3   OH248900   6.404   3.471   0.418 -0.1197  0.2103  0.0587
 9162TIP3    H148901   6.315   3.505   0.415 -0.1776  0.5120  2.6732
 9162TIP3    H248902   6.426   3.452   0.327 -2.7346  0.3860 -0.6852
 9163TIP3   OH248903   0.789   3.117  12.970 -0.3535 -0.6114  0.1014
 9163TIP3    H148904   0.874   3.151  13.000  0.0302 -0.5126 -1.0335
 9163TIP3    H248905   0.725   3.179  13.004  0.2459  0.6824 -1.0165
 9164TIP3   OH248906   6.371   0.477   0.138 -0.0050 -0.5604 -0.0276
 9164TIP3    H148907   6.403   0.392   0.167  0.4515 -1.5028 -3.0134
 9164TIP3    H248908   6.279   0.461   0.114  0.0075 -0.1589 -0.3635
 9165TIP3   OH248909   2.565   0.410   1.721  0.4382  0.4968  0.1218
 9165TIP3    H148910   2.539   0.438   1.633  0.2765 -1.6027 -0.5581
 9165TIP3    H248911   2.485   0.416   1.773  0.7662  2.7474  0.4517
 9166TIP3   OH248912   2.315   6.263  14.255  0.1115  0.3660 -0.2444
 9166TIP3    H148913   2.410   6.261  14.260  0.0747 -1.8282  1.1619
 9166TIP3    H248914   2.289   6.171  14.256 -2.0153  0.8625 -1.8531
 9167TIP3   OH248915   2.597   0.397  12.995  0.5318  0.4802 -0.1133
 9167TIP3    H148916   2.641   0.410  13.079 -0.5652  1.6274  0.3088
 9167TIP3    H248917   2.642   0.457  12.935 -0.7346  2.0527  0.4443
 9168TIP3   OH248918   4.834   2.520   3.012  0.0998 -0.0347  0.1526
 9168TIP3    H148919   4.846   2.433   3.050 -1.9193  0.0967  1.2111
 9168TIP3    H248920   4.770   2.507   2.942  0.6961  0.4207 -0.4906
 9169TIP3   OH248921   5.076   4.454   4.094  0.2040 -0.2497 -0.2931
 9169TIP3    H148922   5.136   4.423   4.162 -0.4305 -2.9969 -0.8853
 9169TIP3    H248923   4.989   4.446   4.133  0.0071  1.3549 -0.3159
 9170TIP3   OH248924   3.066   1.935   1.951  0.3327  0.1151  0.2954
 9170TIP3    H148925   3.000   1.950   2.019 -0.5845 -0.0774 -0.5195
 9170TIP3    H248926   3.118   2.015   1.950 -0.6096  0.7488  0.1948
 9171TIP3   OH248927   3.419   3.704  17.057  0.4064 -0.2255  0.1185
 9171TIP3    H148928   3.497   3.760  17.061  0.4774 -0.3955  1.5597
 9171TIP3    H248929   3.355   3.747  17.112  0.8963 -2.1425  2.3772
 9172TIP3   OH248930   1.387   3.305   2.177 -0.4754 -0.4437 -0.0560
 9172TIP3    H148931   1.348   3.390   2.192 -0.4024 -0.4467  0.1483
 9172TIP3    H248932   1.313   3.247   2.156 -0.4104 -0.0465 -1.5226
 9173TIP3   OH248933   3.515   1.548  12.308 -0.0546  0.0893  0.3174
 9173TIP3    H148934   3.499   1.642  12.298  1.5142  0.7400  3.0327
 9173TIP3    H248935   3.430   1.511  12.328 -0.2920  1.3870  1.8522
 9174TIP3   OH248936   1.829   1.684  14.420  0.2279 -0.0419 -0.1027
 9174TIP3    H148937   1.770   1.759  14.409  1.1256  1.0219  1.8779
 9174TIP3    H248938   1.838   1.648  14.332  0.4775  2.7370 -1.3281
 9175TIP3   OH248939   6.374   5.173   3.365 -0.2811  0.2143  1.1631
 9175TIP3    H148940   6.427   5.117   3.310 -1.6484 -2.4948  2.4235
 9175TIP3    H248941   6.425   5.183   3.446  1.0728  3.0067  0.1198
 9176TIP3   OH248942   0.703   5.459  14.338 -0.1097 -0.3610  0.6228
 9176TIP3    H148943   0.776   5.410  14.300  0.0334 -0.0886  0.5396
 9176TIP3    H248944   0.666   5.508  14.265 -0.6311 -0.8103  0.5883
 9177TIP3   OH248945   1.822   1.627   4.960 -0.3433 -0.5417  0.3466
 9177TIP3    H148946   1.869   1.659   5.037 -2.3622  1.6215  0.8075
 9177TIP3    H248947   1.800   1.537   4.981 -0.6613 -0.0644  2.2354
 9178TIP3   OH248948   5.642   3.300   4.803 -0.1008  0.3646 -0.4921
 9178TIP3    H148949   5.625   3.335   4.891  4.8829 -1.6824  1.6650
 9178TIP3    H248950   5.676   3.375   4.754 -0.9108  1.0738 -0.0091
 9179TIP3   OH248951   4.456   0.037  15.148 -0.1204 -0.0013 -0.0347
 9179TIP3    H148952   4.386   0.088  15.188  1.3653  1.8441  0.3878
 9179TIP3    H248953   4.508   0.103  15.101  1.6540 -1.2127  0.1691
 9180TIP3   OH248954   5.671   3.551  11.911 -0.1726 -0.6573 -0.2613
 9180TIP3    H148955   5.683   3.488  11.841  1.9611 -0.4066 -0.1774
 9180TIP3    H248956   5.682   3.501  11.992  1.6466 -0.2167 -0.1952
 9181TIP3   OH248957   4.300   0.436   4.561 -0.1528 -0.5870 -0.2194
 9181TIP3    H148958   4.245   0.439   4.639  0.2091  0.6758  0.0117
 9181TIP3    H248959   4.276   0.514   4.511  1.9260  0.4544  0.2871
 9182TIP3   OH248960   4.222   2.766   4.464  0.2500  0.2317  0.1017
 9182TIP3    H148961   4.174   2.685   4.485  2.1000 -1.2416 -1.0962
 9182TIP3    H248962   4.294   2.768   4.527 -1.0433  2.2498  1.6554
 9183TIP3   OH248963   1.800   3.865   6.024 -0.4759 -0.0472  0.1664
 9183TIP3    H148964   1.840   3.851   6.110  1.1350 -2.6894 -0.8690
 9183TIP3    H248965   1.838   3.947   5.993  0.0962  0.1507  1.3237
 9184TIP3   OH248966   1.359   6.468   3.424 -0.0930 -0.3783  0.3501
 9184TIP3    H148967   1.282   6.510   3.463 -1.0386 -1.7761  0.0479
 9184TIP3    H248968   1.399   6.421   3.497  2.3641  2.7857  1.3038
 9185TIP3   OH248969   6.761   1.870  15.097 -0.4056 -0.9354  0.8905
 9185TIP3    H148970   6.695   1.937  15.113 -0.7149 -1.2768  1.0471
 9185TIP3    H248971   6.825   1.913  15.040 -1.3049 -0.9424 -0.1425
 9186TIP3   OH248972   2.685   0.202  10.498 -0.5792  0.0831  0.5320
 9186TIP3    H148973   2.718   0.123  10.454 -2.3066 -0.4035  0.0157
 9186TIP3    H248974   2.724   0.198  10.585  1.0686 -0.1748 -0.1688
 9187TIP3   OH248975   2.810   1.672   2.973 -0.1982  0.8417  0.1866
 9187TIP3    H148976   2.777   1.592   3.015 -0.0926  0.6335 -0.1309
 9187TIP3    H248977   2.740   1.736   2.988 -0.1146  0.8027  0.7836
 9188TIP3   OH248978   0.325   2.030   0.384 -0.4320  0.7348  0.4332
 9188TIP3    H148979   0.385   1.962   0.415 -0.2604  0.8981  0.4621
 9188TIP3    H248980   0.356   2.111   0.426 -0.5665  0.8509  0.3124
 9189TIP3   OH248981   4.487   4.314   5.579 -0.6045 -0.1795  0.2862
 9189TIP3    H148982   4.494   4.281   5.669  0.3272  0.0638  0.3137
 9189TIP3    H248983   4.578   4.327   5.551 -0.8808 -0.2669 -0.7007
 9190TIP3   OH248984   3.209   6.398  14.956  0.1415 -0.0125  0.3110
 9190TIP3    H148985   3.276   6.391  14.889 -1.7901 -0.2899 -1.7020
 9190TIP3    H248986   3.258   6.405  15.038  2.6067  0.6579 -1.1049
 9191TIP3   OH248987   5.746   6.414  16.875  0.0214 -0.5451  0.6180
 9191TIP3    H148988   5.814   6.464  16.830 -1.4734 -0.2735 -1.4724
 9191TIP3    H248989   5.669   6.422  16.819 -1.6944 -1.0424  2.7823
 9192TIP3   OH248990   0.786   1.161  11.642 -0.3552 -0.2388 -0.0741
 9192TIP3    H148991   0.842   1.155  11.565  0.1860 -1.6558  0.4108
 9192TIP3    H248992   0.709   1.108  11.620 -0.7374  0.3014 -0.0703
 9193TIP3   OH248993   5.885   3.354  14.676  0.0365  0.0643 -0.4121
 9193TIP3    H148994   5.836   3.435  14.662 -1.5480 -0.9510 -0.8684
 9193TIP3    H248995   5.919   3.362  14.765  0.4924  1.5165 -0.6862
 9194TIP3   OH248996   5.099   6.742   4.475  0.7576  0.0674 -0.1084
 9194TIP3    H148997   5.141   6.678   4.532  2.1740  0.4177 -0.7112
 9194TIP3    H248998   5.163   6.812   4.465 -0.4217  1.1799 -0.1639
 9195TIP3   OH248999   3.723   6.440   3.831 -0.4024 -0.4038  0.4571
 9195TIP3    H149000   3.714   6.345   3.825  0.7052 -0.5375  0.6853
 9195TIP3    H249001   3.637   6.470   3.861 -1.2379 -1.1669 -1.0604
 9196TIP3   OH249002   1.072   2.976  13.218  0.6237  0.4001  0.2273
 9196TIP3    H149003   1.038   3.057  13.256 -0.9748 -0.2202  0.1775
 9196TIP3    H249004   1.041   2.977  13.127 -0.4469 -0.7997  0.5448
 9197TIP3   OH249005   5.982   5.048  12.353  0.0361 -0.1966 -0.2906
 9197TIP3    H149006   5.925   4.975  12.330  1.0796 -0.8377 -0.8979
 9197TIP3    H249007   5.924   5.124  12.355 -1.1375 -1.0792  0.7028
 9198TIP3   OH249008   0.944   2.791   0.518  0.6843  0.0438  0.9191
 9198TIP3    H149009   0.900   2.825   0.596 -0.5802  2.0747 -0.5945
 9198TIP3    H249010   0.907   2.840   0.445  0.5785 -2.9239 -1.2300
 9199TIP3   OH249011   4.753   5.910   6.620 -0.1170 -0.2417 -0.0097
 9199TIP3    H149012   4.776   5.996   6.655  0.2199 -0.6653  0.8156
 9199TIP3    H249013   4.659   5.915   6.604 -0.0127  0.4469 -0.4406
 9200TIP3   OH249014   1.262   2.414   3.717  0.5887 -0.3245  0.0341
 9200TIP3    H149015   1.334   2.403   3.780  1.1713 -1.4697 -0.7935
 9200TIP3    H249016   1.256   2.329   3.673 -0.5325  0.1193 -0.6938
 9201TIP3   OH249017   3.067   0.073   0.187  0.7387  0.9005 -0.6414
 9201TIP3    H149018   3.086   0.055   0.095  0.6404 -0.9745 -0.3452
 9201TIP3    H249019   2.981   0.114   0.187  0.8035  1.0477 -1.3892
 9202TIP3   OH249020   4.464   4.263   4.273 -0.1880 -0.3360 -0.3413
 9202TIP3    H149021   4.508   4.310   4.344 -1.8840  1.3710 -0.3525
 9202TIP3    H249022   4.526   4.268   4.200  0.6916 -0.3050  0.3813
 9203TIP3   OH249023   6.602   5.386  13.994  0.4722  0.5098  0.7506
 9203TIP3    H149024   6.692   5.354  14.003  0.4970 -0.2826 -1.7026
 9203TIP3    H249025   6.608   5.455  13.928 -0.3048  2.5952  2.7562
 9204TIP3   OH249026   6.594   2.705  15.383 -0.4148 -0.8208  0.0515
 9204TIP3    H149027   6.575   2.753  15.463 -1.9064  1.4626 -1.5556
 9204TIP3    H249028   6.687   2.681  15.391  0.6755  2.9349  0.7181
 9205TIP3   OH249029   4.904   0.284   3.923 -0.0345  0.1257  0.3937
 9205TIP3    H149030   4.950   0.357   3.966  1.0258 -0.2110 -0.1252
 9205TIP3    H249031   4.816   0.287   3.960  0.8291 -0.1876  2.6804
 9206TIP3   OH249032   3.866   2.008   1.889 -0.6776  0.2872  0.0310
 9206TIP3    H149033   3.942   2.046   1.844 -0.9332 -0.8204 -1.3942
 9206TIP3    H249034   3.812   1.973   1.819 -1.3116 -1.1302  1.1918
 9207TIP3   OH249035   1.342   0.807   5.451 -0.3133  0.3670  0.6907
 9207TIP3    H149036   1.401   0.752   5.399 -1.1167  0.0779  0.0587
 9207TIP3    H249037   1.255   0.788   5.416 -0.6262  1.9698  0.5310
 9208TIP3   OH249038   0.952   0.720   4.111  0.1487 -0.0055 -0.0089
 9208TIP3    H149039   0.884   0.764   4.060  0.4327  1.3115  0.7175
 9208TIP3    H249040   1.021   0.702   4.047  0.7718  2.2000 -0.0321
 9209TIP3   OH249041   0.267   0.253   5.382 -0.1607  0.1691 -0.0699
 9209TIP3    H149042   0.253   0.163   5.352 -0.9756 -0.0120  0.7951
 9209TIP3    H249043   0.351   0.279   5.343  0.2454 -1.0730 -0.0638
 9210TIP3   OH249044   3.432   4.433   4.158  0.4491 -0.0935  0.6274
 9210TIP3    H149045   3.423   4.448   4.064 -0.4522 -1.2926  0.4929
 9210TIP3    H249046   3.492   4.358   4.164 -0.7122 -1.0173  0.9228
 9211TIP3   OH249047   2.955   6.630   2.061 -0.5448  0.3946  0.7651
 9211TIP3    H149048   2.928   6.564   1.997  0.2914  1.8063 -1.1440
 9211TIP3    H249049   3.042   6.603   2.088 -0.7319  0.0163  0.9925
 9212TIP3   OH249050   3.639   2.042   1.317  0.2016 -0.2285 -0.0899
 9212TIP3    H149051   3.658   1.961   1.363 -0.0321 -0.4362 -0.3532
 9212TIP3    H249052   3.611   2.103   1.385  1.7607  0.0822  0.3084
 9213TIP3   OH249053   0.727   3.059  11.630 -0.0270 -0.2680  0.3825
 9213TIP3    H149054   0.741   3.015  11.546  0.8567  0.8284 -0.0752
 9213TIP3    H249055   0.710   3.151  11.606  1.2509  0.2645  1.4315
 9214TIP3   OH249056   6.455   2.157  14.221  0.8555 -0.4124  0.5449
 9214TIP3    H149057   6.484   2.226  14.281 -0.1474 -0.5424  1.1897
 9214TIP3    H249058   6.360   2.154  14.231  0.1110  1.8052 -3.4603
 9215TIP3   OH249059   6.580   1.978   2.338 -0.8718 -0.2822 -0.3403
 9215TIP3    H149060   6.532   1.940   2.411  0.1251 -0.5188  0.2015
 9215TIP3    H249061   6.660   2.012   2.376 -1.6458  2.3086 -0.8168
 9216TIP3   OH249062   6.717   6.530   5.709  0.2607 -0.1482 -0.5521
 9216TIP3    H149063   6.800   6.534   5.757  0.1639  1.1317 -0.4609
 9216TIP3    H249064   6.678   6.448   5.738 -0.2039  0.9365  2.3229
 9217TIP3   OH249065   5.620   3.417  10.898  0.4249  0.4331 -0.5205
 9217TIP3    H149066   5.586   3.506  10.908 -0.3701 -0.0278  1.4156
 9217TIP3    H249067   5.549   3.361  10.929  0.9144 -0.9025 -1.7050
 9218TIP3   OH249068   1.395   2.693   1.808 -0.6060  0.3861  0.2055
 9218TIP3    H149069   1.484   2.706   1.841 -0.4442  0.8211 -0.3890
 9218TIP3    H249070   1.365   2.613   1.851  0.4159 -0.2979 -0.3151
 9219TIP3   OH249071   2.582   4.096   0.851  0.2214 -0.0637  0.6538
 9219TIP3    H149072   2.518   4.027   0.871 -1.1936  1.0556  0.1244
 9219TIP3    H249073   2.562   4.122   0.761  1.2158  0.5537  0.5966
 9220TIP3   OH249074   3.516   0.614   3.088 -0.1423 -0.0533  0.1326
 9220TIP3    H149075   3.575   0.629   3.163 -0.4479 -0.2206  0.4082
 9220TIP3    H249076   3.533   0.524   3.062 -1.1987 -0.5440  1.0418
 9221TIP3   OH249077   4.444   1.757   2.919  0.1950  0.2262 -0.5861
 9221TIP3    H149078   4.431   1.777   2.826 -1.4692 -3.5862 -1.3540
 9221TIP3    H249079   4.504   1.682   2.919  1.1178  0.8705  1.5666
 9222TIP3   OH249080   2.207   6.179   4.921 -0.2032  0.1582 -0.5941
 9222TIP3    H149081   2.122   6.143   4.897  0.3335 -1.0677 -0.7528
 9222TIP3    H249082   2.242   6.117   4.985 -0.1578  1.5748  0.8172
 9223TIP3   OH249083   4.480   5.200   1.340  0.0888 -0.0435 -0.2552
 9223TIP3    H149084   4.427   5.120   1.344  1.6050 -1.0484  1.4538
 9223TIP3    H249085   4.501   5.219   1.431 -0.2009  2.3356 -0.6210
 9224TIP3   OH249086   3.862   1.056   1.569 -0.2655 -0.1320 -0.1022
 9224TIP3    H149087   3.838   0.964   1.557 -1.1474 -0.0974  1.1792
 9224TIP3    H249088   3.792   1.092   1.623  1.1665  0.7527  1.2308
 9225TIP3   OH249089   4.802   5.170  14.891  0.2692 -0.5260  0.1505
 9225TIP3    H149090   4.840   5.174  14.803  0.9059  3.4063  0.4058
 9225TIP3    H249091   4.711   5.198  14.879 -0.4710 -2.6077  0.4976
 9226TIP3   OH249092   5.250   5.257  12.341  0.5901  0.5648  0.0863
 9226TIP3    H149093   5.161   5.254  12.376 -0.0602  0.0680 -1.4891
 9226TIP3    H249094   5.239   5.288  12.251  1.8461 -0.8191 -0.5848
 9227TIP3   OH249095   3.798   4.801  15.395  0.5887 -0.5533 -0.9500
 9227TIP3    H149096   3.772   4.710  15.408  1.5886 -0.8025 -0.5997
 9227TIP3    H249097   3.857   4.799  15.320  0.3941 -0.1529 -1.1165
 9228TIP3   OH249098   6.789   3.407   0.354  0.1095  0.1367  0.1301
 9228TIP3    H149099   6.793   3.487   0.302 -0.6255 -0.0092 -0.1603
 9228TIP3    H249100   6.759   3.340   0.293 -0.0113 -0.2027  0.5515
 9229TIP3   OH249101   0.685   5.497   3.976  0.0301 -0.0929 -0.3107
 9229TIP3    H149102   0.689   5.513   4.071  0.4970 -1.4250 -0.0955
 9229TIP3    H249103   0.592   5.489   3.957 -0.0397 -0.3611  0.1315
 9230TIP3   OH249104   6.514   6.468   1.222 -0.0772  0.9984  0.4384
 9230TIP3    H149105   6.578   6.539   1.229  1.8772 -0.6957  0.7481
 9230TIP3    H249106   6.557   6.393   1.264 -1.2647 -0.8722 -1.4635
 9231TIP3   OH249107   0.926   2.477  10.909  0.0590 -0.4044 -0.6290
 9231TIP3    H149108   0.852   2.538  10.913 -0.2306 -0.7942  0.2724
 9231TIP3    H249109   0.944   2.454  11.001  0.0699 -1.7798 -0.9452
 9232TIP3   OH249110   1.099   6.390   5.291  0.4099 -0.1980  0.0622
 9232TIP3    H149111   1.018   6.339   5.291  0.2524 -0.0009 -1.7572
 9232TIP3    H249112   1.091   6.448   5.367 -1.3863  0.1621 -0.3708
 9233TIP3   OH249113   0.422   0.864  11.850  0.3099  0.1978  0.3031
 9233TIP3    H149114   0.370   0.784  11.841  1.5439 -0.4251 -2.5827
 9233TIP3    H249115   0.484   0.844  11.920  0.8892 -1.6337 -0.6507
 9234TIP3   OH249116   0.874   0.822  17.075  0.4684  0.0632 -0.4222
 9234TIP3    H149117   0.949   0.843  17.130  0.2795 -0.0759 -0.1076
 9234TIP3    H249118   0.911   0.800  16.989  0.7807 -0.0071 -0.2676
 9235TIP3   OH249119   3.485   4.726   4.178  0.1893  0.2455  0.5321
 9235TIP3    H149120   3.543   4.748   4.104 -0.4230  0.5944  0.1486
 9235TIP3    H249121   3.495   4.632   4.189  1.4026  0.3940  0.9607
 9236TIP3   OH249122   3.041   5.486   4.759 -0.2515 -0.3408 -0.5033
 9236TIP3    H149123   3.055   5.413   4.699 -0.8041  0.4061 -1.5753
 9236TIP3    H249124   2.949   5.480   4.783 -0.1408 -0.3684 -0.0685
 9237TIP3   OH249125   5.206   2.608  12.260 -0.0918  0.0076 -0.1572
 9237TIP3    H149126   5.241   2.536  12.312  0.9402 -0.4667 -1.4661
 9237TIP3    H249127   5.235   2.590  12.171 -0.5758  1.5791 -0.6662
 9238TIP3   OH249128   0.126   2.348  13.875 -0.2245  0.2285 -0.6370
 9238TIP3    H149129   0.186   2.274  13.865 -0.0946  0.3950 -1.1169
 9238TIP3    H249130   0.099   2.370  13.786  0.5382  1.3970 -0.6012
 9239TIP3   OH249131   3.256   2.865   2.449  1.0023  0.0723  0.4999
 9239TIP3    H149132   3.338   2.819   2.462 -0.1005 -2.1510  0.1417
 9239TIP3    H249133   3.210   2.813   2.383 -0.5551  1.4545  0.4223
 9240TIP3   OH249134   4.908   0.076   5.280  0.0051  0.0176 -0.0437
 9240TIP3    H149135   4.908  -0.015   5.309  0.9303 -0.5409 -1.6599
 9240TIP3    H249136   4.964   0.077   5.202 -0.4988  1.8501 -0.4450
 9241TIP3   OH249137   6.560   3.476  13.381 -0.0959 -0.0232 -0.4255
 9241TIP3    H149138   6.567   3.387  13.413 -0.3429  0.6053  1.4723
 9241TIP3    H249139   6.635   3.486  13.321  1.1613 -0.8492  0.9561
 9242TIP3   OH249140   3.825   2.106   4.767 -0.1069  0.5544  0.1886
 9242TIP3    H149141   3.815   2.137   4.677  1.1193  2.0690  0.5279
 9242TIP3    H249142   3.769   2.029   4.773 -2.6396  2.1747 -1.0043
 9243TIP3   OH249143   4.306   4.377  11.553 -0.6847 -0.8658  0.0758
 9243TIP3    H149144   4.385   4.393  11.604 -0.2319 -1.8555 -0.2783
 9243TIP3    H249145   4.290   4.460  11.508  0.3244 -0.7295 -0.0737
 9244TIP3   OH249146   2.060   5.577   1.524 -0.1414 -0.0939 -0.1129
 9244TIP3    H149147   2.020   5.638   1.462 -2.6108 -0.9254  0.5376
 9244TIP3    H249148   2.045   5.491   1.486 -0.5625 -0.5351  1.0063
 9245TIP3   OH249149   4.053   1.979  13.714 -0.2056  0.0315 -0.6131
 9245TIP3    H149150   3.982   1.953  13.656 -0.1119 -0.3673 -0.5525
 9245TIP3    H249151   4.061   1.907  13.776  0.2640  0.0630 -0.6308
 9246TIP3   OH249152   0.999   5.063   5.073 -0.2333  0.1304  0.4097
 9246TIP3    H149153   1.007   4.984   5.020  0.5045  0.2897  0.2654
 9246TIP3    H249154   0.943   5.122   5.023 -1.4662 -0.5986  0.8894
 9247TIP3   OH249155   5.631   5.715  14.205  0.1854  0.3457 -0.2628
 9247TIP3    H149156   5.682   5.729  14.125 -1.7505  0.2086 -1.5911
 9247TIP3    H249157   5.592   5.801  14.224 -0.5665  0.0284 -0.3461
 9248TIP3   OH249158   1.968   5.606   6.228 -0.1965 -0.0425 -0.3242
 9248TIP3    H149159   1.877   5.636   6.234 -0.5659 -0.9005 -1.4262
 9248TIP3    H249160   2.003   5.620   6.316 -1.6380 -0.4438  0.3457
 9249TIP3   OH249161   2.799   5.727   3.004 -0.2544  0.1767 -0.7051
 9249TIP3    H149162   2.733   5.791   3.032 -0.2001  0.8011 -1.9392
 9249TIP3    H249163   2.803   5.665   3.076 -1.4359  0.7051 -0.1398
 9250TIP3   OH249164   4.109   6.443  15.759 -0.6342  0.2394  0.1633
 9250TIP3    H149165   4.127   6.359  15.801 -0.4599 -0.5460 -1.4192
 9250TIP3    H249166   4.028   6.429  15.710 -1.5114  1.5075  1.1709
 9251TIP3   OH249167   5.622   5.978   2.727 -0.4535 -0.2405  0.3896
 9251TIP3    H149168   5.671   5.991   2.646 -0.9155  0.2516  0.1846
 9251TIP3    H249169   5.619   6.065   2.767  1.7791 -0.8730  2.1122
 9252TIP3   OH249170   6.456   6.469  13.982  0.3673 -0.2935  0.3170
 9252TIP3    H149171   6.408   6.466  14.065  1.1280  0.2028  0.7902
 9252TIP3    H249172   6.487   6.559  13.976  0.8751 -0.4964 -0.1945
 9253TIP3   OH249173   3.779   1.280  10.407  0.4460  0.0757 -0.3181
 9253TIP3    H149174   3.830   1.231  10.342  0.5386  0.2206 -0.3556
 9253TIP3    H249175   3.817   1.256  10.491  1.0979  0.7872 -0.3987
 9254TIP3   OH249176   0.043   2.074   0.509  0.1971 -0.3675 -0.0872
 9254TIP3    H149177  -0.006   2.085   0.427  0.1471 -0.1385 -0.0252
 9254TIP3    H249178   0.072   2.162   0.532 -0.3130 -0.3405  0.4718
 9255TIP3   OH249179   4.725   2.484   1.629  0.1502  0.2833  0.7363
 9255TIP3    H149180   4.732   2.388   1.634 -1.2190  0.1972  1.6561
 9255TIP3    H249181   4.719   2.502   1.536  0.6457 -0.5053  0.5364
 9256TIP3   OH249182   5.629   0.254   2.770  0.4132  0.0626 -0.5532
 9256TIP3    H149183   5.646   0.333   2.821  0.5972  0.0935 -0.6636
 9256TIP3    H249184   5.559   0.209   2.818  2.1772 -1.1054  1.0551
 9257TIP3   OH249185   6.125   0.228  12.617 -0.1969 -0.0297  0.1777
 9257TIP3    H149186   6.216   0.199  12.620  0.0786  0.9247  2.0356
 9257TIP3    H249187   6.103   0.228  12.523  1.1273 -1.9671 -0.1948
 9258TIP3   OH249188   3.250   6.038   4.511 -0.0099 -0.1531 -0.6917
 9258TIP3    H149189   3.314   6.103   4.482  0.1799 -0.7490 -1.6235
 9258TIP3    H249190   3.169   6.062   4.466 -0.2490  0.1279 -0.1238
 9259TIP3   OH249191   4.191   5.136   4.401  0.0305 -0.1582  0.2237
 9259TIP3    H149192   4.220   5.084   4.476  1.2537 -0.2336 -0.2753
 9259TIP3    H249193   4.141   5.076   4.347  0.3511 -0.4788  0.2836
 9260TIP3   OH249194   1.270   5.785  11.114  0.3884  0.4296  0.3325
 9260TIP3    H149195   1.300   5.876  11.108  1.4651  0.0482 -0.2473
 9260TIP3    H249196   1.341   5.733  11.077 -0.2134 -0.6614  0.6514
 9261TIP3   OH249197   4.719   4.958   0.115  0.1529  0.5054 -0.1101
 9261TIP3    H149198   4.765   5.040   0.097 -2.4758  1.7616 -1.7650
 9261TIP3    H249199   4.670   4.974   0.195  1.1772 -0.2106  0.6852
 9262TIP3   OH249200   3.584   0.651  12.033  0.3404  0.3177  0.1957
 9262TIP3    H149201   3.598   0.706  11.956  1.4939 -0.3670 -0.0986
 9262TIP3    H249202   3.615   0.564  12.007  2.0259  0.3592  1.8456
 9263TIP3   OH249203   4.843   1.347   0.968 -0.3879 -0.1836  0.3095
 9263TIP3    H149204   4.819   1.315   0.881  0.2660  0.9629 -0.3211
 9263TIP3    H249205   4.936   1.369   0.961 -0.2181 -0.4768  1.4349
 9264TIP3   OH249206   1.951   6.103  17.006 -0.2584  0.0010 -0.3010
 9264TIP3    H149207   1.925   6.012  17.025 -0.6586  0.2889  0.5878
 9264TIP3    H249208   2.033   6.115  17.055 -0.4968  0.2809  0.0383
 9265TIP3   OH249209   0.382   1.407   5.096 -0.1754  0.0185 -0.3119
 9265TIP3    H149210   0.300   1.385   5.140 -0.9383  1.7950 -0.7799
 9265TIP3    H249211   0.374   1.367   5.009 -1.1373  1.2913 -0.8266
 9266TIP3   OH249212   5.355   1.800   0.619  0.0277 -0.0502  0.4306
 9266TIP3    H149213   5.380   1.766   0.705 -0.3634 -0.5744  0.3443
 9266TIP3    H249214   5.333   1.892   0.635  1.5837  0.3173  0.5778
 9267TIP3   OH249215   0.657   2.790  16.536 -1.1725  0.7066  0.1607
 9267TIP3    H149216   0.670   2.696  16.545  2.1008  1.2048  2.1033
 9267TIP3    H249217   0.562   2.802  16.546 -1.6380 -2.3022  0.3162
 9268TIP3   OH249218   0.962   6.540  16.403  0.0385  0.0513  0.2032
 9268TIP3    H149219   1.010   6.483  16.342  1.7001  1.8023 -0.2319
 9268TIP3    H249220   1.017   6.542  16.481 -0.5016  0.2794  0.5755
 9269TIP3   OH249221   5.231   0.151  12.123  0.2234  0.1517 -0.2784
 9269TIP3    H149222   5.156   0.097  12.149  0.5958 -0.6482 -0.8025
 9269TIP3    H249223   5.222   0.159  12.028  0.2272  0.9473 -0.2154
 9270TIP3   OH249224   2.763   2.025  16.662  0.1915  0.1190  0.7233
 9270TIP3    H149225   2.745   2.118  16.646 -0.3430  0.0427  0.8529
 9270TIP3    H249226   2.693   1.998  16.722 -2.3444 -1.4336 -2.6048
 9271TIP3   OH249227   1.015   6.143   2.892 -0.2524  0.2333 -0.4499
 9271TIP3    H149228   1.095   6.195   2.897  0.7023 -1.1442 -0.7774
 9271TIP3    H249229   0.947   6.198   2.932  1.4231  0.3479  2.5236
 9272TIP3   OH249230   1.360   5.796   4.625 -0.6229  0.0352  0.1631
 9272TIP3    H149231   1.299   5.735   4.667  0.1705 -1.4565 -0.7566
 9272TIP3    H249232   1.309   5.838   4.556 -1.0951  0.2157  0.6144
 9273TIP3   OH249233   6.246   4.548   2.792  0.3637  1.1737  0.0173
 9273TIP3    H149234   6.220   4.511   2.708  0.2913 -1.2233  1.0170
 9273TIP3    H249235   6.165   4.580   2.832 -0.1275 -0.5531  0.4674
 9274TIP3   OH249236   5.040   2.679  10.411 -0.5146 -0.0265 -0.2017
 9274TIP3    H149237   4.975   2.609  10.415 -2.1846  1.5300  1.3686
 9274TIP3    H249238   5.124   2.634  10.426 -1.5864 -1.6433  1.3918
 9275TIP3   OH249239   5.375   3.775   3.498  0.2597 -0.6119  0.4037
 9275TIP3    H149240   5.401   3.752   3.587 -1.4765 -0.8089  0.9117
 9275TIP3    H249241   5.294   3.825   3.510  0.0449 -0.5673 -1.0681
 9276TIP3   OH249242   0.495   1.625   2.815  0.0600  0.0103  0.2324
 9276TIP3    H149243   0.552   1.565   2.863  0.2077  0.4527  0.6095
 9276TIP3    H249244   0.438   1.663   2.881 -0.4276 -0.1418 -0.0894
 9277TIP3   OH249245   0.360   5.524  16.194 -0.3666 -0.2179 -0.4809
 9277TIP3    H149246   0.417   5.552  16.123 -0.7617 -1.2565 -1.2349
 9277TIP3    H249247   0.395   5.567  16.271 -0.0687  1.1410 -1.3314
 9278TIP3   OH249248   5.319   4.784   2.898 -0.8187 -0.9269 -0.1761
 9278TIP3    H149249   5.257   4.758   2.830  1.4334 -3.7916 -1.3602
 9278TIP3    H249250   5.330   4.878   2.887 -1.3755 -1.1215 -3.0821
 9279TIP3   OH249251   1.100   5.197   2.752 -0.0558 -0.3928 -0.2536
 9279TIP3    H149252   1.050   5.207   2.672 -0.0259 -0.3157 -0.2626
 9279TIP3    H249253   1.140   5.110   2.745 -1.0179 -0.8854  0.2200
 9280TIP3   OH249254   6.042   5.591   5.620 -0.2655  0.1663  0.4064
 9280TIP3    H149255   6.068   5.528   5.687  3.1906 -0.5383 -1.4004
 9280TIP3    H249256   6.090   5.671   5.643 -1.7799  1.0606  0.6262
 9281TIP3   OH249257   4.731   5.001  14.067 -0.7462  0.1667 -0.0023
 9281TIP3    H149258   4.822   5.032  14.065 -0.7105  0.0473 -0.1903
 9281TIP3    H249259   4.735   4.914  14.029 -0.4196 -1.1328  2.7466
 9282TIP3   OH249260   6.346   5.904   2.095 -0.0135 -0.0941 -0.5734
 9282TIP3    H149261   6.260   5.946   2.100 -0.5559 -1.2856  0.7189
 9282TIP3    H249262   6.359   5.890   2.001 -0.6021  1.3122 -0.9018
 9283TIP3   OH249263   0.144   4.421   4.173  0.5097 -0.0675  0.1435
 9283TIP3    H149264   0.219   4.407   4.231  1.5027  0.0218 -1.0732
 9283TIP3    H249265   0.181   4.460   4.094 -0.9628  0.9042 -0.1184
 9284TIP3   OH249266   4.912   6.608  11.331 -0.1526  0.3253 -0.4951
 9284TIP3    H149267   4.956   6.540  11.280  1.3219  0.4047  0.6186
 9284TIP3    H249268   4.931   6.587  11.422  2.5402  3.5335 -0.1211
 9285TIP3   OH249269   0.557   6.731  10.726 -0.5930  0.4069  0.0155
 9285TIP3    H149270   0.571   6.646  10.684 -1.7856 -0.3778  1.1228
 9285TIP3    H249271   0.584   6.795  10.660 -0.2399 -0.8134 -1.0702
 9286TIP3   OH249272   4.862   6.179   5.337 -0.4936 -0.5064 -0.7334
 9286TIP3    H149273   4.916   6.198   5.414 -1.6722  0.2352 -0.0736
 9286TIP3    H249274   4.909   6.220   5.264 -0.5882  0.8730 -0.0370
 9287TIP3   OH249275   3.352   2.425  15.792  0.0763  0.0238  0.0611
 9287TIP3    H149276   3.304   2.377  15.859 -0.4077  0.9860  0.4213
 9287TIP3    H249277   3.438   2.382  15.788 -0.3060 -0.7819  0.4518
 9288TIP3   OH249278   0.791   2.216   2.488  0.4049 -0.2315 -1.0328
 9288TIP3    H149279   0.737   2.143   2.517  1.1145 -0.1070  0.7303
 9288TIP3    H249280   0.744   2.294   2.518  0.4783 -0.0319 -1.4286
 9289TIP3   OH249281   0.555   2.836   2.216 -0.0718 -0.2310 -0.2055
 9289TIP3    H149282   0.622   2.902   2.201 -0.4015 -0.0115 -0.7316
 9289TIP3    H249283   0.520   2.816   2.129 -2.0325  1.0828  0.1949
 9290TIP3   OH249284   3.504   0.761  13.869  0.1440  0.5052 -0.4561
 9290TIP3    H149285   3.454   0.770  13.950  0.4372  2.9468 -0.4609
 9290TIP3    H249286   3.528   0.851  13.846  0.3723 -0.1429 -3.0596
 9291TIP3   OH249287   3.702   4.330  15.210  0.1385  0.0445  0.2410
 9291TIP3    H149288   3.695   4.423  15.231 -0.7960  0.3525 -1.2513
 9291TIP3    H249289   3.625   4.290  15.250  0.8417 -0.2035  1.3721
 9292TIP3   OH249290   0.158   4.157   6.025  0.6554 -0.1327  0.1586
 9292TIP3    H149291   0.140   4.223   6.092 -0.9932  1.7917 -2.0074
 9292TIP3    H249292   0.092   4.089   6.041 -0.5649  0.9114 -0.1892
 9293TIP3   OH249293   5.239   5.691  14.968  0.4656 -0.0231  0.0781
 9293TIP3    H149294   5.240   5.781  14.936  0.4915 -0.0849 -0.0936
 9293TIP3    H249295   5.331   5.670  14.984  0.3751  0.4362  1.3988
 9294TIP3   OH249296   0.982   3.038   0.786  0.5638  0.1867  0.2404
 9294TIP3    H149297   0.902   3.083   0.760 -0.0826 -1.1040 -0.0808
 9294TIP3    H249298   1.008   3.080   0.868 -0.7012  0.3166  0.5893
 9295TIP3   OH249299   5.748   3.017   4.484 -0.2300  0.0775 -0.5769
 9295TIP3    H149300   5.731   3.109   4.465  2.7485  1.1382  1.1932
 9295TIP3    H249301   5.758   2.976   4.398 -1.5855  1.3600 -1.4037
 9296TIP3   OH249302   0.287   6.462   0.809  0.1326 -0.0597 -0.1190
 9296TIP3    H149303   0.231   6.394   0.845 -1.4959  1.3771  0.2253
 9296TIP3    H249304   0.228   6.516   0.756  1.0340  1.8578  0.7250
 9297TIP3   OH249305   4.953   4.481   0.204 -0.2534 -0.0678 -0.1768
 9297TIP3    H149306   5.006   4.451   0.130  0.3709 -0.7565  0.5429
 9297TIP3    H249307   4.935   4.573   0.184 -1.9134 -0.7532 -2.2453
 9298TIP3   OH249308   1.853   3.928  14.442 -0.0226 -0.6251 -0.3693
 9298TIP3    H149309   1.800   3.879  14.504 -1.0023  0.6034 -0.2145
 9298TIP3    H249310   1.793   3.952  14.372  0.3778  0.5509 -0.3316
 9299TIP3   OH249311   2.503   2.576   3.883  0.1230 -0.0016  0.1530
 9299TIP3    H149312   2.442   2.541   3.819 -0.2407 -0.4882  0.7489
 9299TIP3    H249313   2.546   2.649   3.839 -0.5616  0.0564 -0.4290
 9300TIP3   OH249314   4.119   4.246   1.581 -0.4251  0.0217 -0.5010
 9300TIP3    H149315   4.177   4.322   1.575  1.1121 -1.1619 -1.6507
 9300TIP3    H249316   4.086   4.234   1.492  0.6359 -1.5614 -0.7246
 9301TIP3   OH249317   3.278   3.993   6.162  0.0452  0.0590  0.8894
 9301TIP3    H149318   3.359   3.986   6.212  0.5537  1.1354  0.2583
 9301TIP3    H249319   3.244   4.080   6.185  0.0749  0.4028 -0.2847
 9302TIP3   OH249320   2.181   4.506   5.200  0.2780 -0.4634 -0.4388
 9302TIP3    H149321   2.168   4.478   5.290  0.0021 -0.4330 -0.4707
 9302TIP3    H249322   2.112   4.570   5.183 -0.6887 -1.6587 -1.1824
 9303TIP3   OH249323   0.523   3.167   6.585 -0.7896  0.2317 -0.4703
 9303TIP3    H149324   0.525   3.258   6.615  1.2831 -0.0076  0.3253
 9303TIP3    H249325   0.549   3.116   6.662 -1.4239 -0.9977 -1.0371
 9304TIP3   OH249326   0.152   1.404   5.489  0.0946 -0.2958 -0.3875
 9304TIP3    H149327   0.155   1.498   5.507  0.2196 -0.1009 -1.3775
 9304TIP3    H249328   0.114   1.366   5.568 -0.7940  0.6770 -0.3267
 9305TIP3   OH249329   6.056   3.954   0.344  0.2479 -0.1894  0.2418
 9305TIP3    H149330   6.106   4.030   0.372 -0.2226  0.4861 -0.7051
 9305TIP3    H249331   6.068   3.890   0.415  0.6356  0.7566  1.0540
 9306TIP3   OH249332   5.011   2.373   2.751  0.5400  0.5198  0.3653
 9306TIP3    H149333   5.090   2.326   2.723  0.7507  0.5762  0.8579
 9306TIP3    H249334   4.996   2.343   2.841 -1.8289 -1.9876 -0.6839
 9307TIP3   OH249335   2.126   6.635   1.830 -0.0543 -0.0977 -0.1788
 9307TIP3    H149336   2.178   6.647   1.751  0.5584  0.4164  0.2864
 9307TIP3    H249337   2.170   6.689   1.896 -0.6402 -0.3940  0.4716
 9308TIP3   OH249338   0.779   0.077   0.800 -0.1932 -0.1347 -0.8056
 9308TIP3    H149339   0.685   0.060   0.814 -0.3724 -0.6401 -2.4654
 9308TIP3    H249340   0.820  -0.009   0.804  0.1238  0.0203 -0.6696
 9309TIP3   OH249341   5.017   6.514   2.629 -0.0673 -0.4316  1.0628
 9309TIP3    H149342   4.994   6.431   2.589  1.7978 -0.8443  0.7517
 9309TIP3    H249343   4.991   6.580   2.565  1.5657 -1.0004 -0.2432
 9310TIP3   OH249344   1.393   6.390  16.777  0.9868 -0.3310  1.0029
 9310TIP3    H149345   1.454   6.318  16.759 -0.6952 -1.4361 -0.6224
 9310TIP3    H249346   1.365   6.420  16.691 -0.7385  0.1565  1.6908
 9311TIP3   OH249347   2.980   5.997   0.570  0.2822  0.1361 -0.3817
 9311TIP3    H149348   2.989   6.021   0.662 -2.6330  0.7024 -0.1384
 9311TIP3    H249349   2.975   6.081   0.523  0.7986 -0.1400 -0.9481
 9312TIP3   OH249350   6.262   4.233   0.608 -0.7017  0.5230  0.2032
 9312TIP3    H149351   6.231   4.238   0.518 -1.2565 -0.5077  0.3198
 9312TIP3    H249352   6.202   4.172   0.651  1.0724 -1.0399  0.6024
 9313TIP3   OH249353   0.775   2.236   4.321  0.4744 -0.0211  0.0729
 9313TIP3    H149354   0.697   2.204   4.277 -0.4227  0.8682  0.9524
 9313TIP3    H249355   0.772   2.331   4.311  2.2704 -0.0358 -1.1773
 9314TIP3   OH249356   4.052   2.734   2.846 -0.0001 -1.2123  0.1214
 9314TIP3    H149357   3.996   2.812   2.842  1.9210  0.2537  0.5185
 9314TIP3    H249358   4.113   2.752   2.917  2.0925 -1.9386 -1.3877
 9315TIP3   OH249359   2.670   5.736  15.454  0.1424 -0.4506 -1.1200
 9315TIP3    H149360   2.591   5.782  15.485  0.2761  0.2269 -1.7605
 9315TIP3    H249361   2.742   5.781  15.499  0.1136 -1.9290  0.5132
 9316TIP3   OH249362   1.211   5.879   1.698  0.0495  0.4653 -0.3745
 9316TIP3    H149363   1.293   5.867   1.747  0.5962  2.1148 -0.8044
 9316TIP3    H249364   1.181   5.966   1.725 -2.0608 -0.4636  0.4398
 9317TIP3   OH249365   0.290   2.918  15.929 -0.7904  0.1102 -0.1280
 9317TIP3    H149366   0.295   2.851  15.998 -1.3948  0.4185  0.2210
 9317TIP3    H249367   0.380   2.926  15.898 -0.0946  1.4462  2.0407
 9318TIP3   OH249368   4.082   3.412   2.537  0.1581 -0.2466  0.0364
 9318TIP3    H149369   4.017   3.393   2.604  0.4369 -2.1062 -0.1415
 9318TIP3    H249370   4.144   3.338   2.542  1.0302  0.3521 -1.2343
 9319TIP3   OH249371   2.944   4.829  10.579 -0.4855 -0.4369  0.0730
 9319TIP3    H149372   2.886   4.869  10.514 -0.1158 -1.0034 -0.6152
 9319TIP3    H249373   2.941   4.889  10.653 -0.6799  0.3814 -0.5788
 9320TIP3   OH249374   3.265   4.137   4.942 -0.1348 -0.3658  0.6659
 9320TIP3    H149375   3.301   4.077   4.877 -1.7108  0.6659 -1.2627
 9320TIP3    H249376   3.173   4.111   4.949 -0.0503 -0.3040  2.3712
 9321TIP3   OH249377   4.915   3.885   2.007  0.2469 -0.0205  0.6622
 9321TIP3    H149378   4.930   3.799   1.968  1.1964 -0.1098  1.1861
 9321TIP3    H249379   4.911   3.868   2.101  1.5042  0.6132  0.8622
 9322TIP3   OH249380   6.034   4.654   5.352  0.2320 -0.1080 -0.6282
 9322TIP3    H149381   5.954   4.602   5.347  1.1547 -2.1052  2.4098
 9322TIP3    H249382   6.085   4.627   5.275 -1.1596 -0.2972 -1.5226
 9323TIP3   OH249383   5.858   3.182  14.292 -0.2667  0.1527 -0.0515
 9323TIP3    H149384   5.904   3.217  14.216 -1.8652  2.1375 -0.2024
 9323TIP3    H249385   5.895   3.094  14.305  2.7152  1.1936 -0.7696
 9324TIP3   OH249386   2.003   3.022   4.424  0.2476 -0.0442  0.2571
 9324TIP3    H149387   2.070   2.957   4.401  0.5030  0.1485  0.4412
 9324TIP3    H249388   2.000   3.081   4.349 -0.2705 -0.4969 -0.0806
 9325TIP3   OH249389   4.218   0.818  13.049 -0.7150  0.4858 -0.3771
 9325TIP3    H149390   4.225   0.750  13.117  0.2254  0.0235 -0.9236
 9325TIP3    H249391   4.281   0.884  13.075  0.3282 -0.1268 -1.2766
 9326TIP3   OH249392   4.450   5.999   3.516 -0.1850  0.6898  0.2189
 9326TIP3    H149393   4.483   6.069   3.459 -0.7923  0.7509 -0.0660
 9326TIP3    H249394   4.425   5.929   3.457  1.0539 -0.0547  0.5487
 9327TIP3   OH249395   5.455   0.172   3.930  0.3854 -0.3431 -0.3340
 9327TIP3    H149396   5.514   0.201   3.861 -0.4036 -1.0702 -1.3482
 9327TIP3    H249397   5.389   0.242   3.935  0.9451  0.1498  0.3384
 9328TIP3   OH249398   6.238   5.607   1.254 -0.1414  0.3803 -0.1247
 9328TIP3    H149399   6.285   5.622   1.172  1.4123  0.6314  0.7775
 9328TIP3    H249400   6.249   5.514   1.272 -2.0861 -0.1103 -1.0985
 9329TIP3   OH249401   1.231   1.539   1.922  0.1780 -0.0189 -0.2250
 9329TIP3    H149402   1.214   1.632   1.902 -0.2832 -0.6039 -2.9720
 9329TIP3    H249403   1.147   1.506   1.954  0.5033  0.5849  1.3788
 9330TIP3   OH249404   1.468   4.115   5.715  0.2157  0.2550 -0.4199
 9330TIP3    H149405   1.533   4.053   5.682 -0.1238 -0.2360 -0.1721
 9330TIP3    H249406   1.415   4.064   5.776 -0.0134  0.8126 -0.1503
 9331TIP3   OH249407   1.716   4.966  17.114  0.5947  0.2978 -0.6437
 9331TIP3    H149408   1.684   5.046  17.073 -1.0254  0.6948  1.2776
 9331TIP3    H249409   1.775   4.996  17.184  1.5202 -0.2884 -1.1385
 9332TIP3   OH249410   2.421   5.875   4.956 -0.1283  0.1642 -0.2228
 9332TIP3    H149411   2.478   5.808   4.993  1.6700  2.3827  1.3095
 9332TIP3    H249412   2.390   5.924   5.032 -2.1009  0.5624 -1.2318
 9333TIP3   OH249413   1.520   6.692   5.769 -0.0557  0.3647 -0.0030
 9333TIP3    H149414   1.523   6.629   5.841 -0.1136  0.5684  0.1762
 9333TIP3    H249415   1.573   6.651   5.700  2.2521  1.3476  1.0876
 9334TIP3   OH249416   0.680   4.127  14.549 -0.1344 -0.2141  0.1166
 9334TIP3    H149417   0.742   4.086  14.609  1.3234  2.1642  0.3716
 9334TIP3    H249418   0.690   4.078  14.467  2.5337  0.3906 -0.0146
 9335TIP3   OH249419   4.110   6.541   2.920 -0.1041 -0.2183 -0.8286
 9335TIP3    H149420   4.097   6.493   3.002  1.8474  1.0116  0.2793
 9335TIP3    H249421   4.053   6.618   2.929  0.1548 -0.0526 -0.5974
 9336TIP3   OH249422   3.607   3.837  12.199 -0.0573  0.0317 -0.2140
 9336TIP3    H149423   3.584   3.909  12.258 -2.8581 -1.6874  1.0394
 9336TIP3    H249424   3.633   3.766  12.257 -0.7165 -1.0124 -1.1545
 9337TIP3   OH249425   4.871   1.896  13.132 -0.1384  0.0665  0.3806
 9337TIP3    H149426   4.888   1.986  13.159 -4.1071  1.1872 -0.2276
 9337TIP3    H249427   4.838   1.853  13.211 -1.5704  0.2327 -0.0953
 9338TIP3   OH249428   2.126   5.214   3.826 -0.0774  0.3413  0.1835
 9338TIP3    H149429   2.112   5.244   3.916  1.3309 -0.3576  0.6574
 9338TIP3    H249430   2.040   5.223   3.784 -0.7525  0.6851  1.5958
 9339TIP3   OH249431   4.052   5.483  12.327 -0.0637 -0.4081  0.2735
 9339TIP3    H149432   4.006   5.507  12.246  2.5030  0.9584 -0.8898
 9339TIP3    H249433   4.012   5.400  12.354 -0.1107 -1.6604 -3.1765
 9340TIP3   OH249434   0.698   3.092  14.590  0.5203  0.4222  0.3153
 9340TIP3    H149435   0.675   3.051  14.673  1.5450 -0.8531  0.0032
 9340TIP3    H249436   0.762   3.032  14.551 -0.2059  0.8006 -1.5559
 9341TIP3   OH249437   3.650   1.743   4.092 -0.3637 -0.1974 -0.4400
 9341TIP3    H149438   3.603   1.809   4.041  0.9605  0.4285 -0.9153
 9341TIP3    H249439   3.595   1.665   4.087 -1.6986  0.6915 -0.3370
 9342TIP3   OH249440   0.643   5.744  10.686  0.1141 -0.0770 -0.5232
 9342TIP3    H149441   0.634   5.699  10.602  2.0587  1.1689 -1.4606
 9342TIP3    H249442   0.703   5.816  10.668 -2.2178  2.4817  1.0503
 9343TIP3   OH249443   2.436   2.541   6.274  0.1198 -0.0010  0.6428
 9343TIP3    H149444   2.403   2.630   6.265  1.5557  0.6795  1.7771
 9343TIP3    H249445   2.375   2.499   6.335 -0.1547  0.4327  0.6681
 9344TIP3   OH249446   2.385   4.986   4.339  0.2962 -0.1805  0.6251
 9344TIP3    H149447   2.398   5.073   4.377  0.2877 -0.1237  0.4999
 9344TIP3    H249448   2.371   4.928   4.414 -1.9238  0.2812  0.6520
 9345TIP3   OH249449   3.944   0.699   0.898 -0.1402  0.5158  0.3022
 9345TIP3    H149450   3.865   0.704   0.950  0.4349 -0.0716  1.2582
 9345TIP3    H249451   3.980   0.612   0.917  0.0249  0.2364 -1.1622
 9346TIP3   OH249452   4.753   6.411  15.084 -0.6573 -0.5447  0.2674
 9346TIP3    H149453   4.710   6.489  15.118  0.5462 -0.9904  3.0759
 9346TIP3    H249454   4.687   6.343  15.088 -1.0499 -0.1909 -0.0616
 9347TIP3   OH249455   2.404   0.897  15.804  0.5912 -0.1940 -0.3654
 9347TIP3    H149456   2.456   0.836  15.752  0.5210 -0.4684 -0.1174
 9347TIP3    H249457   2.418   0.869  15.894 -1.2531 -1.3095 -0.3662
 9348TIP3   OH249458   2.881   3.516   0.966 -0.5029  0.3018 -0.3593
 9348TIP3    H149459   2.875   3.577   1.039 -1.4151 -0.0416 -0.1343
 9348TIP3    H249460   2.974   3.513   0.945 -0.0955 -0.2767  1.3801
 9349TIP3   OH249461   3.575   4.791  15.601 -0.3333  0.4033  0.1583
 9349TIP3    H149462   3.523   4.751  15.671  0.2582 -0.2387  0.2387
 9349TIP3    H249463   3.518   4.788  15.524 -0.6601  0.2966  0.4028
 9350TIP3   OH249464   3.285   1.085  12.625 -0.5042 -0.3304  0.0658
 9350TIP3    H149465   3.375   1.112  12.608 -0.8001 -0.3000 -1.5856
 9350TIP3    H249466   3.276   1.001  12.581 -2.1073  1.0250 -2.4488
 9351TIP3   OH249467   5.579   5.686  11.101  0.4166 -0.1827 -0.3114
 9351TIP3    H149468   5.635   5.608  11.098  0.4588 -0.2774  1.5815
 9351TIP3    H249469   5.490   5.651  11.102  0.4262 -0.2038  0.1345
 9352TIP3   OH249470   6.535   6.193  16.291 -0.1165  0.2541 -0.1819
 9352TIP3    H149471   6.580   6.194  16.206  0.8769  0.9034  0.3186
 9352TIP3    H249472   6.489   6.109  16.293  2.6152 -1.3677  0.0177
 9353TIP3   OH249473   2.164   2.207   1.595 -0.0476  0.4300 -0.1658
 9353TIP3    H149474   2.229   2.226   1.662 -1.8686  1.0129  1.5132
 9353TIP3    H249475   2.105   2.143   1.635 -1.0134  0.5470 -1.3223
 9354TIP3   OH249476   6.249   0.800  15.261  0.6662  0.2012  0.3737
 9354TIP3    H149477   6.257   0.782  15.355 -0.4334 -0.5681  0.3365
 9354TIP3    H249478   6.155   0.798  15.244  0.6540  2.8354 -0.2953
 9355TIP3   OH249479   1.191   4.354   1.243  0.0639 -0.6903  0.4743
 9355TIP3    H149480   1.210   4.303   1.165 -0.7572 -1.7577  0.9346
 9355TIP3    H249481   1.216   4.297   1.316 -1.4714 -0.7339  1.0127
 9356TIP3   OH249482   4.752   1.804  15.017  0.1636 -0.3221 -0.8515
 9356TIP3    H149483   4.681   1.844  14.966  0.2120  0.0510 -0.6280
 9356TIP3    H249484   4.795   1.877  15.059 -0.1885 -0.6637  0.1340
 9357TIP3   OH249485   5.448   0.178   2.411 -0.0335 -0.6310  0.1976
 9357TIP3    H149486   5.527   0.206   2.365 -0.3313  1.8010  1.0181
 9357TIP3    H249487   5.466   0.087   2.436  2.6087 -0.0932  0.5601
 9358TIP3   OH249488   3.184   0.421   2.939  0.3625 -0.2518 -0.2820
 9358TIP3    H149489   3.191   0.500   2.992  0.7410  0.5156 -1.4360
 9358TIP3    H249490   3.270   0.379   2.947 -0.0135 -0.8852  0.7851
 9359TIP3   OH249491   2.188   3.264   0.927  0.3066  0.3418 -0.2500
 9359TIP3    H149492   2.263   3.205   0.930 -0.3354 -0.5120 -0.5943
 9359TIP3    H249493   2.164   3.266   0.834 -0.2659  0.3973 -0.0996
 9360TIP3   OH249494   2.156   3.529  15.507 -0.1230 -0.2000 -0.1501
 9360TIP3    H149495   2.075   3.506  15.460  0.7103 -0.6283 -1.4188
 9360TIP3    H249496   2.158   3.471  15.582 -0.8902 -0.3338 -0.2245
 9361TIP3   OH249497   3.105   1.084  15.130 -0.1607 -0.0770 -0.1040
 9361TIP3    H149498   3.084   1.167  15.086  0.2120  0.5467  0.8683
 9361TIP3    H249499   3.070   1.017  15.071 -4.2272  0.8134  0.9726
 9362TIP3   OH249500   4.020   3.316   1.814  0.3675  0.1408 -0.0230
 9362TIP3    H149501   4.048   3.237   1.862  0.2720 -0.1419 -0.4255
 9362TIP3    H249502   4.065   3.310   1.730  0.4167  0.5590 -0.0276
 9363TIP3   OH249503   4.874   2.076  13.415  0.2493  0.2383 -0.3133
 9363TIP3    H149504   4.820   2.026  13.476  0.1345  1.8008  0.9253
 9363TIP3    H249505   4.816   2.143  13.380  0.7160  0.2976 -1.0104
 9364TIP3   OH249506   0.104   1.583  15.133 -0.9221  0.1479  0.4481
 9364TIP3    H149507   0.031   1.521  15.138 -1.0766  0.1447 -1.1411
 9364TIP3    H249508   0.135   1.575  15.043  1.8067 -0.6641  1.3749
 9365TIP3   OH249509   1.605   3.771   6.701 -0.3967 -0.0437  0.8179
 9365TIP3    H149510   1.630   3.682   6.726 -0.9420 -0.3438  0.3139
 9365TIP3    H249511   1.669   3.827   6.745 -0.2678 -0.6610  1.4332
 9366TIP3   OH249512   4.608   2.792   4.273  0.0140  0.2493  0.6367
 9366TIP3    H149513   4.640   2.707   4.302  2.7856  0.5279 -1.2003
 9366TIP3    H249514   4.521   2.774   4.238  0.9129 -2.0738 -0.6142
 9367TIP3   OH249515   2.975   5.254   2.620 -0.1567  0.1144 -0.0512
 9367TIP3    H149516   3.024   5.296   2.691 -0.0885 -1.0596  0.6372
 9367TIP3    H249517   2.929   5.181   2.663 -1.4239  0.3614 -0.9271
 9368TIP3   OH249518   0.569   4.588  11.494  0.1723  0.3662 -0.5782
 9368TIP3    H149519   0.474   4.581  11.506  0.3551 -0.9551  0.3280
 9368TIP3    H249520   0.598   4.645  11.565  0.0811  0.6590 -0.7730
 9369TIP3   OH249521   3.877   0.965  14.459  0.6928  0.8585 -0.3275
 9369TIP3    H149522   3.960   0.993  14.498  0.6004  1.5368 -0.6079
 9369TIP3    H249523   3.811   1.019  14.503  0.6451  2.1162 -1.8627
 9370TIP3   OH249524   6.465   6.293  14.985  0.1280  0.1765  0.0526
 9370TIP3    H149525   6.415   6.331  15.057  2.7437  0.7439  1.7191
 9370TIP3    H249526   6.479   6.366  14.924 -0.0459  0.3187  0.1823
 9371TIP3   OH249527   1.497   4.812   5.871 -0.4737 -0.1489 -0.0626
 9371TIP3    H149528   1.492   4.859   5.788  0.6146 -1.0377 -0.6682
 9371TIP3    H249529   1.414   4.765   5.877 -0.8215  0.4179 -0.3337
 9372TIP3   OH249530   5.904   5.442  12.754 -0.6817  0.2406 -0.3101
 9372TIP3    H149531   5.951   5.361  12.733  0.8958  1.2017 -0.6320
 9372TIP3    H249532   5.968   5.495  12.802 -1.7432  1.2454  0.0396
 9373TIP3   OH249533   1.386   0.816  13.082 -0.4622 -0.0300 -0.2160
 9373TIP3    H149534   1.326   0.879  13.041 -0.5947 -1.0460 -1.6434
 9373TIP3    H249535   1.452   0.798  13.015  0.4210 -0.3183  0.6958
 9374TIP3   OH249536   6.380   0.527  16.614  0.1678  0.4602  0.0594
 9374TIP3    H149537   6.407   0.592  16.680  0.5446  0.6362 -0.2657
 9374TIP3    H249538   6.284   0.533  16.612  0.1865  0.8387  0.2010
 9375TIP3   OH249539   3.647   3.394   0.107  0.2106  0.1739  0.1488
 9375TIP3    H149540   3.585   3.405   0.179  0.0596  3.6253 -0.3754
 9375TIP3    H249541   3.733   3.401   0.147  0.3099 -2.1285  0.4991
 9376TIP3   OH249542   6.482   2.687   0.784 -0.3809 -0.8814  0.2896
 9376TIP3    H149543   6.518   2.638   0.710  0.0718 -1.4883  0.9002
 9376TIP3    H249544   6.546   2.755   0.802  0.5428 -2.0082  1.4250
 9377TIP3   OH249545   6.003   6.594   4.694 -0.4461 -0.0342 -0.1254
 9377TIP3    H149546   6.094   6.608   4.668 -0.6917 -0.0583 -1.0586
 9377TIP3    H249547   6.005   6.518   4.751  0.3567  1.1208  1.4592
 9378TIP3   OH249548   3.288   3.830   2.422  0.1910 -0.2870 -0.6139
 9378TIP3    H149549   3.266   3.806   2.512  0.4545 -0.2136 -0.5277
 9378TIP3    H249550   3.384   3.834   2.421  0.1829  3.2304  0.0597
 9379TIP3   OH249551   0.943   4.535  16.335  0.0811  0.2209 -0.8669
 9379TIP3    H149552   0.882   4.518  16.407  0.4203  0.4006 -0.5274
 9379TIP3    H249553   0.903   4.494  16.259  1.2938 -3.0130  0.0787
 9380TIP3   OH249554   1.454   3.542   4.626 -0.5417  1.0138  0.2478
 9380TIP3    H149555   1.402   3.487   4.684  0.4200 -1.3537 -0.9703
 9380TIP3    H249556   1.396   3.562   4.553 -0.4998  0.4432  0.0539
 9381TIP3   OH249557   3.217   2.870   4.981  0.0138  0.3098  0.3198
 9381TIP3    H149558   3.126   2.897   4.985 -0.0010  0.8264 -2.0207
 9381TIP3    H249559   3.222   2.791   5.035 -1.8956  0.0395  0.1397
 9382TIP3   OH249560   6.454   2.626   2.632 -0.1684 -0.1384 -0.3139
 9382TIP3    H149561   6.450   2.574   2.552 -0.2648  1.5209 -1.4341
 9382TIP3    H249562   6.368   2.668   2.638 -0.4645 -0.8808  1.1424
 9383TIP3   OH249563   0.777   6.281   5.037 -0.5045  0.0944 -0.1718
 9383TIP3    H149564   0.749   6.276   5.128 -0.8239 -0.7160 -0.3010
 9383TIP3    H249565   0.839   6.354   5.034  1.7486 -1.6242  1.2924
 9384TIP3   OH249566   1.732   4.042   2.332 -0.6635 -0.2746  0.0594
 9384TIP3    H149567   1.760   3.975   2.396 -3.3990 -1.3784  0.2173
 9384TIP3    H249568   1.702   4.115   2.385  2.6980  1.4542 -0.1115
 9385TIP3   OH249569   1.244   0.649  13.328  0.0748  0.2964 -0.3159
 9385TIP3    H149570   1.193   0.585  13.377  1.2400 -2.4332 -2.4276
 9385TIP3    H249571   1.180   0.695  13.274 -0.6474  0.0922  0.3537
 9386TIP3   OH249572   0.977   0.259   3.649  0.0945  0.4357  0.4877
 9386TIP3    H149573   1.033   0.313   3.593 -0.2749  0.7266  0.3987
 9386TIP3    H249574   1.028   0.246   3.729 -0.4717  2.2925  1.1855
 9387TIP3   OH249575   5.170   6.560  13.809 -0.4538 -0.3643  0.2661
 9387TIP3    H149576   5.201   6.590  13.894  0.2285 -1.4966  0.4310
 9387TIP3    H249577   5.190   6.633  13.749  0.3865 -0.1364  0.8096
 9388TIP3   OH249578   6.144   1.507   2.593 -0.4741 -0.3037 -0.1005
 9388TIP3    H149579   6.061   1.459   2.594 -0.6458 -0.0460 -0.9863
 9388TIP3    H249580   6.201   1.456   2.651 -0.9048 -1.1162 -0.3597
 9389TIP3   OH249581   3.047   4.690  14.368  0.1253 -0.6443  0.5870
 9389TIP3    H149582   2.964   4.693  14.321 -0.5095 -0.0022  1.7134
 9389TIP3    H249583   3.024   4.711  14.459  1.4606 -0.8562  0.9928
 9390TIP3   OH249584   4.752   5.819   2.550  0.0156  0.2711  0.0959
 9390TIP3    H149585   4.753   5.880   2.624  0.1723  0.3127  0.0602
 9390TIP3    H249586   4.814   5.856   2.488  0.0409  0.1245  0.0332
 9391TIP3   OH249587   3.409   5.627  15.770  0.3446 -0.4069 -0.2544
 9391TIP3    H149588   3.408   5.691  15.699 -1.1475 -0.3101 -0.1741
 9391TIP3    H249589   3.487   5.649  15.822  0.3239  0.7854 -0.7159
 9392TIP3   OH249590   6.217   0.614  10.348  0.1551 -0.0563  0.2537
 9392TIP3    H149591   6.190   0.540  10.293 -0.3924  0.0827  0.3302
 9392TIP3    H249592   6.285   0.578  10.405  0.8570 -0.1601 -0.6228
 9393TIP3   OH249593   4.217   2.941   1.845 -0.1538  0.2053  0.1977
 9393TIP3    H149594   4.268   2.893   1.779 -1.1379  0.0530 -0.4828
 9393TIP3    H249595   4.280   2.961   1.914  0.4364 -1.5520  0.2322
 9394TIP3   OH249596   2.702   5.360  16.910  0.1355 -0.1662  0.3046
 9394TIP3    H149597   2.659   5.427  16.963  2.0657  2.4589 -1.1860
 9394TIP3    H249598   2.764   5.319  16.971  0.0169  0.4913  0.8948
 9395TIP3   OH249599   5.976   6.772  14.815 -0.1213 -0.2107  0.0547
 9395TIP3    H149600   5.912   6.792  14.883  1.2807 -0.8237  1.6302
 9395TIP3    H249601   5.984   6.853  14.765 -2.4112 -0.2600 -0.4657
 9396TIP3   OH249602   0.893   4.533  13.992  0.2043  0.7597 -0.3850
 9396TIP3    H149603   0.942   4.500  14.067 -0.8357 -1.0951 -0.4500
 9396TIP3    H249604   0.890   4.459  13.931 -1.6209  1.1910 -0.8967
 9397TIP3   OH249605   6.353   5.750   5.930 -0.0421  0.2255 -0.5127
 9397TIP3    H149606   6.262   5.780   5.933 -0.0850  0.0432  1.3161
 9397TIP3    H249607   6.349   5.664   5.888 -0.7286  0.1630 -0.3288
 9398TIP3   OH249608   3.775   4.117  17.031  0.2978 -0.1313  0.2057
 9398TIP3    H149609   3.870   4.100  17.031  0.3009 -0.1175 -0.4685
 9398TIP3    H249610   3.769   4.213  17.033  0.3179 -0.0778 -1.3290
 9399TIP3   OH249611   3.475   6.128  15.401  0.3296 -0.0958 -0.3189
 9399TIP3    H149612   3.455   6.064  15.332  0.7538 -0.3417 -0.2196
 9399TIP3    H249613   3.569   6.118  15.416 -0.0465 -1.2620  1.5063
 9400TIP3   OH249614   3.498   5.882   3.754  0.1064 -0.0294 -0.3684
 9400TIP3    H149615   3.559   5.877   3.828  0.1283 -0.2454 -0.4013
 9400TIP3    H249616   3.553   5.906   3.679  0.2758 -0.9829 -0.5526
 9401TIP3   OH249617   3.176   0.982   3.164 -0.0690  0.4091 -0.5422
 9401TIP3    H149618   3.191   0.902   3.214  0.3649  0.3851 -0.7049
 9401TIP3    H249619   3.086   1.008   3.185 -1.0556 -1.3668 -2.2101
 9402TIP3   OH249620   4.583   5.446   5.679 -0.2244 -0.1742 -0.2927
 9402TIP3    H149621   4.606   5.355   5.698  1.4167 -0.0608 -1.4689
 9402TIP3    H249622   4.495   5.441   5.641  0.5998 -1.5699 -2.2178
 9403TIP3   OH249623   2.448   4.627   1.249 -0.2767 -0.0904  0.2402
 9403TIP3    H149624   2.533   4.660   1.276  0.7984 -1.5011 -1.2389
 9403TIP3    H249625   2.463   4.535   1.227 -2.4958 -0.8032  1.3057
 9404TIP3   OH249626   3.755   2.116   1.582 -0.2361 -0.7196 -0.5347
 9404TIP3    H149627   3.685   2.050   1.586 -0.9735  0.1101  2.2394
 9404TIP3    H249628   3.712   2.198   1.608  1.0027  0.6056 -2.3901
 9405TIP3   OH249629   3.164   0.306  15.838  0.0049 -0.5590  0.0535
 9405TIP3    H149630   3.105   0.357  15.783 -0.8227 -0.7943  0.7082
 9405TIP3    H249631   3.136   0.325  15.928  1.5346  0.0622  0.4259
 9406TIP3   OH249632   0.886   5.732  14.369  0.3868 -0.0617 -0.2005
 9406TIP3    H149633   0.977   5.760  14.368  1.0515 -1.8763  1.8024
 9406TIP3    H249634   0.882   5.664  14.301  0.5938 -0.1912 -0.0827
 9407TIP3   OH249635   3.941   1.100   3.462 -0.5039  0.1852  0.2720
 9407TIP3    H149636   3.872   1.108   3.528 -0.3884  1.2943  0.2884
 9407TIP3    H249637   3.904   1.140   3.384 -0.0148  0.4622  0.1768
 9408TIP3   OH249638   3.811   6.602   0.646  0.1662 -0.0036  0.0140
 9408TIP3    H149639   3.850   6.670   0.591 -1.2120  1.4852  0.7991
 9408TIP3    H249640   3.866   6.600   0.724  0.0050  0.4573  0.1375
 9409TIP3   OH249641   1.156   2.110   1.995 -0.1088 -0.1684 -0.5063
 9409TIP3    H149642   1.065   2.122   2.024  0.1956 -0.5968  0.7146
 9409TIP3    H249643   1.201   2.188   2.026 -0.1409  0.2613 -1.5187
 9410TIP3   OH249644   3.845   3.878   0.953 -0.2491  0.0637 -0.5021
 9410TIP3    H149645   3.931   3.836   0.949 -0.7909 -1.0025 -1.3266
 9410TIP3    H249646   3.810   3.852   1.038 -0.4855 -1.0117 -0.9086
 9411TIP3   OH249647   3.614   2.033  15.950 -0.5101  0.1845  0.1330
 9411TIP3    H149648   3.658   2.116  15.970 -0.7604  0.7370 -1.4818
 9411TIP3    H249649   3.682   1.967  15.963  0.4784  0.9105 -1.1014
 9412TIP3   OH249650   4.889   4.529  10.877 -0.2090  0.0552 -0.1031
 9412TIP3    H149651   4.803   4.487  10.864  0.5213 -1.5515 -0.0047
 9412TIP3    H249652   4.882   4.612  10.830 -2.1023  0.3617  0.6234
 9413TIP3   OH249653   3.693   3.272  15.526 -0.2852  0.5198  0.0168
 9413TIP3    H149654   3.641   3.336  15.477 -1.7879 -0.9553 -0.3726
 9413TIP3    H249655   3.652   3.268  15.612 -0.2136  0.0566  0.0318
 9414TIP3   OH249656   4.578   3.273   4.701 -0.1098 -0.0038  0.3153
 9414TIP3    H149657   4.546   3.346   4.647 -1.2359 -0.4262  0.4047
 9414TIP3    H249658   4.654   3.240   4.652  1.1291  1.8937  0.8043
 9415TIP3   OH249659   4.742   6.364   2.031 -0.4904 -0.2779 -0.2032
 9415TIP3    H149660   4.724   6.447   2.075  1.1375 -0.1635  0.3082
 9415TIP3    H249661   4.786   6.389   1.950 -0.1879 -0.6268 -0.1490
 9416TIP3   OH249662   1.540   5.393  12.726 -0.2121 -0.2108 -0.0547
 9416TIP3    H149663   1.609   5.453  12.752 -0.2055 -0.2840  0.0969
 9416TIP3    H249664   1.547   5.388  12.631  0.4954 -0.8182  0.0143
 9417TIP3   OH249665   2.961   4.068  14.520 -0.2173  0.1412 -0.5167
 9417TIP3    H149666   2.890   4.128  14.498 -1.3256 -1.1840 -0.7113
 9417TIP3    H249667   2.957   4.000  14.453  0.6668 -0.4288 -0.0185
 9418TIP3   OH249668   3.307   3.031  15.302 -0.0994 -0.1600  0.2633
 9418TIP3    H149669   3.309   3.067  15.391 -0.5415 -1.1778  0.6953
 9418TIP3    H249670   3.332   3.105  15.246 -0.0200  0.5496  1.2098
 9419TIP3   OH249671   5.140   2.859  17.103 -0.0705  0.5708  0.3813
 9419TIP3    H149672   5.053   2.849  17.062 -1.0562 -0.5655  2.6119
 9419TIP3    H249673   5.172   2.770  17.113 -0.4119  0.6822  3.0872
 9420TIP3   OH249674   5.781   0.682   0.288 -0.0162  0.4119 -0.0912
 9420TIP3    H149675   5.766   0.774   0.269 -1.7573  0.1453 -0.1694
 9420TIP3    H249676   5.765   0.637   0.204  1.1115  0.0562 -0.1289
 9421TIP3   OH249677   0.099   0.631  16.622 -0.0418 -0.3924 -0.7610
 9421TIP3    H149678   0.024   0.639  16.681  0.5790  2.4266 -0.2070
 9421TIP3    H249679   0.160   0.572  16.667 -0.5831 -0.1638  0.2881
 9422TIP3   OH249680   3.970   6.797  16.082 -0.2813 -0.0720  0.0023
 9422TIP3    H149681   4.028   6.759  16.016 -0.9070 -0.6140 -0.2396
 9422TIP3    H249682   4.030   6.832  16.148  0.3345 -0.2332 -0.4561
 9423TIP3   OH249683   4.852   4.313   4.576  0.1689 -0.0300 -0.5457
 9423TIP3    H149684   4.874   4.305   4.668  0.3969  0.3149 -0.5704
 9423TIP3    H249685   4.875   4.403   4.553  0.1221 -0.1169 -0.9395
 9424TIP3   OH249686   0.039   5.692  14.577  0.6452  0.1474  0.4932
 9424TIP3    H149687   0.106   5.744  14.535 -0.4162  1.9186  0.9027
 9424TIP3    H249688  -0.041   5.711  14.528  0.0344 -0.2918  1.2828
 9425TIP3   OH249689   5.215   4.377   2.991  0.1304 -0.0888  0.2289
 9425TIP3    H149690   5.133   4.421   3.014  0.5360  1.2544 -0.7467
 9425TIP3    H249691   5.281   4.422   3.042  0.5076  0.1854 -0.4924
 9426TIP3   OH249692   4.174   1.415  15.789 -0.4064  0.2733 -0.2663
 9426TIP3    H149693   4.178   1.468  15.709  0.2742  1.2349  0.3680
 9426TIP3    H249694   4.187   1.479  15.860  3.0036 -0.9882  0.4330
 9427TIP3   OH249695   1.209   3.566  10.990  0.5397  0.1240  0.1094
 9427TIP3    H149696   1.226   3.558  11.084 -0.1221  0.6505  0.2863
 9427TIP3    H249697   1.154   3.490  10.969 -0.5431  0.7785  0.4711
 9428TIP3   OH249698   2.887   5.052  12.423 -0.9434  0.1180 -0.1344
 9428TIP3    H149699   2.969   5.045  12.472 -1.2828  2.7411  0.9809
 9428TIP3    H249700   2.915   5.065  12.333  0.0289  2.6791  0.4448
 9429TIP3   OH249701   6.572   5.859  13.173  0.2969  0.6875  0.2690
 9429TIP3    H149702   6.655   5.836  13.215 -0.7567 -1.8746  1.1731
 9429TIP3    H249703   6.594   5.932  13.115  3.1721  0.0995  0.4566
 9430TIP3   OH249704   0.962   3.010   2.554  0.6020  0.5253 -0.1344
 9430TIP3    H149705   0.998   2.928   2.521  2.7035  0.6807  1.5014
 9430TIP3    H249706   1.023   3.036   2.624 -0.1493  3.3154 -0.3861
 9431TIP3   OH249707   0.433   5.451   3.887  0.3827  0.4336  0.3690
 9431TIP3    H149708   0.357   5.495   3.925 -0.0078  0.0082  0.0947
 9431TIP3    H249709   0.444   5.492   3.801  0.6104  0.6539  0.4996
 9432TIP3   OH249710   1.925   4.668  13.552 -0.0042  0.0177 -0.1719
 9432TIP3    H149711   1.849   4.610  13.546  1.4425 -1.9936 -0.0415
 9432TIP3    H249712   1.950   4.684  13.461  1.0481 -1.6510 -0.2158
 9433TIP3   OH249713   1.998   3.032   2.167  0.3544  0.3326 -0.0109
 9433TIP3    H149714   1.971   3.091   2.238  0.8444  0.2130  0.2785
 9433TIP3    H249715   2.078   3.071   2.133 -0.3009  0.8243 -1.0383
 9434TIP3   OH249716   1.118   1.242  15.071 -0.1345 -0.1278  0.4629
 9434TIP3    H149717   1.149   1.332  15.056 -0.5475  0.1003  0.9455
 9434TIP3    H249718   1.174   1.188  15.014 -0.5958  0.5335 -0.6578
 9435TIP3   OH249719   6.194   0.353   0.547  0.2698 -0.2780 -0.2706
 9435TIP3    H149720   6.216   0.417   0.479 -3.9211  0.3057 -1.3735
 9435TIP3    H249721   6.193   0.404   0.628 -1.1268  0.7004 -0.8527
 9436TIP3   OH249722   4.522   3.684   2.751  0.1195 -0.5941  0.0765
 9436TIP3    H149723   4.534   3.772   2.714 -0.1786 -0.3960  0.4320
 9436TIP3    H249724   4.438   3.655   2.716  0.2333 -0.7473 -0.0647
 9437TIP3   OH249725   2.014   1.748  12.022  0.2771  0.1975 -0.1666
 9437TIP3    H149726   2.099   1.790  12.034 -0.1922  1.3603 -0.8272
 9437TIP3    H249727   1.973   1.752  12.108 -0.1040  1.8744 -0.4037
 9438TIP3   OH249728   3.797   0.270  14.126 -0.3066  0.1553  0.6256
 9438TIP3    H149729   3.783   0.364  14.141  2.5694  0.6905  0.4517
 9438TIP3    H249730   3.840   0.265  14.041 -1.1361 -1.4310  0.2554
 9439TIP3   OH249731   4.603   4.335  13.481 -0.5520 -0.4225  0.3649
 9439TIP3    H149732   4.554   4.416  13.464 -1.8394 -0.5458  3.0364
 9439TIP3    H249733   4.693   4.356  13.453 -0.6482  2.2607  1.6980
 9440TIP3   OH249734   3.023   2.193  16.481 -0.6774 -0.1493 -0.3152
 9440TIP3    H149735   3.086   2.265  16.471 -1.0491  0.2276  0.0173
 9440TIP3    H249736   2.942   2.236  16.509 -1.3498 -0.5329 -1.6091
 9441TIP3   OH249737   4.875   3.577   4.794 -0.1785 -0.0633 -0.3050
 9441TIP3    H149738   4.787   3.606   4.821 -0.6795 -1.7481  0.0121
 9441TIP3    H249739   4.934   3.640   4.834 -1.0888 -0.6243  2.1057
 9442TIP3   OH249740   4.151   6.443  16.713  0.3225 -0.1730 -0.0405
 9442TIP3    H149741   4.130   6.456  16.805  1.7652 -0.4647  0.3556
 9442TIP3    H249742   4.071   6.408  16.674 -0.2683 -0.1450  1.1242
 9443TIP3   OH249743   1.046   1.466  10.700 -0.0586 -0.0833  0.4437
 9443TIP3    H149744   1.125   1.450  10.649 -0.4333  0.5935 -0.3651
 9443TIP3    H249745   0.989   1.391  10.681 -0.3292  0.3287 -0.4090
 9444TIP3   OH249746   4.228   3.200   5.081 -0.2086 -0.5394 -0.1247
 9444TIP3    H149747   4.256   3.142   5.010  3.2508 -1.4942  1.7916
 9444TIP3    H249748   4.281   3.279   5.069 -2.1003  0.7350 -0.4858
 9445TIP3   OH249749   1.633   5.240  11.218 -0.1013 -0.5876 -0.1214
 9445TIP3    H149750   1.596   5.199  11.140  1.6412 -2.6268  0.0277
 9445TIP3    H249751   1.705   5.294  11.184 -0.0389 -0.6116 -0.0271
 9446TIP3   OH249752   2.817   3.926  10.878 -0.2421  0.0464 -0.8070
 9446TIP3    H149753   2.873   3.872  10.934 -1.5752  0.2839  0.8339
 9446TIP3    H249754   2.738   3.874  10.866  0.3298 -0.3527 -3.2395
 9447TIP3   OH249755   4.451   4.977  14.155 -0.3230 -0.3876  0.2585
 9447TIP3    H149756   4.537   5.018  14.165  1.6050 -3.7982 -0.5801
 9447TIP3    H249757   4.456   4.931  14.071 -2.4980 -1.7529  0.7947
 9448TIP3   OH249758   1.497   1.922  13.113 -0.3316  0.0834  0.8440
 9448TIP3    H149759   1.458   1.968  13.038  0.0230 -0.7769  0.1243
 9448TIP3    H249760   1.434   1.854  13.135  0.9299 -1.6225 -0.6252
 9449TIP3   OH249761   0.810   5.998   3.842  0.4191  0.2552  0.1201
 9449TIP3    H149762   0.770   5.911   3.847  0.2330  0.3313 -0.0032
 9449TIP3    H249763   0.736   6.057   3.824  0.8318  0.1738 -2.0970
 9450TIP3   OH249764   4.677   0.239   2.222 -0.4764  0.3418  0.3051
 9450TIP3    H149765   4.662   0.202   2.310 -0.5541 -0.8957 -0.2019
 9450TIP3    H249766   4.699   0.163   2.169  1.4266  1.3045 -0.3562
 9451TIP3   OH249767   0.796   6.015   4.447  0.2936  0.3262  0.7786
 9451TIP3    H149768   0.728   6.013   4.380  0.5095 -1.2292  0.5813
 9451TIP3    H249769   0.836   6.101   4.438  0.2246  0.1957 -0.9846
 9452TIP3   OH249770   6.675   6.308   5.819 -0.3535  0.3037  0.6287
 9452TIP3    H149771   6.718   6.302   5.904 -0.4619  0.2511  0.6803
 9452TIP3    H249772   6.647   6.218   5.801  0.6797  0.0890  0.0076
 9453TIP3   OH249773   3.537   1.625   1.359  0.5183  0.5485  0.0715
 9453TIP3    H149774   3.490   1.549   1.394  0.9167 -1.4028 -3.2290
 9453TIP3    H249775   3.468   1.687   1.336 -0.2588 -0.7859 -1.4079
 9454TIP3   OH249776   1.571   2.991   1.518 -0.9858  0.1146 -0.4749
 9454TIP3    H149777   1.572   2.904   1.558 -0.6833  0.3588  0.0590
 9454TIP3    H249778   1.497   3.035   1.560 -0.2756  0.5918  0.3142
 9455TIP3   OH249779   0.649   2.347  13.726 -0.0763  0.3565  0.1145
 9455TIP3    H149780   0.696   2.394  13.795 -2.2128  1.9914  0.5574
 9455TIP3    H249781   0.583   2.410  13.695 -1.4418 -1.5382 -1.0047
 9456TIP3   OH249782   5.128   4.944  10.564  0.1709  0.4286 -0.5454
 9456TIP3    H149783   5.193   5.015  10.566 -0.7565  1.4046 -2.2523
 9456TIP3    H249784   5.049   4.986  10.529 -0.3806 -1.4470 -1.6653
 9457TIP3   OH249785   3.185   2.184  11.220 -0.4252 -0.6949 -0.2306
 9457TIP3    H149786   3.270   2.174  11.176 -1.2290 -0.0843 -2.0377
 9457TIP3    H249787   3.207   2.199  11.312  1.5880  2.1449 -1.0320
 9458TIP3   OH249788   4.982   0.219  11.492  0.2751 -0.3963  0.2189
 9458TIP3    H149789   4.957   0.289  11.552 -1.4440  0.2220 -1.1482
 9458TIP3    H249790   4.961   0.139  11.539  0.4142  0.0246  1.0314
 9459TIP3   OH249791   0.875   5.994   1.613  0.4050 -0.4460 -0.4615
 9459TIP3    H149792   0.789   6.012   1.652  0.9239  0.5512  0.2523
 9459TIP3    H249793   0.855   5.939   1.537 -0.7552 -1.2693  0.3965
 9460TIP3   OH249794   4.391   4.346  12.109  0.7699 -0.2123  0.3826
 9460TIP3    H149795   4.323   4.309  12.052  0.5137  0.1966  0.4128
 9460TIP3    H249796   4.408   4.433  12.073  3.0466 -1.1903 -1.0947
 9461TIP3   OH249797   5.151   5.659   5.210  0.0466 -0.0812  0.3186
 9461TIP3    H149798   5.239   5.623   5.195 -0.8854 -2.2906 -0.2505
 9461TIP3    H249799   5.161   5.714   5.288  2.1383  0.6045 -0.3579
 9462TIP3   OH249800   3.681   6.267  16.162  0.6291  0.0008 -0.1540
 9462TIP3    H149801   3.763   6.312  16.180  0.4928  0.5035 -0.7798
 9462TIP3    H249802   3.696   6.177  16.192  0.8948  0.4545  1.1213
 9463TIP3   OH249803   3.045   6.001  12.430 -0.3328  0.0804  0.1103
 9463TIP3    H149804   2.969   5.945  12.447 -0.0784 -0.6407 -1.0120
 9463TIP3    H249805   3.104   5.983  12.503 -1.0128  0.2659  0.7237
 9464TIP3   OH249806   4.128   4.538  16.000  0.2989 -0.3369 -0.2821
 9464TIP3    H149807   4.098   4.480  16.070  0.1192 -1.3159 -1.1391
 9464TIP3    H249808   4.222   4.547  16.016  0.0689  0.3593  0.7210
 9465TIP3   OH249809   5.039   2.577   1.028  0.0028  0.3024 -0.2806
 9465TIP3    H149810   5.000   2.661   1.052 -2.9702 -1.3263  1.1008
 9465TIP3    H249811   5.035   2.524   1.107  1.2166 -1.3849 -1.2632
 9466TIP3   OH249812   4.304   3.075  12.347 -0.1124 -0.5531  0.4753
 9466TIP3    H149813   4.235   3.019  12.382 -0.4858 -0.7106 -0.4836
 9466TIP3    H249814   4.384   3.044  12.390 -0.0455 -2.8754 -1.1535
 9467TIP3   OH249815   1.325   5.148   1.739  0.3064  0.0976 -0.3446
 9467TIP3    H149816   1.330   5.075   1.801 -2.0557  0.5362  0.4750
 9467TIP3    H249817   1.339   5.109   1.653  0.4423 -1.0732  0.2000
 9468TIP3   OH249818   2.338   6.446   2.566  0.3111  0.1021 -0.4452
 9468TIP3    H149819   2.386   6.486   2.493 -1.4751 -0.2720 -1.8690
 9468TIP3    H249820   2.328   6.354   2.542  0.1118 -0.1397  0.5074
 9469TIP3   OH249821   2.017   0.852   3.900  0.2605  0.0385 -0.2682
 9469TIP3    H149822   1.923   0.863   3.885  0.6225 -0.1393 -3.1974
 9469TIP3    H249823   2.028   0.759   3.920 -0.0642 -0.2516 -1.3774
 9470TIP3   OH249824   4.410   5.794   5.064  0.4226  0.7560 -0.1962
 9470TIP3    H149825   4.340   5.777   5.127  0.6615 -2.5412 -0.6588
 9470TIP3    H249826   4.489   5.759   5.104  0.3542 -2.7017 -2.6819
 9471TIP3   OH249827   2.941   4.151   6.124 -0.8185  0.5337  0.0179
 9471TIP3    H149828   3.010   4.099   6.165  1.3116  1.8590 -1.6910
 9471TIP3    H249829   2.940   4.233   6.174 -0.6717  0.7676 -0.3549
 9472TIP3   OH249830   1.245   5.763  13.016  0.8124  0.1978 -0.0675
 9472TIP3    H149831   1.283   5.849  13.032  1.7732 -0.3760  0.8677
 9472TIP3    H249832   1.261   5.746  12.923  0.5009  1.0771 -0.2836
 9473TIP3   OH249833   4.835   5.404  10.755 -0.9926 -0.5320  0.1581
 9473TIP3    H149834   4.903   5.363  10.701  0.8518 -0.8737  2.5491
 9473TIP3    H249835   4.791   5.465  10.696 -0.6871 -2.5172 -2.2936
 9474TIP3   OH249836   0.640   1.864   1.292 -0.0591  0.2021 -0.0877
 9474TIP3    H149837   0.586   1.787   1.310  1.0130 -0.5335  0.1471
 9474TIP3    H249838   0.604   1.933   1.347 -2.5331  0.5923 -2.0188
 9475TIP3   OH249839   3.295   1.236   3.074 -0.1346 -0.2886 -0.5709
 9475TIP3    H149840   3.326   1.167   3.015 -1.0720  0.4135 -1.9433
 9475TIP3    H249841   3.333   1.214   3.159 -0.1695 -2.3071 -1.0379
 9476TIP3   OH249842   0.892   0.891  10.698  0.4996 -1.2078 -0.4475
 9476TIP3    H149843   0.800   0.874  10.676 -0.1314 -1.1108  1.8320
 9476TIP3    H249844   0.940   0.819  10.658 -0.8695 -2.5769  0.2592
 9477TIP3   OH249845   4.926   4.282  16.338  0.0870 -0.2581  0.4470
 9477TIP3    H149846   4.931   4.323  16.252 -1.1491  0.8884  0.8874
 9477TIP3    H249847   5.017   4.264  16.362  0.6575  1.7416 -0.0182
 9478TIP3   OH249848   1.235   2.502   0.444 -0.3442  0.0341  0.7326
 9478TIP3    H149849   1.174   2.428   0.440  0.6172 -0.7928  0.9662
 9478TIP3    H249850   1.271   2.508   0.355 -0.2908  0.0984  0.7588
 9479TIP3   OH249851   4.574   3.447   3.061  0.1702 -0.0695 -0.3422
 9479TIP3    H149852   4.644   3.467   3.123  2.0089 -0.4799 -2.1320
 9479TIP3    H249853   4.521   3.381   3.104  0.9309  0.1987  1.0658
 9480TIP3   OH249854   1.443   2.493   3.102 -0.0936  0.2740  0.2322
 9480TIP3    H149855   1.366   2.482   3.158  1.9184  1.3499  3.4770
 9480TIP3    H249856   1.511   2.440   3.144  1.9218  2.2717 -0.3102
 9481TIP3   OH249857   6.501   3.412   5.184  0.2175  0.4838 -0.5358
 9481TIP3    H149858   6.558   3.472   5.136  1.8899  0.0267  0.7999
 9481TIP3    H249859   6.414   3.427   5.146  0.7666  2.9430 -1.0005
 9482TIP3   OH249860   6.540   3.923  14.759 -0.1057  0.2060  0.3187
 9482TIP3    H149861   6.633   3.926  14.737 -0.3825  1.2131 -0.8681
 9482TIP3    H249862   6.506   4.008  14.730 -1.6492 -0.6428 -0.5034
 9483TIP3   OH249863   6.655   6.290   3.688 -0.2424  0.7062 -0.5613
 9483TIP3    H149864   6.606   6.242   3.622 -0.9207  1.3873 -0.5720
 9483TIP3    H249865   6.619   6.259   3.771 -0.5658  1.0739 -0.5635
 9484TIP3   OH249866   6.524   6.021  13.424 -0.3864 -0.4225  0.0082
 9484TIP3    H149867   6.498   6.002  13.334  0.5117 -2.2950  0.0972
 9484TIP3    H249868   6.446   6.061  13.463 -1.0886 -0.3897 -1.3381
 9485TIP3   OH249869   3.586   3.478  15.063 -0.7160  0.4401 -0.4552
 9485TIP3    H149870   3.572   3.497  14.970 -0.3636  0.4158 -0.5162
 9485TIP3    H249871   3.589   3.564  15.105 -1.3773  0.4316 -0.3910
 9486TIP3   OH249872   0.304   4.843   5.683 -0.4022 -0.0226  0.2330
 9486TIP3    H149873   0.316   4.760   5.729  2.6860  0.1565 -0.0445
 9486TIP3    H249874   0.308   4.910   5.751  0.6603  0.0378  0.1398
 9487TIP3   OH249875   1.534   5.484  14.261 -0.3465 -0.6929 -0.2923
 9487TIP3    H149876   1.565   5.450  14.345  0.9876  2.6391  0.7356
 9487TIP3    H249877   1.479   5.560  14.284 -1.7829 -1.0097 -2.4061
 9488TIP3   OH249878   3.867   5.639   3.815 -0.1353  0.5240  0.0428
 9488TIP3    H149879   3.905   5.632   3.903  0.0205  0.8224 -0.0022
 9488TIP3    H249880   3.918   5.577   3.763 -0.5178  0.0175  0.2606
 9489TIP3   OH249881   1.610   2.855  11.849  0.2343  0.3711 -0.7220
 9489TIP3    H149882   1.657   2.860  11.932 -1.3988  2.4032  0.1539
 9489TIP3    H249883   1.653   2.920  11.793 -0.6156  1.2579 -0.3729
 9490TIP3   OH249884   3.177   6.511   2.575 -0.4640 -0.6690 -0.1351
 9490TIP3    H149885   3.236   6.437   2.591 -0.7128 -0.5413  1.6152
 9490TIP3    H249886   3.225   6.587   2.608 -0.8268 -0.2753 -0.5024
 9491TIP3   OH249887   4.800   6.761   6.344 -0.0567 -0.5245  0.6818
 9491TIP3    H149888   4.705   6.745   6.352 -0.0357 -1.0320 -0.0527
 9491TIP3    H249889   4.840   6.677   6.366  0.1666 -0.6977 -0.3476
 9492TIP3   OH249890   2.390   3.509  17.070  0.0239 -0.4480  0.1210
 9492TIP3    H149891   2.335   3.587  17.072 -1.7887 -1.6143 -1.6252
 9492TIP3    H249892   2.473   3.539  17.032 -0.6952  0.5975 -0.6581
 9493TIP3   OH249893   2.621   3.254  16.291 -0.6490 -0.1489 -0.1427
 9493TIP3    H149894   2.709   3.291  16.285 -0.8124  0.0944 -1.3250
 9493TIP3    H249895   2.632   3.171  16.336 -0.3754  1.6263  3.4617
 9494TIP3   OH249896   2.355   0.651  16.739 -0.2591 -0.2899 -0.1908
 9494TIP3    H149897   2.362   0.591  16.814 -1.2367 -2.5304 -1.7934
 9494TIP3    H249898   2.443   0.654  16.703 -0.1013 -0.3834  0.1825
 9495TIP3   OH249899   1.498   1.970  11.610  0.3429 -0.5267  0.3868
 9495TIP3    H149900   1.564   2.029  11.571  2.1345 -2.8356 -0.3080
 9495TIP3    H249901   1.414   2.009  11.585  1.3030  3.0315  2.0463
 9496TIP3   OH249902   0.990   4.929   1.018 -0.2004  0.1252  0.4197
 9496TIP3    H149903   1.024   4.995   0.957  0.7703 -0.2389  0.5481
 9496TIP3    H249904   1.002   4.968   1.105  1.4577 -0.6714  0.5711
 9497TIP3   OH249905   6.243   6.732  12.430 -0.0641 -0.1550  0.1208
 9497TIP3    H149906   6.283   6.768  12.509  0.1929 -0.1314 -0.0186
 9497TIP3    H249907   6.191   6.658  12.460  0.7061 -0.6678  0.2114
 9498TIP3   OH249908   1.680   3.408   5.226  0.2063  0.0950  0.2193
 9498TIP3    H149909   1.645   3.320   5.210  0.4222 -0.2017  1.2633
 9498TIP3    H249910   1.634   3.437   5.305 -2.5681  2.4284 -1.9998
 9499TIP3   OH249911   3.107   5.491  11.834 -0.2890  0.4588 -0.2021
 9499TIP3    H149912   3.161   5.427  11.788  0.0011  1.6181 -1.5355
 9499TIP3    H249913   3.169   5.543  11.885 -0.1243  1.5336 -1.4247
 9500TIP3   OH249914   4.056   1.268  11.507  0.3686 -0.4612  0.1051
 9500TIP3    H149915   4.109   1.214  11.567  0.8205 -1.3372 -1.0425
 9500TIP3    H249916   3.984   1.210  11.482 -0.6291  0.4081  0.9291
 9501TIP3   OH249917   0.104   6.780   2.196  0.2525  0.1795  0.0784
 9501TIP3    H149918   0.159   6.847   2.156 -0.8238  1.4835  0.7021
 9501TIP3    H249919   0.015   6.803   2.170 -0.0919 -1.5733 -0.4758
 9502TIP3   OH249920   4.357   6.709   4.598 -0.0303 -0.1707 -0.3299
 9502TIP3    H149921   4.379   6.721   4.691 -2.0007 -1.8072  0.4359
 9502TIP3    H249922   4.292   6.777   4.581  0.1298 -0.0429 -0.4266
 9503TIP3   OH249923   4.114   5.875  13.928 -0.3221  0.8185 -0.7439
 9503TIP3    H149924   4.157   5.789  13.926 -0.6278  0.3694  3.6159
 9503TIP3    H249925   4.031   5.860  13.882  0.4565 -0.6601 -1.7623
 9504TIP3   OH249926   6.052   1.495   3.309 -0.1214 -0.6596  0.0281
 9504TIP3    H149927   5.996   1.571   3.324 -0.6492 -0.8128 -1.0866
 9504TIP3    H249928   6.027   1.433   3.378 -0.1817 -0.1041  0.5126
 9505TIP3   OH249929   4.538   4.880  15.985 -0.1829  0.6378 -0.5279
 9505TIP3    H149930   4.452   4.843  16.005  0.2492  0.4098  1.0864
 9505TIP3    H249931   4.528   4.920  15.899 -1.9407  0.7299 -0.3117
 9506TIP3   OH249932   5.420   4.809  15.002 -0.4596  0.9345 -0.8352
 9506TIP3    H149933   5.392   4.807  14.910 -1.0073  0.4361 -0.6635
 9506TIP3    H249934   5.509   4.844  14.999  0.7863 -1.9611 -1.9015
 9507TIP3   OH249935   3.154   2.470  11.739 -0.2624 -0.0988  0.0615
 9507TIP3    H149936   3.227   2.409  11.730  0.3175  0.5356  0.3478
 9507TIP3    H249937   3.188   2.553  11.705 -0.9008  0.1683  0.0614
 9508TIP3   OH249938   2.229   5.676  15.720 -0.2471 -0.1473  0.1995
 9508TIP3    H149939   2.223   5.596  15.668 -1.0076  0.0431 -0.0075
 9508TIP3    H249940   2.177   5.741  15.673 -0.6899  0.1149  1.0117
 9509TIP3   OH249941   4.080   6.220  14.242  0.3555 -0.1558 -0.3865
 9509TIP3    H149942   4.174   6.235  14.245  0.2552  0.3664  0.4061
 9509TIP3    H249943   4.068   6.131  14.273  0.3106  1.0916  3.6814
 9510TIP3   OH249944   3.692   3.239  11.114  0.3060 -0.2476 -0.2233
 9510TIP3    H149945   3.670   3.326  11.082  0.8679  0.6406  1.6889
 9510TIP3    H249946   3.787   3.240  11.127  0.1060 -0.5115  1.5049
 9511TIP3   OH249947   1.334   0.149   2.987  0.3821 -0.3838  0.1114
 9511TIP3    H149948   1.239   0.139   2.993  0.4883 -1.3734  0.2406
 9511TIP3    H249949   1.365   0.069   2.945  1.0371  0.5352 -1.2157
 9512TIP3   OH249950   1.191   2.943  16.217 -0.4245 -0.3053 -0.3328
 9512TIP3    H149951   1.235   2.882  16.158  0.8407  0.8851 -0.6819
 9512TIP3    H249952   1.240   3.025  16.208 -2.8971  1.1999 -0.9080
 9513TIP3   OH249953   2.384   4.532   0.492 -0.5282  0.1054  0.2501
 9513TIP3    H149954   2.372   4.624   0.470  2.1505  1.0057  2.0635
 9513TIP3    H249955   2.318   4.514   0.559 -0.3060  1.0409  0.7211
 9514TIP3   OH249956   0.287   0.775  14.771  0.0434 -0.5154 -0.3340
 9514TIP3    H149957   0.307   0.856  14.819  1.9529 -2.0538  1.6568
 9514TIP3    H249958   0.321   0.705  14.826 -1.6516 -2.7387 -1.9278
 9515TIP3   OH249959   1.544   3.326  13.579 -0.1601  0.1335  0.9592
 9515TIP3    H149960   1.595   3.282  13.511 -1.0193 -0.1309  0.4636
 9515TIP3    H249961   1.500   3.398  13.534 -0.8255 -0.1128  1.1883
 9516TIP3   OH249962   0.140   3.886  12.637 -0.0178  0.4424  0.0101
 9516TIP3    H149963   0.176   3.858  12.721  0.4100  1.0612  0.0355
 9516TIP3    H249964   0.064   3.829  12.624  0.8036 -0.7174  0.0806
 9517TIP3   OH249965   6.571   3.986   2.965 -0.0855 -0.7474 -0.2792
 9517TIP3    H149966   6.638   4.043   2.925  0.5803  0.1450  1.9514
 9517TIP3    H249967   6.614   3.901   2.971  0.9649 -0.1454  1.2772
 9518TIP3   OH249968   6.491   5.004  12.291  0.1732 -0.0831 -0.0514
 9518TIP3    H149969   6.431   5.074  12.317  0.4432  0.6560 -1.3354
 9518TIP3    H249970   6.504   4.953  12.371 -0.7645  0.7824  0.6836
 9519TIP3   OH249971   5.009   0.785   0.887 -0.0677 -0.0722  0.7639
 9519TIP3    H149972   4.948   0.859   0.883 -1.3276 -1.1456 -1.9106
 9519TIP3    H249973   5.041   0.776   0.797 -0.0639 -2.8643  0.9786
 9520TIP3   OH249974   2.176   0.339  11.379 -0.7577  0.2269 -0.4889
 9520TIP3    H149975   2.181   0.355  11.285 -1.1929  0.2136 -0.5192
 9520TIP3    H249976   2.214   0.253  11.391 -1.3794 -0.0940 -0.7565
 9521TIP3   OH249977   5.704   5.302   5.284  0.2879 -0.5336 -0.5874
 9521TIP3    H149978   5.738   5.325   5.198 -1.6169  0.0222 -1.2438
 9521TIP3    H249979   5.739   5.370   5.343  1.7172 -1.0023 -0.8496
 9522TIP3   OH249980   6.353   3.402   1.628 -0.2190 -0.4318 -0.4042
 9522TIP3    H149981   6.431   3.357   1.594 -0.3593 -0.2759 -0.9355
 9522TIP3    H249982   6.295   3.410   1.552  0.4425  2.0480 -0.7194
 9523TIP3   OH249983   5.847   2.927  12.237  0.1249 -0.1086 -0.2043
 9523TIP3    H149984   5.844   2.960  12.327  2.8210  1.5230 -0.5969
 9523TIP3    H249985   5.910   2.984  12.193 -0.6883 -1.2060 -3.0134
 9524TIP3   OH249986   6.581   1.420   4.697 -0.3311  0.0784  0.3211
 9524TIP3    H149987   6.593   1.366   4.619  0.4488  1.2292 -0.3932
 9524TIP3    H249988   6.669   1.435   4.731 -0.4411  1.5521  0.0228
 9525TIP3   OH249989   3.931   6.510   5.632  0.1870  0.8577  0.2312
 9525TIP3    H149990   3.877   6.469   5.565  0.1418  2.5864 -0.8523
 9525TIP3    H249991   4.021   6.492   5.603  0.1850  0.5137  0.4262
 9526TIP3   OH249992   4.301   3.542   4.795  0.7365 -0.0356  0.9569
 9526TIP3    H149993   4.295   3.454   4.759 -0.2233  0.2228  0.4589
 9526TIP3    H249994   4.297   3.600   4.719  1.4002  0.4453  1.2752
 9527TIP3   OH249995   1.474   3.832  13.943  0.2574 -0.0006 -0.0353
 9527TIP3    H149996   1.391   3.879  13.953  0.6989  0.6127  0.8634
 9527TIP3    H249997   1.477   3.773  14.018  0.3940 -0.4025 -0.3565
 9528TIP3   OH249998   5.288   4.655  10.207  0.0563 -0.3408 -0.3999
 9528TIP3    H149999   5.276   4.738  10.161  1.9064 -0.2405 -0.8020
 9528TIP3    H250000   5.365   4.669  10.263 -1.1070 -1.0182  1.4400
 9529TIP3   OH250001   6.424   4.410  14.689 -0.1636 -0.5976  0.2554
 9529TIP3    H150002   6.455   4.393  14.600 -0.7187  2.8982 -0.7755
 9529TIP3    H250003   6.483   4.360  14.745  1.0871 -1.8224 -1.9976
 9530TIP3   OH250004   5.630   1.550   0.622 -0.0369 -0.3865  0.0165
 9530TIP3    H150005   5.699   1.576   0.684  0.6682 -2.2982  0.1049
 9530TIP3    H250006   5.663   1.576   0.537  1.3766 -2.2067 -0.0686
 9531TIP3   OH250007   5.378   0.164  13.010 -0.2725 -0.1209 -0.6224
 9531TIP3    H150008   5.401   0.255  12.996 -0.2389  0.0145  0.2197
 9531TIP3    H250009   5.284   0.165  13.023 -0.0495  0.0788  1.2748
 9532TIP3   OH250010   4.791   0.122   0.810 -0.0541 -0.1902  1.1276
 9532TIP3    H150011   4.820   0.092   0.724 -0.4085  1.4620  0.3955
 9532TIP3    H250012   4.794   0.044   0.865 -0.5212 -1.4485 -0.5551
 9533TIP3   OH250013   1.472   6.342  12.368 -0.0685 -0.5844 -0.6513
 9533TIP3    H150014   1.420   6.422  12.365  0.2900 -0.3261 -0.0388
 9533TIP3    H250015   1.520   6.342  12.284 -1.6029 -1.2192 -1.5617
 9534TIP3   OH250016   0.715   6.070   0.163  0.6190 -0.5268 -0.2048
 9534TIP3    H150017   0.670   5.986   0.158 -0.5408  0.0975 -0.4376
 9534TIP3    H250018   0.802   6.048   0.197 -0.4702 -1.5294  2.1491
 9535TIP3   OH250019   3.689   1.376   5.617  0.9820  0.5487  0.5782
 9535TIP3    H150020   3.738   1.442   5.567  0.1600  0.8273  0.1181
 9535TIP3    H250021   3.605   1.418   5.635  0.4070 -0.4142  0.1817
 9536TIP3   OH250022   6.585   6.355   0.627 -0.0792 -0.0388 -0.0278
 9536TIP3    H150023   6.563   6.386   0.539  0.4282 -1.4694 -0.6905
 9536TIP3    H250024   6.585   6.434   0.681 -0.7497  0.8239 -1.2333
 9537TIP3   OH250025   2.982   2.525   6.074  0.2142 -0.1803 -0.4259
 9537TIP3    H150026   2.987   2.448   6.017  0.2922  0.6201 -1.5383
 9537TIP3    H250027   2.958   2.490   6.160  0.2586 -1.4410 -0.9063
 9538TIP3   OH250028   3.167   5.947  16.716  0.2029 -0.6292  0.1308
 9538TIP3    H150029   3.244   6.004  16.710 -1.2162  1.3040 -0.6208
 9538TIP3    H250030   3.159   5.928  16.809  1.9577 -1.4487  0.1576
 9539TIP3   OH250031   5.675   0.017  15.852 -0.0532 -0.3271 -0.3796
 9539TIP3    H150032   5.709   0.041  15.939  0.2478 -2.4480  0.1415
 9539TIP3    H250033   5.754   0.005  15.799 -0.1252 -1.5455 -0.2226
 9540TIP3   OH250034   5.665   4.618  14.008 -0.1166  0.4159  0.3383
 9540TIP3    H150035   5.726   4.691  14.001 -0.0462  0.3411  0.1671
 9540TIP3    H250036   5.581   4.659  14.030  0.0639  0.4884  0.8849
 9541TIP3   OH250037   5.280   2.094  11.378  0.3657  0.4256 -0.3978
 9541TIP3    H150038   5.311   2.146  11.452 -0.0120  2.4166 -1.5542
 9541TIP3    H250039   5.187   2.116  11.370 -0.0102 -1.0395 -0.4849
 9542TIP3   OH250040   2.662   0.212   2.669  0.5747 -0.1087 -0.1653
 9542TIP3    H150041   2.686   0.194   2.760  2.1863  1.2971 -0.2655
 9542TIP3    H250042   2.584   0.267   2.675  1.3013  0.8970  0.4331
 9543TIP3   OH250043   5.170   4.765  11.811 -0.2351 -0.0491  0.0867
 9543TIP3    H150044   5.229   4.813  11.753  1.5433  0.4439  2.1646
 9543TIP3    H250045   5.193   4.673  11.798  2.0448  0.1921  1.7978
 9544TIP3   OH250046   6.316   0.939  15.979 -0.8358 -0.4641  0.7173
 9544TIP3    H150047   6.285   0.872  16.039 -2.8902  1.0695  1.4812
 9544TIP3    H250048   6.328   1.017  16.034 -0.8649  0.4551 -0.5285
 9545TIP3   OH250049   4.745   6.314   0.165  0.6936  0.4698 -0.2000
 9545TIP3    H150050   4.795   6.388   0.198  1.4045  1.2230 -2.7137
 9545TIP3    H250051   4.685   6.352   0.101 -0.7184 -0.8446  0.2934
 9546TIP3   OH250052   0.017   3.403   3.922  0.1623  0.6647  0.2202
 9546TIP3    H150053  -0.009   3.473   3.982  0.0591  0.3723  0.5163
 9546TIP3    H250054   0.113   3.403   3.927  0.2248  1.5853 -0.6951
 9547TIP3   OH250055   6.510   1.367   4.413  0.1810  0.3054  0.5742
 9547TIP3    H150056   6.418   1.395   4.413 -0.2223 -0.6335 -2.5491
 9547TIP3    H250057   6.507   1.277   4.446 -0.1492  0.0107 -0.2379
 9548TIP3   OH250058   5.479   4.963   5.629 -0.1359 -0.5639  0.2596
 9548TIP3    H150059   5.418   4.925   5.693 -0.9440  1.1661  0.5786
 9548TIP3    H250060   5.459   5.057   5.630  0.6209 -0.3388 -1.7080
 9549TIP3   OH250061   6.419   4.231   0.183 -0.5501 -0.3897 -0.1456
 9549TIP3    H150062   6.488   4.287   0.220 -1.0651 -1.4279  2.6657
 9549TIP3    H250063   6.339   4.280   0.197 -0.7572 -0.8082  0.1552
 9550TIP3   OH250064   3.992   3.398   5.136  0.2504  0.4662 -0.0763
 9550TIP3    H150065   4.028   3.470   5.188 -0.1310  1.1904 -0.7914
 9550TIP3    H250066   4.061   3.331   5.136  0.5330  0.7403  0.7509
 9551TIP3   OH250067   5.919   2.801   3.122 -0.3768  0.3062  0.3807
 9551TIP3    H150068   5.960   2.790   3.207 -3.0287 -0.0958  1.7320
 9551TIP3    H250069   5.853   2.870   3.135 -0.2140  0.9102 -1.6108
 9552TIP3   OH250070   3.451   4.188  12.782 -0.0039 -0.1360  0.0379
 9552TIP3    H150071   3.409   4.181  12.696  0.5062  1.3530 -0.3512
 9552TIP3    H250072   3.447   4.099  12.817 -0.2041 -0.7816 -1.5341
 9553TIP3   OH250073   3.442   0.505   3.366 -0.8376 -0.0421 -0.1585
 9553TIP3    H150074   3.519   0.453   3.391 -0.9090 -0.8965 -1.5900
 9553TIP3    H250075   3.456   0.591   3.406  0.7787 -0.2344 -0.2783
 9554TIP3   OH250076   0.728   5.780   5.583  0.0347  0.3820  0.1286
 9554TIP3    H150077   0.813   5.749   5.551 -0.0393 -1.4081  1.5162
 9554TIP3    H250078   0.691   5.704   5.629 -1.3698  1.7724  1.3834
 9555TIP3   OH250079   6.291   6.784  12.860 -0.0480  0.2055  0.0243
 9555TIP3    H150080   6.287   6.689  12.868 -1.2982 -0.1478 -3.1669
 9555TIP3    H250081   6.216   6.816  12.909  1.9462 -0.0698  3.5763
 9556TIP3   OH250082   6.773   6.033  13.262 -0.2505 -0.1978  0.2815
 9556TIP3    H150083   6.766   6.102  13.327 -0.8850  0.5589 -0.5806
 9556TIP3    H250084   6.777   5.952  13.314  0.3712  0.4552  1.2876
 9557TIP3   OH250085   2.608   3.791   2.151  0.4294 -0.2122  0.6580
 9557TIP3    H150086   2.699   3.810   2.174  0.7000  1.2341 -1.3485
 9557TIP3    H250087   2.613   3.718   2.090 -0.2094 -3.2933  3.9143
 9558TIP3   OH250088   1.002   3.649   2.217  0.4048  1.0502 -0.1483
 9558TIP3    H150089   1.012   3.738   2.185  2.6762  1.1405  0.6209
 9558TIP3    H250090   0.973   3.659   2.308 -1.0235  0.9181 -0.5602
 9559TIP3   OH250091   0.518   5.460   0.227 -0.1040 -0.0403  0.5239
 9559TIP3    H150092   0.495   5.553   0.228 -0.0117  0.0116 -0.9926
 9559TIP3    H250093   0.614   5.460   0.235  0.1545  0.1453 -1.8397
 9560TIP3   OH250094   1.995   4.365  13.745 -0.1898 -0.6365  0.9104
 9560TIP3    H150095   1.958   4.375  13.657 -3.4618 -1.5532  2.0382
 9560TIP3    H250096   2.086   4.341  13.731 -0.3108  0.3604 -2.1886
 9561TIP3   OH250097   4.203   1.581   2.807  0.2967  0.6446 -0.3266
 9561TIP3    H150098   4.136   1.591   2.740 -0.5650  2.2230  0.7029
 9561TIP3    H250099   4.280   1.626   2.772  0.1405  0.6608 -0.6476
 9562TIP3   OH250100   4.615   6.569  14.066 -0.4413  0.1876  0.4343
 9562TIP3    H150101   4.538   6.537  14.019 -0.2665 -1.8498  1.4077
 9562TIP3    H250102   4.685   6.508  14.041  0.6934  1.5670  0.1375
 9563TIP3   OH250103   2.379   3.833  11.699 -0.4158  0.3583 -0.1647
 9563TIP3    H150104   2.469   3.853  11.723  0.3512 -1.3648 -1.4311
 9563TIP3    H250105   2.326   3.884  11.761  1.4007  0.7285  1.1646
 9564TIP3   OH250106   2.600   6.379  14.935 -0.0699 -0.0805 -0.0170
 9564TIP3    H150107   2.524   6.385  14.876 -1.6462 -1.2543  1.7861
 9564TIP3    H250108   2.568   6.411  15.019  1.1374 -1.5347  1.0457
 9565TIP3   OH250109   2.570   6.436  14.248 -0.4138 -0.2076 -0.3314
 9565TIP3    H150110   2.648   6.429  14.193 -1.1997  2.0361 -1.8846
 9565TIP3    H250111   2.499   6.404  14.192 -0.8728 -0.4385  0.3732
 9566TIP3   OH250112   1.100   0.371   4.793 -0.1236 -0.0039  0.3680
 9566TIP3    H150113   1.029   0.310   4.775 -0.1402  0.2537 -0.4990
 9566TIP3    H250114   1.079   0.407   4.879  0.1853 -1.6056  1.1381
 9567TIP3   OH250115   2.989   3.244  13.935 -0.4338 -0.5336 -0.4616
 9567TIP3    H150116   2.927   3.303  13.891  0.8020  0.3830 -1.0441
 9567TIP3    H250117   2.950   3.157  13.926 -2.5787  0.1970  0.8566
 9568TIP3   OH250118   3.072   1.308   4.231  0.4033 -0.3382  0.0573
 9568TIP3    H150119   3.114   1.263   4.158 -0.7520 -1.8965  0.3010
 9568TIP3    H250120   2.980   1.285   4.223  0.0665  0.5190  1.2695
 9569TIP3   OH250121   1.935   2.015  15.817 -0.2940  0.4743 -0.4554
 9569TIP3    H150122   1.949   2.060  15.900 -1.6137  0.1147 -0.0134
 9569TIP3    H250123   1.999   1.943  15.817 -1.2677 -0.4440  0.9735
 9570TIP3   OH250124   1.302   5.439   4.526 -0.0349  0.0870 -0.0230
 9570TIP3    H150125   1.270   5.502   4.590 -2.0140 -1.0854  0.2276
 9570TIP3    H250126   1.223   5.396   4.493  1.0112 -0.1468 -2.4161
 9571TIP3   OH250127   3.590   3.273  14.652 -0.2389  0.0415  0.1497
 9571TIP3    H150128   3.603   3.295  14.560 -2.2440 -2.5884 -0.8870
 9571TIP3    H250129   3.675   3.290  14.693  0.6011  1.6112 -2.0571
 9572TIP3   OH250130   2.193   5.505  11.676  0.0853 -0.2903  0.1614
 9572TIP3    H150131   2.197   5.590  11.719  2.1714 -0.9647  1.4291
 9572TIP3    H250132   2.187   5.442  11.748 -0.2840 -1.2991 -0.7150
 9573TIP3   OH250133   4.868   5.839  15.894  0.6001 -0.1748 -0.5581
 9573TIP3    H150134   4.942   5.808  15.843  1.9677  0.7765  0.7680
 9573TIP3    H250135   4.814   5.761  15.908  2.2614 -1.2984 -0.0571
 9574TIP3   OH250136   5.944   4.788  11.287 -0.3901  0.5704 -0.4144
 9574TIP3    H150137   5.865   4.738  11.266 -0.9484  0.4097  1.7972
 9574TIP3    H250138   6.017   4.731  11.261 -0.9643  0.5383 -2.0776
 9575TIP3   OH250139   1.794   6.089   5.685 -0.3628 -0.2973  0.5464
 9575TIP3    H150140   1.804   5.999   5.718 -0.5236 -0.7051 -0.4559
 9575TIP3    H250141   1.699   6.102   5.681 -0.4393 -1.0376 -1.6554
 9576TIP3   OH250142   6.003   4.885   0.378  0.4700 -0.4985 -0.3603
 9576TIP3    H150143   6.057   4.943   0.324  0.5440 -1.4278 -1.3079
 9576TIP3    H250144   6.005   4.801   0.333  0.1089 -1.1651  0.8305
 9577TIP3   OH250145   2.437   5.448   4.752 -0.2876 -0.5214  0.1130
 9577TIP3    H150146   2.497   5.422   4.682  1.5107  2.8297  0.2042
 9577TIP3    H250147   2.474   5.408   4.831  0.2866 -0.6991 -0.2388
 9578TIP3   OH250148   1.158   3.177   2.979 -0.1216  0.2103 -0.3267
 9578TIP3    H150149   1.236   3.233   2.979  0.2953 -0.3353 -0.9752
 9578TIP3    H250150   1.174   3.115   2.907 -1.1688  0.1003 -0.4836
 9579TIP3   OH250151   6.132   5.813   1.698  0.1656 -0.2751  0.5610
 9579TIP3    H150152   6.226   5.813   1.720  0.0954 -0.6632  0.8676
 9579TIP3    H250153   6.090   5.769   1.771 -0.3727  0.7431  0.8906
 9580TIP3   OH250154   2.007   6.625  11.088 -0.0098 -0.5616  0.1284
 9580TIP3    H150155   1.945   6.644  11.017 -1.7938 -0.8847  1.5458
 9580TIP3    H250156   2.073   6.569  11.047 -0.6632 -0.2399 -1.4320
 9581TIP3   OH250157   1.740   3.257   2.670  0.2282 -0.5216 -0.0211
 9581TIP3    H150158   1.738   3.326   2.604  2.6303 -0.3359  0.0194
 9581TIP3    H250159   1.651   3.255   2.705 -0.1919  1.8080 -0.7712
 9582TIP3   OH250160   2.746   5.884  13.619  0.5255 -0.1139 -0.1709
 9582TIP3    H150161   2.837   5.868  13.593  0.6535  0.3798 -0.0308
 9582TIP3    H250162   2.749   5.966  13.669 -0.1887  0.6565 -1.3278
 9583TIP3   OH250163   6.383   5.536   3.410  0.2800  0.4723  0.7000
 9583TIP3    H150164   6.332   5.478   3.466  1.6011 -0.4703  0.9610
 9583TIP3    H250165   6.347   5.522   3.322  2.1244 -2.6589  0.3069
 9584TIP3   OH250166   6.723   2.734   2.728  0.1469 -0.0139 -0.4228
 9584TIP3    H150167   6.641   2.695   2.696  1.4103 -3.5451  0.1757
 9584TIP3    H250168   6.717   2.727   2.823  1.7163 -1.9025 -0.3964
 9585TIP3   OH250169   4.999   1.523   2.031 -0.2201 -0.0291 -0.0676
 9585TIP3    H150170   5.026   1.561   1.948 -0.7866 -0.2335 -0.3479
 9585TIP3    H250171   5.002   1.428   2.017  3.1913 -0.2425  1.2388
 9586TIP3   OH250172   5.764   3.038   2.273  0.0560  0.2714 -0.4069
 9586TIP3    H150173   5.784   3.001   2.359  0.7665  0.5004 -0.4685
 9586TIP3    H250174   5.795   3.128   2.278  0.3759  0.2010 -0.9992
 9587TIP3   OH250175   2.817   6.617   0.102  0.8678 -0.3499 -0.3984
 9587TIP3    H150176   2.768   6.571   0.033 -1.0320 -1.6708  1.6863
 9587TIP3    H250177   2.762   6.692   0.125 -0.2723 -1.7724  1.8771
 9588TIP3   OH250178   1.741   1.100   5.880  0.9769 -0.4883 -0.6319
 9588TIP3    H150179   1.789   1.052   5.947  0.8450  0.2927  0.0474
 9588TIP3    H250180   1.750   1.047   5.801  0.9592 -1.5412  0.0463
 9589TIP3   OH250181   3.474   6.796   0.827  0.8133 -0.5862 -0.0719
 9589TIP3    H150182   3.547   6.735   0.829  0.7278 -0.6739  0.4585
 9589TIP3    H250183   3.406   6.752   0.777 -0.2102 -2.0364  2.3885
 9590TIP3   OH250184   3.616   4.478  15.703 -0.0062 -0.1914 -0.4162
 9590TIP3    H150185   3.571   4.519  15.776  1.8648  0.1905  0.5773
 9590TIP3    H250186   3.709   4.482  15.726  0.4904 -1.9524 -1.8548
 9591TIP3   OH250187   4.016   1.912  11.857 -0.7313  0.2701  0.3166
 9591TIP3    H150188   3.942   1.960  11.894 -1.2038  0.5433 -0.9244
 9591TIP3    H250189   4.000   1.821  11.879 -0.2449  0.5651  2.0058
 9592TIP3   OH250190   1.706   4.418  15.356  0.6091 -0.4343  0.2108
 9592TIP3    H150191   1.620   4.449  15.327  0.5258 -0.6380  0.2401
 9592TIP3    H250192   1.767   4.455  15.292  0.5300 -0.0555  0.3557
 9593TIP3   OH250193   6.795   3.887   0.600 -0.5950 -0.0709 -0.0041
 9593TIP3    H150194   6.733   3.842   0.658 -1.0863  1.2182  0.4968
 9593TIP3    H250195   6.862   3.921   0.660 -0.0410 -0.4147 -0.4194
 9594TIP3   OH250196   0.260   0.726   2.181  0.0735  0.4682 -0.4383
 9594TIP3    H150197   0.187   0.775   2.143 -1.9975 -1.7706  0.3770
 9594TIP3    H250198   0.295   0.675   2.108  1.0034  1.6577 -0.8649
 9595TIP3   OH250199   4.838   0.501  12.762 -0.2260 -0.7833 -0.2003
 9595TIP3    H150200   4.829   0.406  12.756  1.7285 -0.9300 -1.7388
 9595TIP3    H250201   4.924   0.519  12.726 -1.3263  1.7709 -1.8456
 9596TIP3   OH250202   0.377   2.566   3.276 -0.4811  0.2737 -0.1691
 9596TIP3    H150203   0.381   2.470   3.268 -1.0764  0.0561  1.6515
 9596TIP3    H250204   0.285   2.587   3.258 -0.1007  0.6753 -1.7996
 9597TIP3   OH250205   6.720   6.155  15.740  0.1944 -0.2828  0.2940
 9597TIP3    H150206   6.776   6.083  15.710 -0.3163 -0.5783  0.0449
 9597TIP3    H250207   6.635   6.115  15.756  0.0534  0.1621  0.7019
 9598TIP3   OH250208   6.468   5.812  11.556  0.7240 -0.4713 -0.5649
 9598TIP3    H150209   6.472   5.733  11.609  2.0893 -0.2360 -0.2711
 9598TIP3    H250210   6.524   5.875  11.602 -1.1206  1.0094 -0.2635
 9599TIP3   OH250211   1.726   2.606   5.922 -0.0856  0.2900  0.3337
 9599TIP3    H150212   1.678   2.551   5.984  1.8559 -1.9763 -0.0235
 9599TIP3    H250213   1.815   2.570   5.922  0.2590  0.8778 -2.9729
 9600TIP3   OH250214   6.629   3.001   2.560 -0.1157 -0.2107 -0.2319
 9600TIP3    H150215   6.650   2.908   2.551  0.4079 -0.1111 -0.0079
 9600TIP3    H250216   6.632   3.018   2.654  1.1296  0.3433 -0.3534
 9601TIP3   OH250217   1.632   0.258  16.721 -0.0181 -0.4534  0.3491
 9601TIP3    H150218   1.705   0.218  16.674  2.3187  1.2593  2.2297
 9601TIP3    H250219   1.577   0.184  16.748  1.5451 -1.9161 -0.2934
 9602TIP3   OH250220   0.352   1.572  12.800  0.3093  0.3964 -0.0644
 9602TIP3    H150221   0.264   1.586  12.836  0.0893  1.5822 -1.0004
 9602TIP3    H250222   0.381   1.490  12.840  0.6322  2.1904  3.8002
 9603TIP3   OH250223   6.218   5.024  11.029  0.1402 -0.0541 -0.6776
 9603TIP3    H150224   6.236   4.930  11.033 -0.0037 -0.0593 -0.0488
 9603TIP3    H250225   6.127   5.032  11.060  0.3204  0.3349 -0.2325
 9604TIP3   OH250226   3.395   1.234   2.024  0.2774 -0.2299  0.3015
 9604TIP3    H150227   3.396   1.225   1.929  0.2714  1.0808  0.1655
 9604TIP3    H250228   3.358   1.320   2.040  3.3081  1.0255  1.3560
 9605TIP3   OH250229   0.404   6.706   1.707  0.4072  0.5638  0.5555
 9605TIP3    H150230   0.331   6.719   1.647 -0.0578  0.3946  1.0738
 9605TIP3    H250231   0.473   6.763   1.674  1.3830 -1.9132 -2.1075
 9606TIP3   OH250232   6.519   4.991   3.245 -0.6363 -0.2646 -0.7785
 9606TIP3    H150233   6.573   4.953   3.314  0.7870  1.1830 -1.0374
 9606TIP3    H250234   6.543   4.941   3.166 -1.1273 -0.8959 -0.5376
 9607TIP3   OH250235   5.197   5.401  10.880  0.0568  0.3567  0.5875
 9607TIP3    H150236   5.130   5.467  10.864 -0.6279  0.0846  2.2170
 9607TIP3    H250237   5.216   5.365  10.793  0.1023  2.3306 -0.2640
 9608TIP3   OH250238   5.638   3.557   5.794  0.5595 -0.2347 -0.0927
 9608TIP3    H150239   5.546   3.579   5.809  0.6707  0.5958 -0.5557
 9608TIP3    H250240   5.638   3.464   5.774 -0.3849  0.0674 -1.6934
 9609TIP3   OH250241   6.563   4.347   2.107  0.4051 -0.2011  0.1397
 9609TIP3    H150242   6.554   4.262   2.151 -0.1064  0.2682  0.9778
 9609TIP3    H250243   6.528   4.410   2.170  0.6031  0.6137 -0.5480
 9610TIP3   OH250244   3.362   3.252   2.314 -0.1414  0.0122 -0.9389
 9610TIP3    H150245   3.355   3.237   2.408 -0.6524  1.8804 -0.6510
 9610TIP3    H250246   3.311   3.181   2.275 -1.6813  0.3895  0.2890
 9611TIP3   OH250247   2.850   6.093   1.049  0.4466  0.0829 -0.2015
 9611TIP3    H150248   2.818   6.157   1.113 -1.0501 -0.2852 -0.5434
 9611TIP3    H250249   2.936   6.126   1.024 -0.2487  1.9440 -0.3168
 9612TIP3   OH250250   4.116   3.187   2.071 -0.8817  0.8410 -0.2052
 9612TIP3    H150251   4.063   3.108   2.083  1.2550 -0.5663  0.5111
 9612TIP3    H250252   4.075   3.253   2.127 -0.6300 -0.8659  2.1358
 9613TIP3   OH250253   0.934   3.246  16.894 -0.0896  0.2366  0.4150
 9613TIP3    H150254   0.891   3.167  16.927  0.0381 -1.0633 -2.3328
 9613TIP3    H250255   1.026   3.235  16.916  0.2334 -1.3155 -1.5068
 9614TIP3   OH250256   6.517   4.312  12.075  0.4278 -0.2916  0.0816
 9614TIP3    H150257   6.490   4.395  12.035 -0.3060 -0.4715  0.1989
 9614TIP3    H250258   6.466   4.306  12.155  0.9882 -0.5338  0.4267
 9615TIP3   OH250259   1.131   0.787   1.712  0.4225 -0.0366  1.0020
 9615TIP3    H150260   1.110   0.743   1.630  2.1265 -1.2535  1.1577
 9615TIP3    H250261   1.078   0.742   1.778 -0.2596  0.3327  0.7175
 9616TIP3   OH250262   1.842   5.480   1.736 -0.0513 -0.3367 -0.4186
 9616TIP3    H150263   1.917   5.495   1.679 -0.0797  0.1208 -0.3373
 9616TIP3    H250264   1.766   5.506   1.683 -0.4861 -3.6420 -1.6602
 9617TIP3   OH250265   0.493   4.154  17.073  0.3867 -0.3003  0.3880
 9617TIP3    H150266   0.489   4.061  17.096  0.5535 -0.2097  0.7866
 9617TIP3    H250267   0.413   4.191  17.110 -0.2697 -0.4983 -0.7732
 9618TIP3   OH250268   6.610   3.078  16.209 -0.2071 -0.5948 -0.2257
 9618TIP3    H150269   6.520   3.087  16.179  0.1887  2.1304 -0.8307
 9618TIP3    H250270   6.653   3.027  16.140 -0.9348 -0.5794 -0.6997
 9619TIP3   OH250271   0.842   2.604   1.976 -0.2136 -0.0961  0.0359
 9619TIP3    H150272   0.806   2.685   2.013 -0.2663  0.7150 -1.7060
 9619TIP3    H250273   0.765   2.551   1.956 -0.1596 -1.0221  1.9898
 9620TIP3   OH250274   5.426   1.963   1.497 -0.7913 -0.0087  0.3063
 9620TIP3    H150275   5.504   1.974   1.552 -0.0566  0.3089 -0.7527
 9620TIP3    H250276   5.461   1.959   1.407 -1.8331 -1.8631 -0.0635
 9621TIP3   OH250277   2.449   6.637   0.922  0.0352 -0.7717  0.0299
 9621TIP3    H150278   2.396   6.641   1.001  0.4696 -0.1711  0.3075
 9621TIP3    H250279   2.393   6.673   0.853 -0.0848 -0.5948  0.2198
 9622TIP3   OH250280   2.309   4.511   5.992  0.1957  0.0181  0.7096
 9622TIP3    H150281   2.312   4.603   6.017 -0.4267  1.0678 -2.6216
 9622TIP3    H250282   2.219   4.484   6.012 -0.7255  1.2446 -1.4462
 9623TIP3   OH250283   1.751   1.122  15.449 -0.3161 -0.0907  0.0223
 9623TIP3    H150284   1.803   1.119  15.369 -1.5067 -0.0825 -0.7763
 9623TIP3    H250285   1.730   1.030  15.468  0.0142 -0.0984  0.3722
 9624TIP3   OH250286   1.660   6.699   1.352  0.1264  1.4260 -0.2726
 9624TIP3    H150287   1.636   6.657   1.435 -0.3350  0.1823 -1.0240
 9624TIP3    H250288   1.578   6.738   1.320 -0.3932 -0.5941 -1.5522
 9625TIP3   OH250289   6.255   2.716   3.578  0.4921 -0.1972 -0.0055
 9625TIP3    H150290   6.271   2.736   3.670 -0.3395 -0.7456  0.2722
 9625TIP3    H250291   6.190   2.646   3.579  0.8767 -0.5988 -1.0023
 9626TIP3   OH250292   5.016   4.223   2.659 -0.3715  0.5745  0.8912
 9626TIP3    H150293   5.061   4.145   2.627 -1.3954  0.5148 -0.4938
 9626TIP3    H250294   5.085   4.275   2.699  0.5899 -0.3700  0.5255
 9627TIP3   OH250295   6.126   5.531   2.691  0.6094  0.3049  0.1415
 9627TIP3    H150296   6.049   5.582   2.669  1.2775  2.0237  1.5092
 9627TIP3    H250297   6.191   5.596   2.717  1.3271 -1.2421  2.5535
 9628TIP3   OH250298   0.668   2.910  13.153 -0.1178 -0.2307 -0.7327
 9628TIP3    H150299   0.713   2.825  13.148  0.3797  0.0307 -0.8001
 9628TIP3    H250300   0.709   2.962  13.083 -0.2786  0.1283 -0.5589
 9629TIP3   OH250301   3.821   0.178  12.206 -0.0175  0.1427  0.0849
 9629TIP3    H150302   3.776   0.226  12.275 -1.5768 -1.4861  0.2795
 9629TIP3    H250303   3.772   0.198  12.127  0.8021  0.7433 -0.2880
 9630TIP3   OH250304   0.934   4.846  14.504  0.0487 -0.0137  0.2785
 9630TIP3    H150305   0.860   4.903  14.485 -0.1165 -0.7674 -1.4645
 9630TIP3    H250306   0.941   4.788  14.428  1.7097 -0.7210  0.9155
 9631TIP3   OH250307   5.331   4.953  16.843 -0.4344  0.3420 -0.4081
 9631TIP3    H150308   5.370   5.027  16.889  2.0824  0.2641 -2.2550
 9631TIP3    H250309   5.404   4.895  16.823 -2.2687 -2.5888  0.6833
 9632TIP3   OH250310   1.486   4.468   1.207 -0.9785 -0.1933 -0.0550
 9632TIP3    H150311   1.520   4.409   1.275 -0.3681 -0.2027 -0.3611
 9632TIP3    H250312   1.424   4.524   1.253 -2.2579 -1.6524  0.0698
 9633TIP3   OH250313   3.787   2.235   4.524 -0.1498 -0.3042 -0.3997
 9633TIP3    H150314   3.698   2.213   4.495 -0.0977  0.0195 -0.8049
 9633TIP3    H250315   3.810   2.313   4.475  1.1095 -1.4740 -1.7771
 9634TIP3   OH250316   3.221   1.384   5.263  0.3332 -0.4380 -0.0133
 9634TIP3    H150317   3.195   1.363   5.352  0.3656 -0.9910 -0.1312
 9634TIP3    H250318   3.202   1.305   5.213 -0.3569  0.1041 -0.6370
 9635TIP3   OH250319   0.695   4.338   1.224 -0.6214 -0.2246  0.5695
 9635TIP3    H150320   0.606   4.303   1.217  0.0900 -2.4988  1.7745
 9635TIP3    H250321   0.741   4.274   1.278  1.3466  1.7066  1.3226
 9636TIP3   OH250322   6.394   2.652  14.474 -0.2556 -0.4282 -0.2389
 9636TIP3    H150323   6.476   2.702  14.476 -0.8514  0.5908 -0.6700
 9636TIP3    H250324   6.413   2.573  14.525  0.7156  0.2188  0.4253
 9637TIP3   OH250325   3.876   3.924   0.455 -0.1477 -0.2319 -0.3974
 9637TIP3    H150326   3.893   3.868   0.380 -2.5473 -3.5637  1.3189
 9637TIP3    H250327   3.796   3.971   0.433 -0.0418 -0.0850 -0.4736
 9638TIP3   OH250328   5.398   5.630  13.019  0.3250 -0.4263 -0.1394
 9638TIP3    H150329   5.448   5.581  13.084  0.8846 -1.3310 -1.2175
 9638TIP3    H250330   5.418   5.722  13.037  0.6012 -0.6664  0.8388
 9639TIP3   OH250331   5.794   1.015   0.473  0.5057  0.5886  0.4164
 9639TIP3    H150332   5.786   1.078   0.544  2.0728  1.5997 -0.2304
 9639TIP3    H250333   5.776   1.066   0.394  3.0801  0.6475 -0.2296
 9640TIP3   OH250334   2.826   4.467  11.651  0.0002 -0.0122 -0.1383
 9640TIP3    H150335   2.804   4.498  11.564  1.0757 -0.1669 -0.4848
 9640TIP3    H250336   2.749   4.418  11.680  0.1612 -1.1820 -1.5910
 9641TIP3   OH250337   4.318   4.784  12.480 -0.4070 -0.3877 -0.0260
 9641TIP3    H150338   4.363   4.810  12.400 -1.3596  0.8374 -0.1803
 9641TIP3    H250339   4.375   4.813  12.551 -1.0380  1.3991 -0.2158
 9642TIP3   OH250340   0.899   4.196   5.975 -0.0874 -0.4829  0.0603
 9642TIP3    H150341   0.970   4.162   6.030 -0.7156 -1.5001  0.2639
 9642TIP3    H250342   0.916   4.160   5.888 -1.2167 -2.0684  0.4597
 9643TIP3   OH250343   5.752   5.660   5.752 -0.0411 -1.0573 -0.4325
 9643TIP3    H150344   5.845   5.654   5.772 -0.1015 -1.6966 -0.3068
 9643TIP3    H250345   5.708   5.635   5.834 -0.3470  0.5617 -0.0800
 9644TIP3   OH250346   6.186   2.673  16.402 -0.4422 -0.1135  0.1136
 9644TIP3    H150347   6.258   2.685  16.340  0.8626 -1.6324  1.2495
 9644TIP3    H250348   6.125   2.615  16.357  0.4051 -1.0619  0.1665
 9645TIP3   OH250349   4.132   0.626  16.552  0.0539 -0.0619  0.2093
 9645TIP3    H150350   4.134   0.573  16.632 -0.6984 -0.5819 -0.0949
 9645TIP3    H250351   4.188   0.701  16.570  0.8595 -0.7813  0.7884
 9646TIP3   OH250352   1.791   1.534  11.126  0.2871 -0.4045  0.1449
 9646TIP3    H150353   1.800   1.592  11.202  0.1001  0.9800 -0.8609
 9646TIP3    H250354   1.768   1.592  11.053 -1.2448 -1.8922 -0.6410
 9647TIP3   OH250355   0.409   1.611  14.287 -0.0814 -0.0419  0.3958
 9647TIP3    H150356   0.400   1.632  14.194 -0.9742  1.0805  0.7141
 9647TIP3    H250357   0.344   1.541  14.302 -1.5569  1.3191  0.6177
 9648TIP3   OH250358   5.102   4.465  15.239  0.5578 -0.3681 -1.2280
 9648TIP3    H150359   5.118   4.555  15.267 -1.0350 -0.1312 -1.0104
 9648TIP3    H250360   5.071   4.421  15.318 -1.9403 -0.2288 -2.0656
 9649TIP3   OH250361   6.482   5.866   0.345 -0.4042  0.0239  0.6615
 9649TIP3    H150362   6.474   5.922   0.423 -0.5359 -0.9836  1.3969
 9649TIP3    H250363   6.519   5.784   0.379  0.1742 -0.1966 -0.4587
 9650TIP3   OH250364   1.324   4.931   4.912  0.2752  0.4699  0.1225
 9650TIP3    H150365   1.273   4.945   4.832  0.3440 -0.5746 -0.1161
 9650TIP3    H250366   1.283   4.856   4.954  1.2724 -0.0487  0.2022
 9651TIP3   OH250367   1.947   5.708  12.124  0.7256 -0.0825 -0.2221
 9651TIP3    H150368   1.968   5.751  12.207  1.7599 -0.9124 -0.0350
 9651TIP3    H250369   2.032   5.688  12.085  0.2876 -2.0892 -0.2275
 9652TIP3   OH250370   4.272   6.456   0.717 -0.1591  0.2637  0.3375
 9652TIP3    H150371   4.328   6.382   0.742  0.4647  1.0867  1.4783
 9652TIP3    H250372   4.304   6.481   0.630  0.3762 -0.1073  0.4194
 9653TIP3   OH250373   1.927   3.967  14.933 -0.2264  0.1868 -0.3051
 9653TIP3    H150374   1.874   3.930  14.862  2.6108 -0.4286 -2.2803
 9653TIP3    H250375   1.936   4.060  14.910 -0.4679  0.3019  0.0557
 9654TIP3   OH250376   4.822   2.614   0.782 -0.2017 -0.3398 -0.4985
 9654TIP3    H150377   4.790   2.689   0.833  0.1098 -0.4735 -0.0999
 9654TIP3    H250378   4.806   2.638   0.691 -0.9891 -0.1991 -0.3306
 9655TIP3   OH250379   6.142   1.158  11.890  0.5016 -0.0673  0.2302
 9655TIP3    H150380   6.237   1.166  11.885  0.4211  0.9354  0.1099
 9655TIP3    H250381   6.110   1.198  11.809  0.0000 -0.9169  0.0055
 9656TIP3   OH250382   2.538   5.738   3.615 -0.4270 -0.1816  0.0540
 9656TIP3    H150383   2.459   5.721   3.563 -1.4790 -2.6368  2.2295
 9656TIP3    H250384   2.570   5.652   3.639  0.6165  0.8045  2.5075
 9657TIP3   OH250385   0.239   6.407   2.796 -0.0765  0.0319  0.0997
 9657TIP3    H150386   0.283   6.446   2.721 -0.6221  1.1657  0.3525
 9657TIP3    H250387   0.209   6.481   2.848 -1.0093 -0.7207  0.6765
 9658TIP3   OH250388   5.494   1.696   0.876 -0.5452  1.0965 -0.1690
 9658TIP3    H150389   5.492   1.708   0.971 -0.7638 -1.0295  0.1348
 9658TIP3    H250390   5.587   1.701   0.853 -0.0385 -2.0145  0.7610
 9659TIP3   OH250391   4.663   4.055   0.742  0.1328  0.1802  0.5392
 9659TIP3    H150392   4.640   4.016   0.826  2.4080  0.9845  1.6277
 9659TIP3    H250393   4.580   4.066   0.696 -1.1779 -0.2518  2.6958
 9660TIP3   OH250394   1.972   6.296   5.186  0.5826  0.7270  0.0678
 9660TIP3    H150395   1.884   6.307   5.150  0.8255  2.3631 -0.0919
 9660TIP3    H250396   1.992   6.203   5.172 -0.2043  0.8186 -1.9819
 9661TIP3   OH250397   4.645   3.801  11.997 -0.3467 -0.2789  0.0140
 9661TIP3    H150398   4.738   3.824  11.996 -0.3273 -0.3780 -0.6868
 9661TIP3    H250399   4.635   3.738  11.927 -1.0153 -0.0073 -0.1439
 9662TIP3   OH250400   1.409   6.461   5.356 -0.1005  0.1924  0.5339
 9662TIP3    H150401   1.375   6.422   5.276  2.6544 -0.9613 -0.1904
 9662TIP3    H250402   1.360   6.419   5.426 -2.0834  0.7127 -0.4726
 9663TIP3   OH250403   0.553   6.511   5.157  0.0014  0.0793  0.2117
 9663TIP3    H150404   0.495   6.434   5.164  0.0973  0.0885  1.2538
 9663TIP3    H250405   0.563   6.541   5.247  1.0938  0.4834 -0.0319
 9664TIP3   OH250406   1.454   1.830   1.308  0.3840  0.1820  0.1083
 9664TIP3    H150407   1.457   1.766   1.236  0.3327  0.8802 -0.5342
 9664TIP3    H250408   1.431   1.779   1.385  1.0785 -0.6928 -0.2486
 9665TIP3   OH250409   2.898   4.240   1.360 -0.0233  0.2248 -0.3465
 9665TIP3    H150410   2.842   4.317   1.368 -1.4372 -0.9232  1.6286
 9665TIP3    H250411   2.899   4.201   1.447  0.4296 -2.1408 -1.3242
 9666TIP3   OH250412   3.320   1.432  13.167  0.0498 -0.0029  0.1045
 9666TIP3    H150413   3.253   1.364  13.159  1.8427 -1.6493 -3.4397
 9666TIP3    H250414   3.272   1.514  13.162 -1.8333 -1.1043 -1.2519
 9667TIP3   OH250415   5.705   0.889   3.263  0.0203  0.0190  0.4082
 9667TIP3    H150416   5.669   0.833   3.332 -3.1931 -0.4526 -1.4365
 9667TIP3    H250417   5.749   0.828   3.203  0.0991  0.0234  0.4613
 9668TIP3   OH250418   4.217   5.294  15.829 -0.5618  0.0561 -0.1427
 9668TIP3    H150419   4.262   5.221  15.872  1.2305 -0.3184 -2.4888
 9668TIP3    H250420   4.144   5.253  15.783 -0.9382  0.1065  0.3917
 9669TIP3   OH250421   4.409   1.288   3.541  0.2783 -0.0146 -0.4938
 9669TIP3    H150422   4.504   1.301   3.551 -0.0456  2.3522  0.0178
 9669TIP3    H250423   4.395   1.294   3.446  0.5189  0.6530 -0.4905
 9670TIP3   OH250424   1.560   2.700   3.848  0.0475 -0.1668  0.8214
 9670TIP3    H150425   1.618   2.774   3.830 -1.8733  1.8779  2.3303
 9670TIP3    H250426   1.610   2.644   3.907  2.7138 -1.8880 -2.6976
 9671TIP3   OH250427   0.628   2.094  15.638  0.6215  0.5246 -0.5481
 9671TIP3    H150428   0.620   2.108  15.732 -0.7255 -1.5717 -0.2689
 9671TIP3    H250429   0.716   2.059  15.627  0.7134  0.5799 -0.0277
 9672TIP3   OH250430   0.713   5.800  16.286 -0.4872 -0.3172  0.3513
 9672TIP3    H150431   0.781   5.841  16.232  0.5511 -0.6244  1.3915
 9672TIP3    H250432   0.674   5.873  16.334 -0.4329 -0.2276  0.2616
 9673TIP3   OH250433   1.194   4.156  15.164  0.0326  0.5933  0.3260
 9673TIP3    H150434   1.118   4.188  15.213 -0.2534  0.7498 -0.2147
 9673TIP3    H250435   1.220   4.230  15.110 -0.3497  0.0752 -0.5977
 9674TIP3   OH250436   5.627   3.804   2.462  0.2077 -0.2769  0.1532
 9674TIP3    H150437   5.649   3.737   2.397 -0.9188 -1.7843  1.2591
 9674TIP3    H250438   5.705   3.812   2.516 -0.4011 -2.5517  1.5082
 9675TIP3   OH250439   6.758   0.708   1.263 -0.5559 -0.3293  0.2051
 9675TIP3    H150440   6.792   0.797   1.248 -0.6700 -0.1502  0.9515
 9675TIP3    H250441   6.785   0.687   1.352 -0.0035 -1.2981 -0.1797
 9676TIP3   OH250442   2.583   1.772  14.138 -0.4176 -0.0405 -0.1057
 9676TIP3    H150443   2.550   1.712  14.071 -1.8613  1.5106 -0.8545
 9676TIP3    H250444   2.505   1.802  14.184  0.5045 -0.6513  1.9618
 9677TIP3   OH250445   1.667   4.003  13.101 -0.4763  0.3654  0.1764
 9677TIP3    H150446   1.651   3.952  13.180  0.7732  1.9883  1.5188
 9677TIP3    H250447   1.600   3.972  13.039 -1.5609 -0.8397  1.8757
 9678TIP3   OH250448   6.123   2.002   6.426  0.5235 -0.0878  0.1465
 9678TIP3    H150449   6.190   1.989   6.359 -0.1082 -0.0565 -0.5089
 9678TIP3    H250450   6.081   2.085   6.402 -1.0585 -1.0673 -0.6189
 9679TIP3   OH250451   3.032   1.002   5.564  0.0122 -0.4371 -0.6640
 9679TIP3    H150452   2.985   0.938   5.510 -0.4817 -0.2307 -0.4861
 9679TIP3    H250453   3.119   0.965   5.574 -0.6672 -1.7915  0.6274
 9680TIP3   OH250454   5.903   6.698   2.077  0.6502  0.9281 -0.0204
 9680TIP3    H150455   5.971   6.651   2.126 -0.9149  0.5491  1.9020
 9680TIP3    H250456   5.926   6.791   2.089  0.6412  0.8217  0.9711
 9681TIP3   OH250457   2.794   0.434   1.441 -0.0889 -0.0619  0.0289
 9681TIP3    H150458   2.874   0.485   1.450  0.3414 -1.0726  3.0129
 9681TIP3    H250459   2.724   0.498   1.440  0.5549  0.7091  1.5898
 9682TIP3   OH250460   6.338   0.005  14.859  0.3451  0.0287  0.1353
 9682TIP3    H150461   6.356   0.056  14.780  1.5118 -1.4267 -0.5789
 9682TIP3    H250462   6.296   0.068  14.918 -2.2525  0.7539 -2.2256
 9683TIP3   OH250463   4.699   3.742  13.532  0.2726  0.0310  0.7893
 9683TIP3    H150464   4.700   3.834  13.504  0.4403 -0.1908  0.0488
 9683TIP3    H250465   4.641   3.699  13.470 -0.0751 -0.3081  1.3402
 9684TIP3   OH250466   0.996   5.782  11.071 -0.1265  0.7697  0.0068
 9684TIP3    H150467   1.005   5.816  10.982  0.1975  2.7292  0.7308
 9684TIP3    H250468   1.081   5.799  11.112 -0.4385  0.3703  0.8410
 9685TIP3   OH250469   5.535   5.526   4.212  0.2256  0.0146 -0.6517
 9685TIP3    H150470   5.574   5.609   4.241 -0.7353  0.3471 -0.2952
 9685TIP3    H250471   5.481   5.549   4.136  0.3335 -0.3667 -0.8471
 9686TIP3   OH250472   5.474   0.795   4.969  0.0496 -0.1245  0.0579
 9686TIP3    H150473   5.456   0.857   4.898  1.7398  0.3861  0.0213
 9686TIP3    H250474   5.396   0.799   5.025 -0.2924  1.3015 -0.4778
 9687TIP3   OH250475   4.131   4.225  17.062  0.2459 -0.0881 -0.4604
 9687TIP3    H150476   4.120   4.310  17.105  0.3326 -0.0834 -0.4490
 9687TIP3    H250477   4.110   4.242  16.970  1.0077  0.1113 -0.6042
 9688TIP3   OH250478   6.357   1.231   2.346 -0.3751 -0.5937  0.1544
 9688TIP3    H150479   6.324   1.198   2.262 -0.7035  1.0937 -0.4006
 9688TIP3    H250480   6.384   1.321   2.329 -0.0514 -0.3457  1.7626
 9689TIP3   OH250481   5.068   1.939  15.678  0.3034 -0.1686 -0.4082
 9689TIP3    H150482   5.126   1.870  15.712 -0.8060 -0.8818  0.1020
 9689TIP3    H250483   5.122   2.017  15.676  0.6721 -0.2595  2.2935
 9690TIP3   OH250484   2.159   5.747   5.044 -0.3438  0.7923 -0.4281
 9690TIP3    H150485   2.251   5.770   5.036 -0.8237  4.4978  2.1175
 9690TIP3    H250486   2.126   5.744   4.954  1.7260  1.9793 -1.2787
 9691TIP3   OH250487   2.296   5.055   2.959  0.1411 -0.5990 -0.3014
 9691TIP3    H150488   2.201   5.052   2.967 -0.0874  1.7607 -1.3456
 9691TIP3    H250489   2.312   5.058   2.864  1.1937 -0.0528 -0.1224
 9692TIP3   OH250490   3.635   1.367  12.741 -0.2435 -0.1303  0.1857
 9692TIP3    H150491   3.565   1.350  12.803  1.7576 -0.0692  2.6297
 9692TIP3    H250492   3.643   1.463  12.739 -0.8501 -0.0849 -0.8800
 9693TIP3   OH250493   4.363   5.802   3.329  0.5401 -0.5909  0.2876
 9693TIP3    H150494   4.291   5.742   3.349  0.7126 -1.3001 -1.1103
 9693TIP3    H250495   4.335   5.848   3.250  0.5249  1.0161  1.1969
 9694TIP3   OH250496   6.410   5.299  10.515  0.3739  0.1277  0.0696
 9694TIP3    H150497   6.393   5.207  10.531  2.3016 -0.4494 -0.8768
 9694TIP3    H250498   6.489   5.300  10.461 -0.6679  2.2370 -1.6205
 9695TIP3   OH250499   2.856   1.005   1.498 -0.8276  0.1701 -0.1734
 9695TIP3    H150500   2.780   0.993   1.555 -0.0019  2.9072  1.7495
 9695TIP3    H250501   2.926   0.956   1.541 -0.4573  1.3986  0.6913
 9696TIP3   OH250502   0.525   5.408   2.199  1.1238 -0.0035  0.6433
 9696TIP3    H150503   0.493   5.449   2.279  1.1552 -1.9619  1.7104
 9696TIP3    H250504   0.510   5.314   2.212  2.3918 -0.4986 -1.0808
 9697TIP3   OH250505   5.325   4.641   0.432 -0.1040  0.7591 -0.8380
 9697TIP3    H150506   5.394   4.652   0.366  0.9436  0.0117  0.0916
 9697TIP3    H250507   5.372   4.612   0.510 -1.1729  2.5922  0.5646
 9698TIP3   OH250508   1.709   2.284  10.651  0.3997  0.5391 -0.4129
 9698TIP3    H150509   1.801   2.310  10.656  0.5663  0.3484 -2.0983
 9698TIP3    H250510   1.710   2.189  10.665  0.5217  0.4523 -1.0116
 9699TIP3   OH250511   3.618   6.754   1.299 -0.6837  0.2856 -0.9446
 9699TIP3    H150512   3.670   6.676   1.317 -1.6246 -0.2406 -0.4456
 9699TIP3    H250513   3.676   6.810   1.248  0.5573 -0.0476  0.0623
 9700TIP3   OH250514   1.285   4.801  15.780  0.2228  1.0963  0.5368
 9700TIP3    H150515   1.371   4.772  15.749 -0.1409 -0.7490  1.1165
 9700TIP3    H250516   1.224   4.762  15.718 -0.4256 -1.4753  2.6104
 9701TIP3   OH250517   1.387   6.349  11.120  0.1175  0.2797  0.1439
 9701TIP3    H150518   1.370   6.363  11.213  1.4936  0.2229  0.4260
 9701TIP3    H250519   1.450   6.417  11.097  0.2297 -0.0704 -0.6034
 9702TIP3   OH250520   1.777   4.596   1.776  0.3365 -0.3348  0.5767
 9702TIP3    H150521   1.719   4.587   1.852  2.1337 -1.4235  1.9008
 9702TIP3    H250522   1.811   4.685   1.782  0.8269 -0.5632  1.3512
 9703TIP3   OH250523   2.715   6.339   0.534 -0.1424 -0.2763  0.3284
 9703TIP3    H150524   2.721   6.301   0.622  3.0885 -2.3417 -0.6228
 9703TIP3    H250525   2.792   6.396   0.528 -1.5161  1.5970 -0.4946
 9704TIP3   OH250526   2.172   2.365  16.887 -0.0637  0.2223 -0.3593
 9704TIP3    H150527   2.238   2.421  16.930  1.6332 -1.7277 -0.2823
 9704TIP3    H250528   2.093   2.376  16.940  0.1544  2.5728 -0.4007
 9705TIP3   OH250529   0.963   3.376   1.157  0.2254 -0.7572  0.2737
 9705TIP3    H150530   0.993   3.286   1.168  0.7131 -0.7313 -0.7222
 9705TIP3    H250531   0.869   3.372   1.176  0.6341 -1.0025  2.5518
 9706TIP3   OH250532   1.690   1.969  16.215 -0.0384  0.2197 -0.1941
 9706TIP3    H150533   1.655   1.969  16.125 -0.8936 -0.5293  0.1263
 9706TIP3    H250534   1.702   2.062  16.236  0.0786  0.4055 -1.0425
 9707TIP3   OH250535   3.807   5.777  14.987  0.1912  0.1491 -0.2393
 9707TIP3    H150536   3.858   5.803  15.065 -1.4004  0.1065  0.8600
 9707TIP3    H250537   3.755   5.702  15.016 -1.0452  0.6485 -1.1036
 9708TIP3   OH250538   0.999   0.408  11.426  0.2032  0.0826 -0.3148
 9708TIP3    H150539   0.914   0.375  11.396 -0.1838  1.1132 -0.4065
 9708TIP3    H250540   1.050   0.419  11.346 -0.4523  1.7890 -0.5584
 9709TIP3   OH250541   4.290   2.628   1.947 -0.5422  0.1348  0.2466
 9709TIP3    H150542   4.239   2.644   1.867 -1.0969 -1.6058  0.2094
 9709TIP3    H250543   4.229   2.581   2.004  0.1265  0.6021  1.3553
 9710TIP3   OH250544   0.363   4.253  12.126  0.1071 -0.1578 -0.2996
 9710TIP3    H150545   0.456   4.270  12.108  0.0014  0.1971 -0.5255
 9710TIP3    H250546   0.349   4.290  12.213  0.2543 -0.5048 -0.1260
 9711TIP3   OH250547   4.105   3.955  13.396  0.0549 -0.2001  0.6087
 9711TIP3    H150548   4.022   3.927  13.434 -0.4211  0.0802 -0.1878
 9711TIP3    H250549   4.084   4.035  13.348  0.6791 -0.3881 -0.0046
 9712TIP3   OH250550   0.231   4.074   2.621 -0.5504  0.3300  0.1303
 9712TIP3    H150551   0.195   4.153   2.660 -0.5928  0.3792 -0.0062
 9712TIP3    H250552   0.274   4.104   2.541 -1.4847  0.0840 -0.4866
 9713TIP3   OH250553   5.415   4.062   4.219  0.4341 -1.2006 -0.0409
 9713TIP3    H150554   5.432   3.987   4.277 -0.1908 -2.1679 -1.0831
 9713TIP3    H250555   5.498   4.077   4.175  0.4570 -1.5572 -0.1265
 9714TIP3   OH250556   2.985   4.399   6.565  0.3241 -0.5475 -0.0205
 9714TIP3    H150557   3.053   4.344   6.604 -0.7287 -1.3452  0.7887
 9714TIP3    H250558   2.998   4.485   6.604  0.6291 -0.7924  0.4305
 9715TIP3   OH250559   2.540   1.895  14.769  0.4095  0.0663 -0.0474
 9715TIP3    H150560   2.596   1.973  14.762  1.3689 -0.4645  1.2752
 9715TIP3    H250561   2.531   1.880  14.863 -1.3473 -0.3298 -0.2514
 9716TIP3   OH250562   4.550   1.546  14.031 -0.3176  0.1580 -0.0782
 9716TIP3    H150563   4.633   1.531  13.987 -1.8109 -1.3552 -2.6043
 9716TIP3    H250564   4.560   1.504  14.117  1.2189 -0.7729 -0.6765
 9717TIP3   OH250565   3.259   2.053  16.516  0.0259  0.1252  0.4618
 9717TIP3    H150566   3.173   2.042  16.556 -0.7207  2.0823 -0.4832
 9717TIP3    H250567   3.254   2.137  16.470  2.6338  0.5823  0.8516
 9718TIP3   OH250568   3.085   0.907  13.987 -0.1941 -0.1875 -0.2522
 9718TIP3    H150569   3.096   0.856  14.067 -2.0658 -1.8786 -0.9897
 9718TIP3    H250570   3.175   0.928  13.960  0.4782  1.6187  2.9113
 9719TIP3   OH250571   4.089   6.067   3.626  0.0234 -0.7558 -0.0834
 9719TIP3    H150572   4.124   5.997   3.571  0.1137 -2.0019  1.5057
 9719TIP3    H250573   4.162   6.091   3.683 -1.3716 -3.0516  2.9576
 9720TIP3   OH250574   1.174   1.249   5.821 -0.3397 -0.2984 -1.2577
 9720TIP3    H150575   1.133   1.240   5.907  2.2745  1.2961  0.3009
 9720TIP3    H250576   1.190   1.159   5.792  0.3914 -0.8895  0.8248
 9721TIP3   OH250577   1.658   1.718   4.286  0.4921 -0.1318  0.0784
 9721TIP3    H150578   1.679   1.767   4.207 -0.9628  0.7578  0.2123
 9721TIP3    H250579   1.569   1.745   4.309 -0.0710 -2.2550  0.6231
 9722TIP3   OH250580   5.033   2.564  13.423 -0.7026  0.0325  0.4638
 9722TIP3    H150581   5.004   2.574  13.332  1.6957 -1.1307 -0.5300
 9722TIP3    H250582   5.024   2.471  13.441  4.4043 -1.0214 -0.8752
 9723TIP3   OH250583   6.013   3.871   1.599  0.3364  0.5111  0.0820
 9723TIP3    H150584   5.970   3.934   1.541 -1.3287  1.4999  2.2543
 9723TIP3    H250585   5.964   3.789   1.585 -0.1148  0.7673  0.1241
 9724TIP3   OH250586   1.165   5.420  13.425  0.8748 -0.4231 -0.3656
 9724TIP3    H150587   1.191   5.347  13.482  2.2375  0.3982  0.1200
 9724TIP3    H250588   1.070   5.426  13.436  0.8859 -1.4069  0.4471
 9725TIP3   OH250589   4.098   0.201   3.047 -0.0836  0.2999 -0.1443
 9725TIP3    H150590   4.157   0.276   3.055  1.1235 -0.6347  0.0799
 9725TIP3    H250591   4.053   0.198   3.132 -0.0439  0.6979 -0.1050
 9726TIP3   OH250592   4.517   5.236   0.771  0.0341 -0.9024 -0.8684
 9726TIP3    H150593   4.438   5.195   0.736  1.1672 -2.7379 -1.3770
 9726TIP3    H250594   4.576   5.243   0.696  0.0484  1.4066 -0.7322
 9727TIP3   OH250595   1.929   4.653  11.499 -0.7384 -0.0208  1.0403
 9727TIP3    H150596   1.946   4.575  11.552  1.9475 -0.5631 -0.4646
 9727TIP3    H250597   1.939   4.624  11.409 -1.4674  1.7060  0.3611
 9728TIP3   OH250598   1.452   4.667   2.283  0.2598 -0.0884  0.2491
 9728TIP3    H150599   1.434   4.599   2.218 -0.5368  1.0993 -0.8291
 9728TIP3    H250600   1.367   4.683   2.325  0.1147  1.1543 -0.4610
 9729TIP3   OH250601   4.177   2.733  14.480 -0.4790 -0.2052  0.0342
 9729TIP3    H150602   4.203   2.822  14.457 -0.1169  0.0323  1.3132
 9729TIP3    H250603   4.119   2.706  14.409  0.1564  0.6926 -0.8562
 9730TIP3   OH250604   0.938   0.247  10.220 -0.1982  0.1391 -0.2882
 9730TIP3    H150605   1.032   0.258  10.230 -0.0468 -0.7273 -0.6914
 9730TIP3    H250606   0.901   0.333  10.240  0.7602  0.8163 -1.3471
 9731TIP3   OH250607   6.248   1.884  13.506  0.1032 -0.6371 -0.1859
 9731TIP3    H150608   6.189   1.836  13.448 -0.5440 -0.0940  0.0016
 9731TIP3    H250609   6.321   1.910  13.451 -0.1270 -0.8067 -0.5704
 9732TIP3   OH250610   2.107   2.849  15.219  0.4551 -0.5808 -0.2501
 9732TIP3    H150611   2.084   2.935  15.183 -2.8746 -1.3389 -0.2868
 9732TIP3    H250612   2.124   2.866  15.311 -1.1655  0.0696 -0.0295
 9733TIP3   OH250613   1.193   6.071   5.456 -0.5331  0.1645 -0.0580
 9733TIP3    H150614   1.130   6.083   5.528 -1.4776  0.0617 -0.8483
 9733TIP3    H250615   1.220   5.980   5.463  0.6356  0.5761  1.1503
 9734TIP3   OH250616   1.381   3.991  13.612  0.3806 -0.6896  0.0210
 9734TIP3    H150617   1.339   3.957  13.533  0.3398 -1.0153  0.1827
 9734TIP3    H250618   1.463   3.944  13.619  0.8595  0.0593 -0.3818
 9735TIP3   OH250619   3.813   2.275  12.871 -0.1753  0.3972  0.0730
 9735TIP3    H150620   3.905   2.252  12.857 -0.5190 -0.2622 -1.3515
 9735TIP3    H250621   3.764   2.202  12.833 -1.3132  0.1452  1.8958
 9736TIP3   OH250622   2.074   0.847   3.064  0.3262  0.1268  0.0836
 9736TIP3    H150623   2.154   0.899   3.067  0.2785  0.1418  1.5975
 9736TIP3    H250624   2.073   0.800   3.147 -0.2836 -1.3270 -0.7242
 9737TIP3   OH250625   0.699   2.466   2.593 -0.0556  0.2331 -0.2486
 9737TIP3    H150626   0.627   2.519   2.557 -0.3654  0.0789  0.1312
 9737TIP3    H250627   0.741   2.524   2.657  0.2448  0.3686 -0.5643
 9738TIP3   OH250628   4.226   1.368   2.543  0.2151  0.0152 -0.0608
 9738TIP3    H150629   4.145   1.383   2.592 -0.6065 -1.9755 -0.7068
 9738TIP3    H250630   4.229   1.440   2.479 -1.3313 -0.1573 -0.3752
 9739TIP3   OH250631   4.830   5.431  11.455 -0.3636 -0.3497 -0.2245
 9739TIP3    H150632   4.803   5.467  11.370  0.6728 -0.0314 -0.4368
 9739TIP3    H250633   4.922   5.457  11.463 -0.1299 -1.3549  0.4794
 9740TIP3   OH250634   6.764   2.484   3.023 -0.2605  0.0674 -0.3353
 9740TIP3    H150635   6.718   2.411   3.063 -1.2071  0.2661 -1.0196
 9740TIP3    H250636   6.716   2.501   2.941  2.2583 -1.0955 -2.1969
 9741TIP3   OH250637   1.518   4.089  14.030 -0.3975 -0.0684  0.1331
 9741TIP3    H150638   1.507   4.002  13.993  1.1479  0.1967 -1.0629
 9741TIP3    H250639   1.532   4.146  13.954  1.4174  0.7458  0.9974
 9742TIP3   OH250640   2.205   5.596  13.855 -0.4446  0.1379  1.0215
 9742TIP3    H150641   2.129   5.577  13.799 -0.3998  0.9737  0.6603
 9742TIP3    H250642   2.189   5.685  13.887  0.0482  0.0572  1.5026
 9743TIP3   OH250643   5.190   0.707  16.174  0.0797  0.1326  0.3434
 9743TIP3    H150644   5.246   0.650  16.121 -0.1561 -0.4107  0.6659
 9743TIP3    H250645   5.224   0.795  16.158  2.0973 -0.3014  1.7662
 9744TIP3   OH250646   5.968   6.037  11.870 -0.3216  0.0591  0.0233
 9744TIP3    H150647   5.991   6.062  11.960 -1.2755  0.0490  0.2832
 9744TIP3    H250648   6.051   6.042  11.822  0.1342  0.4225  0.8197
 9745TIP3   OH250649   4.154   3.289  14.722  0.8214 -0.2112  0.0586
 9745TIP3    H150650   4.134   3.289  14.628  0.1920 -0.3374  0.1907
 9745TIP3    H250651   4.200   3.372  14.736 -0.4296  0.5316 -0.0820
 9746TIP3   OH250652   0.644   6.526   5.623  1.1988 -0.4614 -0.3285
 9746TIP3    H150653   0.667   6.434   5.639  2.0767 -0.0598  0.8479
 9746TIP3    H250654   0.718   6.575   5.658  1.5421  0.6672 -2.4659
 9747TIP3   OH250655   4.304   0.243   5.058  0.0214  0.0919  0.2359
 9747TIP3    H150656   4.293   0.337   5.071  1.6833  0.1722  1.3020
 9747TIP3    H250657   4.240   0.202   5.117 -0.3833  0.5242  0.1061
 9748TIP3   OH250658   1.220   5.512   3.326 -0.3743 -0.2384 -0.4236
 9748TIP3    H150659   1.259   5.548   3.405  0.1279 -2.1972  0.2845
 9748TIP3    H250660   1.151   5.454   3.357 -1.3199  0.2677 -1.5109
 9749TIP3   OH250661   2.781   0.925   4.775  0.5935  0.0070  0.1173
 9749TIP3    H150662   2.871   0.911   4.805  0.1926 -1.2499  0.7784
 9749TIP3    H250663   2.791   0.958   4.686  1.7088 -2.2868 -0.6893
 9750TIP3   OH250664   4.819   3.849   0.531  0.4616  0.3628  0.1176
 9750TIP3    H150665   4.747   3.910   0.516 -0.7495 -0.6219  1.7088
 9750TIP3    H250666   4.779   3.763   0.525  1.5019 -0.2085  1.1122
 9751TIP3   OH250667   0.119   4.934   4.924 -0.4479  0.1364  0.0779
 9751TIP3    H150668   0.125   5.023   4.888 -1.7014  0.3994  0.4909
 9751TIP3    H250669   0.177   4.882   4.868 -0.9707  0.8975 -1.2117
 9752TIP3   OH250670   2.828   4.073  12.656  0.3365  0.5725  0.6228
 9752TIP3    H150671   2.844   3.990  12.612  0.9482  1.2442 -0.4625
 9752TIP3    H250672   2.797   4.048  12.744 -1.6015 -0.7855 -0.3816
 9753TIP3   OH250673   5.658   6.202   1.926  0.7091 -0.0746 -0.2338
 9753TIP3    H150674   5.573   6.220   1.967  0.0291 -0.8952 -1.2318
 9753TIP3    H250675   5.636   6.183   1.835  1.9660 -0.3908 -0.4806
 9754TIP3   OH250676   6.719   6.546   3.620  0.1580  0.2486  0.0418
 9754TIP3    H150677   6.716   6.457   3.653  0.3147  0.6192  1.1084
 9754TIP3    H250678   6.790   6.546   3.556  0.6277 -0.2399  0.5433
 9755TIP3   OH250679   6.474   1.157  14.783 -0.1105 -0.2750  0.2486
 9755TIP3    H150680   6.420   1.085  14.750 -0.4246  0.2803 -0.4805
 9755TIP3    H250681   6.563   1.124  14.776 -0.2937 -0.8898  0.6758
 9756TIP3   OH250682   1.991   6.427  12.451  0.4983  0.1600 -0.1236
 9756TIP3    H150683   1.930   6.474  12.395  1.5548  1.1301 -0.4905
 9756TIP3    H250684   2.049   6.380  12.390  0.8630  0.2043  0.1822
 9757TIP3   OH250685   1.173   5.798   5.538 -0.3620  0.3459  0.1310
 9757TIP3    H150686   1.115   5.799   5.614 -0.4014 -1.0388  0.1467
 9757TIP3    H250687   1.242   5.736   5.561  0.3331  0.8808 -0.4639
 9758TIP3   OH250688   4.710   1.595   4.834 -0.4023  0.6615 -0.4109
 9758TIP3    H150689   4.657   1.524   4.797  2.3731 -0.9114 -1.6288
 9758TIP3    H250690   4.714   1.660   4.764  0.7487 -0.0619 -1.0390
 9759TIP3   OH250691   1.810   4.527   3.504  0.4888 -0.1718 -0.2651
 9759TIP3    H150692   1.834   4.569   3.422  1.5688 -0.5694 -0.1720
 9759TIP3    H250693   1.724   4.488   3.487  1.6555 -2.2626 -2.0188
 9760TIP3   OH250694   6.337   6.735   1.605  0.1771  0.2687 -0.2029
 9760TIP3    H150695   6.274   6.766   1.540  0.2057  0.0940 -0.3138
 9760TIP3    H250696   6.378   6.815   1.639  0.5630  0.3267 -0.8010
 9761TIP3   OH250697   3.861   3.427   3.084 -0.1973 -0.2466 -0.3697
 9761TIP3    H150698   3.848   3.507   3.034 -1.2676 -0.8648 -1.1250
 9761TIP3    H250699   3.946   3.438   3.126 -0.4316  1.3837 -0.2591
 9762TIP3   OH250700   3.466   3.920   1.953  0.1520 -0.1509  0.3939
 9762TIP3    H150701   3.459   3.859   1.879 -0.9227  1.6029 -1.0385
 9762TIP3    H250702   3.417   3.879   2.024 -0.3007 -1.0692 -0.4313
 9763TIP3   OH250703   2.938   0.622   4.819 -0.5555 -0.4341 -0.1857
 9763TIP3    H150704   2.973   0.542   4.780 -2.5530 -0.4896 -2.0065
 9763TIP3    H250705   3.004   0.689   4.799  0.2746 -1.2426 -0.2157
 9764TIP3   OH250706   2.812   0.139  11.870  0.3627  0.2777  0.2146
 9764TIP3    H150707   2.749   0.150  11.940 -1.1924 -0.5531 -0.9964
 9764TIP3    H250708   2.823   0.044  11.861 -1.2036  0.2237 -2.0710
 9765TIP3   OH250709   6.348   2.650   5.248  0.0853  0.7457 -0.3038
 9765TIP3    H150710   6.279   2.716   5.244  0.4047  1.0335 -1.2726
 9765TIP3    H250711   6.423   2.691   5.205  0.7669  0.3191  0.4530
 9766TIP3   OH250712   3.918   4.385  14.407 -0.0414  0.4535  0.0315
 9766TIP3    H150713   3.901   4.430  14.324  1.2826  2.7731  0.9164
 9766TIP3    H250714   3.845   4.411  14.464  0.8463  1.7851  0.6179
 9767TIP3   OH250715   6.599   0.368  16.668 -0.1119 -0.6851  0.4721
 9767TIP3    H150716   6.642   0.445  16.705 -1.4947 -0.4495  1.6877
 9767TIP3    H250717   6.511   0.397  16.648 -0.0443 -1.4284 -0.9922
 9768TIP3   OH250718   1.038   0.455  12.935 -0.1382 -0.6923 -0.5730
 9768TIP3    H150719   1.039   0.434  13.028  0.6497 -1.1949 -0.6907
 9768TIP3    H250720   1.069   0.545  12.930  2.0724 -1.4010 -0.5123
 9769TIP3   OH250721   1.026   2.156  16.135 -0.1196 -0.3797 -0.2490
 9769TIP3    H150722   0.987   2.076  16.170  0.5644 -0.6298 -0.0327
 9769TIP3    H250723   1.108   2.166  16.184  1.9714 -1.8881 -3.0659
 9770TIP3   OH250724   6.533   3.138   0.687 -0.3486  0.1593  0.1030
 9770TIP3    H150725   6.460   3.199   0.701 -0.4215  0.1228 -0.1179
 9770TIP3    H250726   6.608   3.195   0.668 -0.3296  0.1952  0.2831
 9771TIP3   OH250727   1.929   0.329   2.055  0.1244 -0.0842 -0.0960
 9771TIP3    H150728   1.839   0.359   2.067 -0.4607 -1.8801  0.3760
 9771TIP3    H250729   1.983   0.401   2.087 -1.1877  0.3158  1.3277
 9772TIP3   OH250730   0.982   4.822   5.786  0.4272  0.1214 -0.7869
 9772TIP3    H150731   0.987   4.727   5.778  1.9412  0.1142 -0.1137
 9772TIP3    H250732   1.007   4.840   5.876 -1.2950  1.0889 -0.4700
 9773TIP3   OH250733   5.120   1.929   2.819  0.2405  0.1230 -0.2496
 9773TIP3    H150734   5.080   1.915   2.904 -2.3723 -2.1704 -1.7117
 9773TIP3    H250735   5.201   1.976   2.838  0.9685 -2.3121  3.6859
 9774TIP3   OH250736   6.784   2.146   0.816  0.1071 -0.1568 -0.2507
 9774TIP3    H150737   6.721   2.143   0.744  1.6850 -0.5412 -1.6766
 9774TIP3    H250738   6.801   2.239   0.829 -0.2943 -0.0792 -0.2571
 9775TIP3   OH250739   5.311   5.238   3.465  0.6197 -0.1637 -0.0207
 9775TIP3    H150740   5.259   5.195   3.533 -1.3623  0.3954 -1.1156
 9775TIP3    H250741   5.349   5.315   3.509 -0.5380  0.1338  0.4902
 9776TIP3   OH250742   6.339   6.214   3.195  0.0405 -0.5041 -0.5298
 9776TIP3    H150743   6.313   6.204   3.287  2.2071  0.6264  0.2712
 9776TIP3    H250744   6.398   6.140   3.179  1.2310  0.3961 -0.3769
 9777TIP3   OH250745   0.410   5.975   2.605  0.9608 -0.2405  0.2619
 9777TIP3    H150746   0.393   5.965   2.698 -2.5433 -2.5039 -0.4545
 9777TIP3    H250747   0.362   6.054   2.580 -0.2391 -1.0246  0.0038
 9778TIP3   OH250748   1.598   0.032  14.933 -0.1766 -0.5743  0.2596
 9778TIP3    H150749   1.521   0.088  14.921 -0.2614 -0.6098  0.6211
 9778TIP3    H250750   1.667   0.091  14.964  0.1652 -0.4047 -0.7974
 9779TIP3   OH250751   5.310   1.428   5.015  0.4152 -0.2006 -0.3213
 9779TIP3    H150752   5.238   1.475   4.973  0.4898  0.4563  0.2828
 9779TIP3    H250753   5.388   1.480   4.995  0.4512  0.1197  0.6295
 9780TIP3   OH250754   2.549   2.082  12.595 -0.2243 -0.0762  0.2250
 9780TIP3    H150755   2.561   2.173  12.624 -1.7940  0.6842 -1.3789
 9780TIP3    H250756   2.539   2.088  12.500 -0.0237 -1.9943  0.0444
 9781TIP3   OH250757   4.079   3.543  12.744 -0.4385 -0.5762 -0.0335
 9781TIP3    H150758   4.092   3.497  12.827  0.4434 -0.0671  0.1201
 9781TIP3    H250759   4.086   3.475  12.677  0.6919 -0.7032  0.2011
 9782TIP3   OH250760   3.194   2.988  16.878  0.3032  0.3331  0.0737
 9782TIP3    H150761   3.216   3.080  16.892 -1.4738  0.8273 -0.2384
 9782TIP3    H250762   3.180   2.981  16.784 -1.1210  0.1269  0.2812
 9783TIP3   OH250763   6.054   5.698  12.690  0.0642  0.3442 -0.0513
 9783TIP3    H150764   6.124   5.656  12.741  0.8862  0.0512 -1.3725
 9783TIP3    H250765   6.078   5.682  12.599 -0.9212  1.5839 -0.5552
 9784TIP3   OH250766   3.630   5.331   3.000 -0.1859 -0.6045  0.0977
 9784TIP3    H150767   3.579   5.401   3.041  0.2024 -0.0982 -0.2742
 9784TIP3    H250768   3.567   5.286   2.944 -0.4824 -0.6744  0.4808
 9785TIP3   OH250769   2.629   5.908   1.816  0.1898  0.1620  0.7096
 9785TIP3    H150770   2.690   5.940   1.750  2.0582 -0.2712  2.1463
 9785TIP3    H250771   2.612   5.817   1.790 -2.0398  1.0231 -1.1760
 9786TIP3   OH250772   4.680   2.093  11.835  0.3314 -0.6213  0.1134
 9786TIP3    H150773   4.685   1.999  11.853  0.3676 -0.6815 -0.2107
 9786TIP3    H250774   4.600   2.104  11.784 -0.3723 -0.2935  1.2596
 9787TIP3   OH250775   5.560   1.199  13.462  0.7081 -0.1190  0.0362
 9787TIP3    H150776   5.498   1.219  13.532  0.1353  0.7773 -0.6928
 9787TIP3    H250777   5.592   1.111  13.481  1.5086  0.5660  2.1025
 9788TIP3   OH250778   4.065   3.909  10.670 -0.2758  0.0770 -0.2490
 9788TIP3    H150779   3.995   3.973  10.683  0.2124  0.2717  1.9521
 9788TIP3    H250780   4.128   3.953  10.613 -0.5437  1.0839  0.2018
 9789TIP3   OH250781   6.112   1.846  14.764 -0.7859  0.0540 -0.1976
 9789TIP3    H150782   6.049   1.908  14.801  0.1552 -0.5040  2.5503
 9789TIP3    H250783   6.090   1.763  14.806  0.3092 -0.6794 -1.0285
 9790TIP3   OH250784   2.480   6.711   0.414  0.9016  0.0319 -0.0347
 9790TIP3    H150785   2.435   6.775   0.359  2.0385  0.8454 -0.0473
 9790TIP3    H250786   2.507   6.760   0.491  0.4864 -0.7943  0.6571
 9791TIP3   OH250787   0.571   4.972   3.616 -0.4430 -0.3445 -0.4113
 9791TIP3    H150788   0.535   4.954   3.703  0.6934 -0.5761  0.0314
 9791TIP3    H250789   0.652   5.019   3.634  1.0961 -2.5179 -1.2084
 9792TIP3   OH250790   5.005   4.315  16.656 -0.0509  0.2421  1.0469
 9792TIP3    H150791   4.969   4.398  16.625 -2.3246 -0.7543  0.8453
 9792TIP3    H250792   5.069   4.290  16.588 -1.4944  0.4206 -0.4370
 9793TIP3   OH250793   5.119   4.825   6.377 -0.5876  0.3329 -0.0187
 9793TIP3    H150794   5.027   4.826   6.351 -0.0364 -0.4024 -2.2022
 9793TIP3    H250795   5.140   4.732   6.386  0.1714  0.4600 -0.4449
 9794TIP3   OH250796   1.642   6.793   4.765  0.3039  0.4492  1.0104
 9794TIP3    H150797   1.635   6.864   4.829 -0.5355  0.6735  0.6813
 9794TIP3    H250798   1.581   6.817   4.696  1.0960  0.1346  0.1878
 9795TIP3   OH250799   1.564   5.884  12.355  0.1044 -0.8029 -0.1822
 9795TIP3    H150800   1.533   5.913  12.269  1.2857  2.4474  0.3658
 9795TIP3    H250801   1.657   5.867  12.342  0.1861 -0.7791  0.3687
 9796TIP3   OH250802   5.343   1.313   4.163  0.5192  0.3524  0.3961
 9796TIP3    H150803   5.291   1.376   4.213  0.9683  0.3752  0.8411
 9796TIP3    H250804   5.331   1.339   4.072 -1.7042 -0.7341  0.3225
 9797TIP3   OH250805   5.088   0.140   2.176  0.3000  0.0842  0.0966
 9797TIP3    H150806   5.031   0.076   2.219  1.1741 -0.2513  0.7957
 9797TIP3    H250807   5.146   0.087   2.121 -1.4058  0.5611 -2.3316
 9798TIP3   OH250808   2.165   5.566   2.171  0.0989 -0.3988 -0.4162
 9798TIP3    H150809   2.244   5.554   2.223 -0.4807  0.8188  0.8122
 9798TIP3    H250810   2.133   5.477   2.155 -0.7490 -0.8683  3.0459
 9799TIP3   OH250811   3.679   6.410  10.573  0.0281  0.5063 -0.3091
 9799TIP3    H150812   3.636   6.466  10.508  1.8609  1.5308 -0.7197
 9799TIP3    H250813   3.751   6.369  10.524 -1.6359 -2.8622 -0.2265
 9800TIP3   OH250814   1.675   1.308  10.516 -0.0452 -0.2316  0.5244
 9800TIP3    H150815   1.693   1.400  10.536  1.7015 -0.3926 -0.1080
 9800TIP3    H250816   1.630   1.311  10.431  2.8914 -0.0064 -1.1764
 9801TIP3   OH250817   5.654   4.997  13.250  0.7917 -0.2633 -0.2031
 9801TIP3    H150818   5.646   5.048  13.170 -0.4992 -0.9408 -0.5251
 9801TIP3    H250819   5.646   5.062  13.321 -0.7864  0.0253 -0.6026
 9802TIP3   OH250820   5.324   0.630   2.402  0.0114  0.1944  0.1104
 9802TIP3    H150821   5.378   0.620   2.323  0.0228 -2.8932  0.3904
 9802TIP3    H250822   5.380   0.676   2.464  2.6036 -3.0217  0.4458
 9803TIP3   OH250823   3.789   2.768   4.518  0.0846 -0.1551 -0.0932
 9803TIP3    H150824   3.821   2.692   4.568 -0.0670 -1.6524 -2.1286
 9803TIP3    H250825   3.693   2.761   4.524  0.0593 -0.5998 -0.9205
 9804TIP3   OH250826   1.011   4.524   1.332 -0.2940 -0.1519 -0.3732
 9804TIP3    H150827   0.993   4.583   1.260 -1.1298 -0.3839 -0.3636
 9804TIP3    H250828   1.077   4.463   1.298  1.0181  1.1027 -0.2003
 9805TIP3   OH250829   3.534   1.487   4.021 -0.3144 -0.1798  0.3309
 9805TIP3    H150830   3.488   1.424   4.075 -0.9487 -1.3223 -1.4437
 9805TIP3    H250831   3.570   1.435   3.949  1.3294  1.1223  0.1526
 9806TIP3   OH250832   4.468   4.953   1.002  0.7024  0.7286  0.0318
 9806TIP3    H150833   4.509   5.019   0.946  0.1839 -0.3916 -1.7343
 9806TIP3    H250834   4.437   4.886   0.942 -1.5311  0.3312  1.5029
 9807TIP3   OH250835   6.213   4.964  15.359  0.0547  0.6845  0.4572
 9807TIP3    H150836   6.257   4.893  15.405  1.4000  1.6600  0.7690
 9807TIP3    H250837   6.156   5.003  15.424  0.9856  1.2498  0.9665
 9808TIP3   OH250838   0.032   1.081  11.294 -0.0501  0.5491 -0.1479
 9808TIP3    H150839   0.125   1.061  11.297 -0.2806 -0.5900  0.2184
 9808TIP3    H250840   0.020   1.134  11.216  0.5636 -1.2592 -1.5242
 9809TIP3   OH250841   6.466   0.045  16.506  0.4340  0.4745 -0.0850
 9809TIP3    H150842   6.513   0.077  16.584  0.0600  0.5936  0.0939
 9809TIP3    H250843   6.505  -0.040  16.488 -2.0566 -1.4370  2.5960
 9810TIP3   OH250844   4.719   2.508  13.323  0.2236  0.2794 -0.5180
 9810TIP3    H150845   4.754   2.550  13.402  0.5659  0.1178 -0.5819
 9810TIP3    H250846   4.665   2.575  13.282  0.0597  0.3702 -0.1553
 9811TIP3   OH250847   6.629   3.218  11.281  0.0084 -0.2787 -0.0732
 9811TIP3    H150848   6.564   3.209  11.211  0.0029 -1.3545  0.0542
 9811TIP3    H250849   6.711   3.193  11.240  0.1125 -0.2748  0.1348
 9812TIP3   OH250850   0.090   6.507  16.342 -0.4040  0.0419  0.2126
 9812TIP3    H150851   0.102   6.467  16.428 -0.8543  1.5481  0.9958
 9812TIP3    H250852   0.064   6.434  16.286  1.2803 -1.2380  0.9841
 9813TIP3   OH250853   1.365   3.799   1.001 -0.0303  0.3000  0.2128
 9813TIP3    H150854   1.396   3.717   0.963 -0.5919 -0.3850  1.1930
 9813TIP3    H250855   1.433   3.863   0.977  1.1915 -0.7578  0.7060
 9814TIP3   OH250856   4.617   0.533   4.553  0.0997  0.2582 -0.6689
 9814TIP3    H150857   4.525   0.516   4.533  0.0850  0.4086 -0.7265
 9814TIP3    H250858   4.665   0.467   4.503  0.1115  1.1011 -1.7851
 9815TIP3   OH250859   0.824   6.447  12.381  0.0182 -0.0614 -0.6010
 9815TIP3    H150860   0.850   6.454  12.473  0.2178 -1.8827 -0.4783
 9815TIP3    H250861   0.814   6.538  12.352 -1.8963  0.5956  1.7310
 9816TIP3   OH250862   4.220   6.053   2.368  0.7999  0.2444  0.4170
 9816TIP3    H150863   4.139   6.006   2.346 -0.8631  2.3452  1.7162
 9816TIP3    H250864   4.286   6.014   2.311 -1.4958 -0.3431 -2.0493
 9817TIP3   OH250865   6.045   6.088   1.617 -0.4644  0.1874 -0.0506
 9817TIP3    H150866   6.105   6.020   1.647  0.0498  0.9336  0.6659
 9817TIP3    H250867   5.963   6.043   1.600  0.2563 -0.8444 -0.9674
 9818TIP3   OH250868   3.178   4.543  16.765 -0.0986  0.1702 -0.3345
 9818TIP3    H150869   3.083   4.536  16.756  0.0677 -1.9594 -1.0224
 9818TIP3    H250870   3.193   4.634  16.789 -2.4072  0.2459  1.1513
 9819TIP3   OH250871   6.028   3.507   3.691 -0.3185  0.4082 -0.3399
 9819TIP3    H150872   5.975   3.528   3.768 -1.2840 -0.9601 -0.6045
 9819TIP3    H250873   6.091   3.441   3.722 -0.5910 -0.0123 -0.6694
 9820TIP3   OH250874   4.176   4.221  14.496  0.0341 -0.0977 -0.0872
 9820TIP3    H150875   4.249   4.282  14.506  1.2884 -1.1738 -2.0561
 9820TIP3    H250876   4.102   4.277  14.475  1.0735  0.8081 -1.5349
 9821TIP3   OH250877   4.810   5.216  16.185  0.2868 -0.3034 -0.1038
 9821TIP3    H150878   4.882   5.268  16.148 -0.3837 -0.2348 -1.3688
 9821TIP3    H250879   4.811   5.134  16.135  0.8576 -1.2441  1.3665
 9822TIP3   OH250880   4.095   3.132   5.323  0.0553  0.2869  0.4878
 9822TIP3    H150881   4.139   3.056   5.360 -0.2235 -0.0725  0.0968
 9822TIP3    H250882   4.136   3.143   5.236  0.5492  0.9827  0.7936
 9823TIP3   OH250883   6.039   4.399   0.762  0.7739 -0.2451 -0.5101
 9823TIP3    H150884   6.093   4.407   0.841 -0.3122  0.6557  0.1769
 9823TIP3    H250885   6.065   4.316   0.723  2.6326  0.1512 -0.2044
 9824TIP3   OH250886   2.673   4.206   5.116  0.0948  0.0012  0.0686
 9824TIP3    H150887   2.740   4.273   5.126  0.1341  0.0080 -0.2358
 9824TIP3    H250888   2.605   4.248   5.064 -0.3497  0.1383  0.7485
 9825TIP3   OH250889   1.799   3.192  10.654  0.4317  0.0989 -0.3423
 9825TIP3    H150890   1.713   3.200  10.697  1.2538  1.3098  1.1619
 9825TIP3    H250891   1.781   3.213  10.562 -0.9743 -0.2591 -0.1846
 9826TIP3   OH250892   4.581   0.047   2.029 -0.2368  0.7303  0.6650
 9826TIP3    H150893   4.524   0.111   1.987 -0.2055  0.8006  0.7282
 9826TIP3    H250894   4.555  -0.037   1.992 -0.6665  0.7119  1.0108
 9827TIP3   OH250895   5.009   1.845  15.409 -0.0722 -0.2516  0.0084
 9827TIP3    H150896   4.980   1.851  15.500  1.1929 -0.8613  0.4739
 9827TIP3    H250897   5.081   1.782  15.411  1.9209  1.8530 -0.9312
 9828TIP3   OH250898   1.328   5.295  14.101 -0.3058 -0.3658 -0.8117
 9828TIP3    H150899   1.364   5.379  14.129 -1.6654 -0.1430  0.4146
 9828TIP3    H250900   1.353   5.287  14.009  0.3201  1.1093 -0.7947
 9829TIP3   OH250901   3.555   2.003  14.132 -0.1338 -0.3155  0.5861
 9829TIP3    H150902   3.546   1.949  14.210  0.4777 -1.3086 -0.0139
 9829TIP3    H250903   3.604   1.949  14.070  2.2226  1.5945  0.6366
 9830TIP3   OH250904   1.283   1.677  11.361 -0.2246 -0.5334 -0.1675
 9830TIP3    H150905   1.230   1.716  11.430  1.3548 -0.4938  1.0910
 9830TIP3    H250906   1.371   1.672  11.398  0.5974 -0.9205 -2.0294
 9831TIP3   OH250907   0.051   5.965   1.699 -0.3691 -0.1998  1.0236
 9831TIP3    H150908   0.117   6.022   1.660 -1.3782  0.9863  0.9877
 9831TIP3    H250909   0.054   5.984   1.792 -1.3178  0.5942  0.9068
 9832TIP3   OH250910   2.775   6.002   2.321 -0.5467  0.3529 -0.2018
 9832TIP3    H150911   2.733   5.947   2.255  0.5200 -0.2337 -0.4214
 9832TIP3    H250912   2.845   6.047   2.273  0.0455  0.1565  0.4574
 9833TIP3   OH250913   2.891   6.291  16.724 -0.0865 -0.6657  0.2048
 9833TIP3    H150914   2.986   6.283  16.711  0.1875 -0.4092  1.8699
 9833TIP3    H250915   2.873   6.384  16.718 -0.1909 -0.6908  0.1255
 9834TIP3   OH250916   0.077   2.620  12.580 -0.0265 -0.1473  0.3053
 9834TIP3    H150917   0.019   2.554  12.541  0.5711 -0.7093  0.3417
 9834TIP3    H250918   0.026   2.701  12.576 -1.0824 -0.7471  0.9505
 9835TIP3   OH250919   1.239   0.653   5.087 -0.1104  0.0995  0.4497
 9835TIP3    H150920   1.283   0.737   5.079 -0.6507  0.3025 -0.6210
 9835TIP3    H250921   1.309   0.588   5.081  0.0325  0.3849 -1.9615
 9836TIP3   OH250922   0.029   3.182   0.934 -0.0729  0.2281  0.8523
 9836TIP3    H150923   0.012   3.187   0.840 -1.6227 -1.3079  0.9964
 9836TIP3    H250924  -0.052   3.212   0.976 -0.5786 -2.0164  1.6261
 9837TIP3   OH250925   1.181   5.370  12.327  0.3439  0.5383 -0.4466
 9837TIP3    H150926   1.192   5.275  12.339  2.4449  0.4910 -2.1557
 9837TIP3    H250927   1.097   5.389  12.369 -1.2374 -2.4498 -1.8642
 9838TIP3   OH250928   6.072   0.987   1.996 -0.2558 -0.3087  0.0542
 9838TIP3    H150929   6.035   0.928   2.060 -3.9434  1.3442 -0.3109
 9838TIP3    H250930   6.060   0.942   1.912 -0.4144 -0.2356  0.0375
 9839TIP3   OH250931   6.368   3.359  15.393  0.0892  0.1519  0.1519
 9839TIP3    H150932   6.353   3.410  15.313  0.1494  1.5191  0.9658
 9839TIP3    H250933   6.324   3.410  15.461 -1.0881 -1.6654  0.8091
 9840TIP3   OH250934   1.852   6.566   0.376 -0.5588  0.2846  0.9386
 9840TIP3    H150935   1.801   6.582   0.456 -0.3470 -0.8650  1.3171
 9840TIP3    H250936   1.833   6.475   0.353  0.9459 -0.0150  0.8134
 9841TIP3   OH250937   6.573   1.895   0.329 -0.0525  0.0756  0.2014
 9841TIP3    H150938   6.605   1.874   0.417 -0.1531  0.9335  0.4512
 9841TIP3    H250939   6.586   1.814   0.279  0.5534 -0.2386  0.8481
 9842TIP3   OH250940   5.103   3.917   6.279  0.2243 -0.2212 -0.9536
 9842TIP3    H150941   5.085   3.833   6.237 -0.5659 -1.0695  0.9617
 9842TIP3    H250942   5.079   3.903   6.371 -0.6752  2.3396 -0.7348
 9843TIP3   OH250943   2.267   3.896  10.597  0.0614 -0.2309 -0.0663
 9843TIP3    H150944   2.362   3.884  10.606  0.5987  3.6280  1.4153
 9843TIP3    H250945   2.230   3.856  10.676  0.9859  1.7461  1.4534
 9844TIP3   OH250946   1.356   3.941  12.607 -0.1831 -0.0078 -0.5580
 9844TIP3    H150947   1.315   4.027  12.597 -0.0108 -0.1095 -2.7592
 9844TIP3    H250948   1.309   3.901  12.680  0.0074  2.0692  0.7939
 9845TIP3   OH250949   2.611   4.170  15.854 -0.6030  0.3214  0.3601
 9845TIP3    H150950   2.617   4.092  15.799  0.2266 -1.0200  2.2624
 9845TIP3    H250951   2.701   4.204  15.859 -1.0354  1.7622 -0.8848
 9846TIP3   OH250952   2.048   0.724  11.184  0.1591 -0.4893  0.2150
 9846TIP3    H150953   1.953   0.735  11.194  0.0172  0.3658 -1.7217
 9846TIP3    H250954   2.058   0.665  11.110  1.1414 -0.2960  0.1797
 9847TIP3   OH250955   3.338   1.347  17.069  0.6796 -0.3374  0.3542
 9847TIP3    H150956   3.407   1.407  17.042 -0.2048  1.0005  0.9475
 9847TIP3    H250957   3.372   1.305  17.148  1.3648 -0.7607 -0.1526
 9848TIP3   OH250958   0.056   4.195   5.727 -0.2744  0.0003 -0.1875
 9848TIP3    H150959   0.027   4.122   5.781 -0.4240  0.9125  0.9982
 9848TIP3    H250960   0.030   4.274   5.775  1.2316  0.8555 -0.6753
 9849TIP3   OH250961   5.977   5.601  13.133  0.7293 -0.1194 -1.0869
 9849TIP3    H150962   5.972   5.505  13.134  0.3875 -0.1253  0.5065
 9849TIP3    H250963   6.066   5.620  13.162  0.8335  0.0472 -1.5133
 9850TIP3   OH250964   4.080   2.547   4.639 -0.2644 -0.7506 -0.4021
 9850TIP3    H150965   4.079   2.475   4.576 -0.2401 -0.9013 -0.2315
 9850TIP3    H250966   4.086   2.504   4.724  0.6032 -0.5219 -0.3384
 9851TIP3   OH250967   1.486   2.853   0.484 -1.0903 -0.2198  0.0560
 9851TIP3    H150968   1.532   2.770   0.496  1.1502  0.8169 -0.6507
 9851TIP3    H250969   1.395   2.834   0.507 -0.6507 -2.8178 -0.0055
 9852TIP3   OH250970   0.442   1.677  15.275 -0.0473  0.3755  0.6540
 9852TIP3    H150971   0.390   1.742  15.228  0.7432  1.2789  1.0044
 9852TIP3    H250972   0.487   1.727  15.344  0.0317 -0.6567  1.3818
 9853TIP3   OH250973   6.447   0.456   0.819  0.2776  0.1488  1.0426
 9853TIP3    H150974   6.484   0.387   0.763  1.3377 -0.6501  2.6490
 9853TIP3    H250975   6.394   0.509   0.760 -0.3483 -1.8690 -0.3185
 9854TIP3   OH250976   5.952   2.728  15.176 -0.4823 -0.0181  0.1840
 9854TIP3    H150977   6.019   2.777  15.224 -0.7707 -0.4591  1.0382
 9854TIP3    H250978   5.926   2.658  15.235  0.7026 -1.9166 -1.4352
 9855TIP3   OH250979   0.428   2.828   1.973 -0.2023 -0.5406  0.0989
 9855TIP3    H150980   0.347   2.874   1.950  0.2399  0.7216  0.9732
 9855TIP3    H250981   0.490   2.853   1.904  0.0085  0.1284  0.5188
 9856TIP3   OH250982   2.717   1.720   5.599 -0.7575  0.5438  0.7632
 9856TIP3    H150983   2.677   1.698   5.682 -1.0970 -1.3111  0.1478
 9856TIP3    H250984   2.721   1.637   5.551  0.2571  1.3954 -0.7116
 9857TIP3   OH250985   3.780   5.602   1.594  0.4598  0.2083 -1.3290
 9857TIP3    H150986   3.818   5.680   1.633 -4.3718  1.3370  1.9091
 9857TIP3    H250987   3.722   5.634   1.525 -1.5286 -0.3558 -0.0100
 9858TIP3   OH250988   6.805   6.794  15.127 -0.2430 -0.2455  0.1777
 9858TIP3    H150989   6.893   6.801  15.091  0.0363 -0.3726  0.8028
 9858TIP3    H250990   6.770   6.714  15.088  0.2096 -0.6111  0.5033
 9859TIP3   OH250991   5.074   3.579   1.250 -0.2466  0.5483 -0.5238
 9859TIP3    H150992   5.091   3.643   1.181 -0.2535  2.0474  0.8062
 9859TIP3    H250993   4.982   3.592   1.272 -0.6834 -1.0178 -1.2708
 9860TIP3   OH250994   5.021   6.229  14.576 -0.2474  0.2217 -0.6694
 9860TIP3    H150995   5.008   6.212  14.670 -1.1811 -0.1782 -0.8687
 9860TIP3    H250996   4.957   6.174  14.532  0.1850  0.4076 -1.5545
 9861TIP3   OH250997   5.061   6.800   1.402  0.4528  0.0415  0.4847
 9861TIP3    H150998   5.096   6.889   1.412 -0.5900  0.6380 -0.8574
 9861TIP3    H250999   5.137   6.743   1.414  1.1750  1.1140  1.1917
 9862TIP3   OH251000   1.829   0.454   6.428  0.0895  0.4428 -0.1896
 9862TIP3    H151001   1.765   0.395   6.387  1.3338 -1.0475 -0.0775
 9862TIP3    H251002   1.906   0.448   6.372  0.1975  2.1338 -0.2639
 9863TIP3   OH251003   0.152   3.852   2.809  0.1181 -0.0499  0.1575
 9863TIP3    H151004   0.116   3.884   2.726 -0.0965 -0.4466  0.0927
 9863TIP3    H251005   0.211   3.781   2.783  2.3665  1.7451  0.1175
 9864TIP3   OH251006   6.032   3.818   3.397  0.3304 -0.0017 -0.1239
 9864TIP3    H151007   5.966   3.882   3.371  0.9781  0.0321 -1.8260
 9864TIP3    H251008   6.008   3.794   3.486 -2.3417 -0.4331 -0.8642
 9865TIP3   OH251009   6.726   4.622  10.496 -0.3628 -0.2117 -0.3454
 9865TIP3    H151010   6.648   4.650  10.448 -0.4414 -0.5515 -0.4201
 9865TIP3    H251011   6.799   4.651  10.442 -0.4050  0.9923  0.2105
 9866TIP3   OH251012   6.298   4.038  11.284 -0.2371  0.0576 -0.2222
 9866TIP3    H151013   6.376   4.055  11.230  0.4717  0.5810  0.9441
 9866TIP3    H251014   6.272   3.949  11.260  0.9763 -0.2908 -0.3137
 9867TIP3   OH251015   5.636   1.519  12.948 -0.0945  0.4653 -0.6740
 9867TIP3    H151016   5.707   1.509  13.011 -1.4811  0.4454  0.9257
 9867TIP3    H251017   5.647   1.446  12.887  0.3197 -0.4698  0.4892
 9868TIP3   OH251018   5.241   3.137   4.867  0.2963  0.3352 -0.1786
 9868TIP3    H151019   5.258   3.102   4.780  1.1440 -0.1920  0.1826
 9868TIP3    H251020   5.182   3.073   4.907  0.0898  0.4582 -0.2865
 9869TIP3   OH251021   0.851   5.323  16.695  0.0356  0.2471  0.1194
 9869TIP3    H151022   0.788   5.282  16.755 -0.0131  1.7172  1.1041
 9869TIP3    H251023   0.934   5.278  16.714 -0.4554 -0.9403 -0.4179
 9870TIP3   OH251024   0.661   0.209  12.940 -0.0145  0.0808 -0.1958
 9870TIP3    H151025   0.569   0.195  12.963 -0.1246 -0.0297 -0.6880
 9870TIP3    H251026   0.670   0.305  12.937  0.0670  0.0982  0.5496
 9871TIP3   OH251027   1.036   2.961  15.767  0.0334  0.0885  0.3347
 9871TIP3    H151028   0.988   3.017  15.828  0.8729  0.0637  1.0239
 9871TIP3    H251029   1.122   2.951  15.806  0.4663 -0.2299 -0.6806
 9872TIP3   OH251030   1.251   5.573   0.869 -0.1555  0.5804 -0.6865
 9872TIP3    H151031   1.250   5.525   0.952  1.2128 -1.4645 -1.7747
 9872TIP3    H251032   1.276   5.662   0.893  1.4389 -0.2605  0.9872
 9873TIP3   OH251033   2.423   1.099  14.115 -0.2562 -0.4162  0.4162
 9873TIP3    H151034   2.471   1.173  14.076  0.6421 -0.9691  0.4422
 9873TIP3    H251035   2.339   1.136  14.142 -0.9315 -0.0062 -2.0553
 9874TIP3   OH251036   5.810   4.956  13.665 -0.2649  0.4128  0.0166
 9874TIP3    H151037   5.732   4.902  13.653 -0.4804  0.3422  1.5814
 9874TIP3    H251038   5.779   5.034  13.711  0.6340  0.1819  1.0648
 9875TIP3   OH251039   3.339   4.908  11.473 -0.1967  0.0470  0.0920
 9875TIP3    H151040   3.377   4.881  11.389 -0.2330  1.1625 -0.2960
 9875TIP3    H251041   3.267   4.846  11.487  0.1265 -0.4682 -0.4416
 9876TIP3   OH251042   5.412   5.039   0.317  0.1379 -0.2568  0.0068
 9876TIP3    H151043   5.319   5.041   0.339 -0.1492 -2.7635 -0.6821
 9876TIP3    H251044   5.414   5.043   0.221  0.7745  0.1982  0.0325
 9877TIP3   OH251045   5.319   3.565  11.156  0.4106 -0.3962 -0.7167
 9877TIP3    H151046   5.401   3.612  11.176 -0.9434  2.2064 -0.7906
 9877TIP3    H251047   5.334   3.528  11.069  1.5820 -0.0819 -0.6717
 9878TIP3   OH251048   3.401   2.804   3.534  0.0336  0.3196  0.5523
 9878TIP3    H151049   3.368   2.892   3.549 -0.1912  0.1813  0.8791
 9878TIP3    H251050   3.451   2.782   3.613 -0.5200 -0.1187  0.7875
 9879TIP3   OH251051   3.185   5.777  16.509  0.0940 -0.2945  0.3280
 9879TIP3    H151052   3.203   5.852  16.565 -0.2788  0.3088 -0.3357
 9879TIP3    H251053   3.266   5.726  16.510  0.4408  0.2479  0.5928
 9880TIP3   OH251054   3.486   2.875   1.761  0.4531 -0.3067  0.1785
 9880TIP3    H151055   3.574   2.856   1.795  0.4212  0.2334  0.5633
 9880TIP3    H251056   3.476   2.814   1.688  0.3799 -1.7678  1.3380
 9881TIP3   OH251057   6.148   1.437   4.683 -0.6529 -0.3944  0.4891
 9881TIP3    H151058   6.206   1.362   4.678 -1.0418 -0.8413  2.2066
 9881TIP3    H251059   6.079   1.418   4.619  1.3807  0.5234 -2.1967
 9882TIP3   OH251060   6.662   2.768   1.249 -0.2352  0.2126 -0.1914
 9882TIP3    H151061   6.621   2.855   1.255  0.2428  0.4177  0.1556
 9882TIP3    H251062   6.723   2.765   1.322  0.2533 -0.1535 -0.6029
 9883TIP3   OH251063   5.518   4.956  11.338  0.5336 -0.5143 -0.6127
 9883TIP3    H151064   5.557   4.972  11.251 -2.6613  2.2784 -1.7309
 9883TIP3    H251065   5.432   4.919  11.319  0.0035 -0.4310  1.4144
 9884TIP3   OH251066   0.253   1.732  14.840  0.4062  0.1865  0.3631
 9884TIP3    H151067   0.314   1.671  14.882  0.2433 -0.3968 -0.2305
 9884TIP3    H251068   0.295   1.756  14.758 -0.8016 -1.4199 -0.7885
 9885TIP3   OH251069   4.084   3.817  14.630  0.2477  0.0501  0.3470
 9885TIP3    H151070   4.133   3.740  14.600  1.0505  0.5324  0.3674
 9885TIP3    H251071   4.012   3.826  14.567  0.1246 -0.7330  0.3687
 9886TIP3   OH251072   1.297   2.696   1.538  0.3145 -0.3921 -0.5521
 9886TIP3    H151073   1.308   2.690   1.633  0.7075  1.9244 -0.4023
 9886TIP3    H251074   1.383   2.724   1.506 -0.2248  0.3009 -1.4155
 9887TIP3   OH251075   6.065   5.877   5.331  0.0217 -0.3312 -0.2426
 9887TIP3    H151076   6.140   5.842   5.379 -1.2082 -1.1051  1.1992
 9887TIP3    H251077   6.039   5.807   5.271 -0.6806 -0.8291  0.6128
 9888TIP3   OH251078   6.463   3.813   4.668  0.3513 -0.2195  0.2936
 9888TIP3    H151079   6.452   3.721   4.693  0.2926 -0.2846  0.0243
 9888TIP3    H251080   6.373   3.846   4.657  0.3970 -0.5306 -1.0923
 9889TIP3   OH251081   0.705   1.730   3.968 -0.4650  0.3400 -0.2865
 9889TIP3    H151082   0.764   1.758   4.038 -0.0498 -1.9956  0.3833
 9889TIP3    H251083   0.753   1.662   3.921 -1.9213 -0.3335 -0.8776
 9890TIP3   OH251084   1.223   3.912   3.814 -0.4274 -0.2129 -0.0895
 9890TIP3    H151085   1.244   3.897   3.906 -2.0399 -0.8686  0.1891
 9890TIP3    H251086   1.303   3.951   3.778  0.3626 -0.2987  1.4840
 9891TIP3   OH251087   1.345   2.018  12.900 -0.0795 -0.1364 -0.5778
 9891TIP3    H151088   1.277   1.984  12.841  0.8860 -0.4891 -1.5163
 9891TIP3    H251089   1.303   2.092  12.945 -1.5227 -1.1887 -0.1039
 9892TIP3   OH251090   2.854   2.755   3.505  0.9142  0.3295  0.2768
 9892TIP3    H151091   2.912   2.829   3.520  0.6741  0.2519  1.7053
 9892TIP3    H251092   2.859   2.739   3.410  2.3042  1.0471  0.2108
 9893TIP3   OH251093   6.036   6.789   3.170  0.1607 -0.1766 -0.3468
 9893TIP3    H151094   6.062   6.734   3.096 -0.5397 -0.3600 -0.4676
 9893TIP3    H251095   6.097   6.767   3.240  2.2333  1.5502 -1.5038
 9894TIP3   OH251096   1.977   4.483  15.699  0.2516  0.8074 -0.5073
 9894TIP3    H151097   2.015   4.430  15.629  0.4880  1.3592 -0.8044
 9894TIP3    H251098   1.923   4.548  15.653  0.4128  1.1765 -0.1832
 9895TIP3   OH251099   4.275   3.129   2.341 -0.0001 -0.2211 -0.0580
 9895TIP3    H151100   4.258   3.170   2.256  0.0434 -1.2767 -0.5830
 9895TIP3    H251101   4.371   3.134   2.351  0.0800 -0.8408 -0.4621
 9896TIP3   OH251102   3.565   2.009   5.839 -0.4543  0.2182  0.0291
 9896TIP3    H151103   3.610   2.022   5.756  0.8271 -0.6486  0.5404
 9896TIP3    H251104   3.473   2.026   5.821 -0.1943  0.0410 -1.5602
 9897TIP3   OH251105   2.493   4.605  16.503  0.3581 -0.1228  0.1583
 9897TIP3    H151106   2.411   4.576  16.542 -0.4598  1.3172 -0.4109
 9897TIP3    H251107   2.560   4.549  16.543 -0.9110 -1.5505  0.3984
 9898TIP3   OH251108   6.380   2.315  15.650  0.6658  0.3483  0.0166
 9898TIP3    H151109   6.403   2.223  15.642 -2.3644 -0.7576  2.1772
 9898TIP3    H251110   6.306   2.327  15.591  1.8643  1.8195 -1.2674
 9899TIP3   OH251111   4.330   1.822  14.784  0.4410  0.3387  0.4038
 9899TIP3    H151112   4.381   1.753  14.743 -1.1172 -0.3413 -0.4588
 9899TIP3    H251113   4.247   1.822  14.737 -1.1556  0.0631  3.0246
 9900TIP3   OH251114   5.966   0.590   3.543 -0.1508  0.2193 -0.0317
 9900TIP3    H151115   5.962   0.585   3.448  1.0380  0.3320 -0.1021
 9900TIP3    H251116   6.015   0.512   3.569 -1.3923 -0.3748  0.5773
 9901TIP3   OH251117   6.361   3.082  15.427  0.2969 -0.1294  0.1473
 9901TIP3    H151118   6.387   3.173  15.421  0.3496  0.0712  2.4965
 9901TIP3    H251119   6.348   3.067  15.520  2.2053 -3.0329  0.0905
 9902TIP3   OH251120   6.402   1.210  11.822  0.5615  0.0441 -0.3681
 9902TIP3    H151121   6.454   1.262  11.884  0.0428 -1.6573  1.6068
 9902TIP3    H251122   6.453   1.130  11.810 -0.2402 -0.4338 -0.6569
 9903TIP3   OH251123   6.082   3.687   4.558  0.1537  0.2392  0.2340
 9903TIP3    H151124   6.021   3.717   4.491 -1.7965  0.2458  1.9154
 9903TIP3    H251125   6.134   3.765   4.580  0.1625  0.4678 -0.5845
 9904TIP3   OH251126   6.032   3.189  12.167 -0.4492  0.1639 -0.6070
 9904TIP3    H151127   6.035   3.284  12.158 -1.6719  0.0985 -2.1761
 9904TIP3    H251128   6.022   3.156  12.077 -0.8483 -1.4037 -0.0319
 9905TIP3   OH251129   2.175   1.630   3.974 -0.2005  0.0104  0.3805
 9905TIP3    H151130   2.193   1.620   4.068  2.6165 -1.0489 -0.1569
 9905TIP3    H251131   2.212   1.716   3.952 -0.6444  0.1520  0.1743
 9906TIP3   OH251132   3.673   3.323   3.281  0.1697  0.0589  0.3426
 9906TIP3    H151133   3.726   3.247   3.304 -1.5435 -1.6374 -1.0297
 9906TIP3    H251134   3.731   3.378   3.228  0.7873 -1.4311 -0.5796
 9907TIP3   OH251135   5.866   1.420  14.804 -0.0069 -0.5547  0.2593
 9907TIP3    H151136   5.807   1.468  14.862  0.0543 -0.4213  0.2104
 9907TIP3    H251137   5.924   1.486  14.767  0.1469 -0.6798  0.2743
 9908TIP3   OH251138   2.816   5.623   3.478 -0.5059  0.1310 -0.3860
 9908TIP3    H151139   2.780   5.708   3.502 -0.2818 -0.0442  0.6468
 9908TIP3    H251140   2.885   5.608   3.542  0.4599 -0.1759 -1.4662
 9909TIP3   OH251141   0.389   2.443  11.724 -0.0639 -0.2532 -0.1313
 9909TIP3    H151142   0.351   2.365  11.764 -0.3750 -0.4450 -0.7826
 9909TIP3    H251143   0.347   2.448  11.638 -0.1086  0.6758 -0.0665
 9910TIP3   OH251144   6.021   2.895   3.355 -0.4697  0.1488 -0.0386
 9910TIP3    H151145   6.003   2.894   3.449  0.0968  0.3101  0.0778
 9910TIP3    H251146   6.043   2.986   3.335  2.2174 -0.3299  0.2589
 9911TIP3   OH251147   3.790   0.448   1.787 -0.2925 -0.0592 -0.6828
 9911TIP3    H151148   3.813   0.426   1.877 -3.7297  0.6601  0.5327
 9911TIP3    H251149   3.837   0.529   1.769 -0.9705  0.8207  1.2303
 9912TIP3   OH251150   0.918   4.187  11.166 -0.6897  0.3668 -0.3646
 9912TIP3    H151151   0.838   4.184  11.113 -1.2907  1.3590  0.4426
 9912TIP3    H251152   0.888   4.172  11.255 -0.2573  2.4971  0.1965
 9913TIP3   OH251153   2.243   3.891  12.222 -0.1591  0.3426 -0.1747
 9913TIP3    H151154   2.283   3.804  12.222  1.0764  0.8831  0.6248
 9913TIP3    H251155   2.171   3.884  12.284 -0.1147 -0.1431 -0.1752
 9914TIP3   OH251156   0.812   2.702  13.256  0.2431 -0.1232  0.2052
 9914TIP3    H151157   0.769   2.617  13.262 -0.4194  0.1382 -0.7026
 9914TIP3    H251158   0.904   2.684  13.277  0.5991 -1.4967 -2.2214
 9915TIP3   OH251159   5.431   3.594   2.451 -0.2746  0.1770 -0.5713
 9915TIP3    H151160   5.502   3.533   2.472  0.7388  0.0922 -3.6614
 9915TIP3    H251161   5.456   3.675   2.495  0.3747 -0.5599  0.4818
 9916TIP3   OH251162   3.422   0.009  11.605  0.6478  0.1446  0.7376
 9916TIP3    H151163   3.338  -0.034  11.594  0.0782  1.0949  1.1936
 9916TIP3    H251164   3.473  -0.016  11.528  0.1410 -0.8664  0.7271
 9917TIP3   OH251165   3.150   6.367  13.387  0.2260 -0.2945 -0.3921
 9917TIP3    H151166   3.243   6.348  13.380  0.0719 -0.7096 -1.5549
 9917TIP3    H251167   3.107   6.284  13.365 -0.4278 -1.0030  3.0401
 9918TIP3   OH251168   1.754   4.428  12.076 -0.6484  0.1453  0.3327
 9918TIP3    H151169   1.708   4.371  12.137 -1.3026  0.5620  0.2319
 9918TIP3    H251170   1.846   4.401  12.083 -0.5223  0.9102  2.3375
 9919TIP3   OH251171   3.362   5.922  16.984 -0.3244 -0.0585 -0.4825
 9919TIP3    H151172   3.438   5.979  16.977 -0.9336  0.6238 -1.9981
 9919TIP3    H251173   3.309   5.961  17.054 -0.1883  0.5778 -0.7286
 9920TIP3   OH251174   2.478   1.715  13.834  0.1414 -0.0177  0.0775
 9920TIP3    H151175   2.524   1.652  13.778  1.0157  0.0392  0.7120
 9920TIP3    H251176   2.430   1.661  13.897  0.4471 -0.0557  0.2767
 9921TIP3   OH251177   6.708   3.032  14.307 -0.2566  0.1159  0.2924
 9921TIP3    H151178   6.661   3.114  14.321  0.0313  0.3743 -0.2189
 9921TIP3    H251179   6.799   3.053  14.328  0.0755  0.3433 -1.2751
 9922TIP3   OH251180   6.243   0.556   2.189 -0.0919  0.4335  0.4519
 9922TIP3    H151181   6.195   0.608   2.125 -1.8597  0.8737  2.0349
 9922TIP3    H251182   6.326   0.604   2.201  0.4061  0.1816 -1.6308
 9923TIP3   OH251183   4.743   4.508   1.889 -0.1329 -0.3294  0.4906
 9923TIP3    H151184   4.751   4.454   1.811  0.7820 -1.2439  1.1978
 9923TIP3    H251185   4.666   4.563   1.872  0.3583 -0.1143 -1.2691
 9924TIP3   OH251186   5.476   3.640  15.538  0.4162 -0.3365 -0.0898
 9924TIP3    H151187   5.571   3.644  15.552  0.5426 -0.1771 -0.9010
 9924TIP3    H251188   5.439   3.689  15.611  0.9522 -0.4939  0.2963
 9925TIP3   OH251189   1.675   2.895   2.778  0.6730  0.9091  0.5921
 9925TIP3    H151190   1.622   2.917   2.855  0.3243  0.6766  0.4203
 9925TIP3    H251191   1.719   2.977   2.755 -0.4396  1.3857  0.0984
 9926TIP3   OH251192   5.875   0.672  11.602  0.1050  0.1023  0.0902
 9926TIP3    H151193   5.927   0.710  11.673 -0.3029 -0.3172  0.6183
 9926TIP3    H251194   5.795   0.724  11.599  0.0158 -0.0336  0.0988
 9927TIP3   OH251195   5.481   2.556  13.762  0.3694 -0.3581 -0.3390
 9927TIP3    H151196   5.437   2.641  13.755  0.7079 -0.2268 -0.9034
 9927TIP3    H251197   5.553   2.572  13.822 -0.2830 -0.5508  0.5154
 9928TIP3   OH251198   5.392   6.489  17.129 -0.1717 -0.1529 -0.0279
 9928TIP3    H151199   5.385   6.540  17.209  0.5139  0.0571 -0.0953
 9928TIP3    H251200   5.415   6.553  17.062 -1.8564 -0.1297 -0.6369
 9929TIP3   OH251201   2.845   4.137  11.180  0.3592  0.0429 -0.6965
 9929TIP3    H151202   2.925   4.084  11.182 -0.6083 -1.4873  1.6339
 9929TIP3    H251203   2.868   4.216  11.228  0.5702 -0.3056 -0.2072
 9930TIP3   OH251204   1.756   0.100   2.104  0.2359  0.0820 -1.0074
 9930TIP3    H151205   1.816   0.144   2.164 -0.7829  0.6385 -0.3631
 9930TIP3    H251206   1.813   0.054   2.042  1.3139  0.4326 -0.3059
 9931TIP3   OH251207   6.563   1.105   4.460 -0.3687 -0.4089  0.2941
 9931TIP3    H151208   6.629   1.136   4.522 -1.4452  1.8099  0.3966
 9931TIP3    H251209   6.612   1.049   4.400  1.7852  1.6730 -0.0295
 9932TIP3   OH251210   0.476   6.598  13.370 -0.0191 -0.0214 -1.2595
 9932TIP3    H151211   0.467   6.504  13.388 -1.0868  0.3513  0.2950
 9932TIP3    H251212   0.406   6.617  13.308  0.4090 -0.3041 -1.8386
 9933TIP3   OH251213   2.538   1.944  16.782  0.4481 -0.4489  0.5637
 9933TIP3    H151214   2.512   1.998  16.707  1.4154  0.3170  0.7629
 9933TIP3    H251215   2.478   1.969  16.852  1.4002  0.9933  0.8975
 9934TIP3   OH251216   1.392   4.002   2.166 -0.0436 -0.5896 -0.7909
 9934TIP3    H151217   1.415   3.991   2.074  2.4555 -0.9899 -0.1820
 9934TIP3    H251218   1.331   4.076   2.167 -0.4474 -0.8534 -2.7932
 9935TIP3   OH251219   3.052   3.245  15.497 -0.4316  0.4855  0.0182
 9935TIP3    H151220   3.064   3.157  15.532 -3.6634 -0.1674 -0.1642
 9935TIP3    H251221   3.016   3.295  15.570  1.6616  1.8275  0.2089
 9936TIP3   OH251222   6.488   2.103   2.663  0.2354  0.2015  0.0271
 9936TIP3    H151223   6.429   2.060   2.601  0.5544  0.6322 -0.5852
 9936TIP3    H251224   6.517   2.182   2.618 -2.3786  2.5397  2.0739
 9937TIP3   OH251225   4.338   0.677   2.148 -0.2562 -0.1439 -0.2076
 9937TIP3    H151226   4.279   0.624   2.202 -1.2547  1.7803  0.7395
 9937TIP3    H251227   4.400   0.714   2.211  0.2853 -0.0252 -0.8065
 9938TIP3   OH251228   2.613   1.330   5.732 -0.3645 -0.2988  0.4359
 9938TIP3    H151229   2.612   1.345   5.826  0.0103 -2.4479  0.8206
 9938TIP3    H251230   2.521   1.337   5.706 -0.3060  1.8499  0.6419
 9939TIP3   OH251231   5.917   5.719   3.967  0.3109 -0.0004 -0.1210
 9939TIP3    H151232   5.914   5.649   3.902 -0.4553 -0.1714  0.0903
 9939TIP3    H251233   5.947   5.676   4.047  3.4942  0.6176 -0.8378
 9940TIP3   OH251234   0.671   1.039   3.617 -0.2060  0.2820  0.0724
 9940TIP3    H151235   0.731   1.002   3.552  0.1110 -1.1307  1.1251
 9940TIP3    H251236   0.611   1.093   3.566  1.6914  1.4493 -1.0842
 9941TIP3   OH251237   0.460   4.738   0.568  0.0315  0.0249 -0.0022
 9941TIP3    H151238   0.548   4.733   0.529 -0.7867  0.2776 -1.9944
 9941TIP3    H251239   0.468   4.688   0.649  2.0415  0.1093 -0.0804
 9942TIP3   OH251240   5.224   2.437  13.938 -0.0929  0.4772  0.0653
 9942TIP3    H151241   5.289   2.406  14.001  0.7188 -0.4632 -1.1758
 9942TIP3    H251242   5.141   2.435  13.987  0.6612  0.8663  1.4198
 9943TIP3   OH251243   4.893   4.131  14.311 -0.4287 -0.1215 -0.0941
 9943TIP3    H151244   4.929   4.210  14.352  0.3504  0.1320 -1.2324
 9943TIP3    H251245   4.820   4.107  14.368  0.7309  0.0879  1.5504
 9944TIP3   OH251246   6.307   2.362   2.541 -0.6301 -0.0798  0.7681
 9944TIP3    H151247   6.283   2.336   2.630  0.7099 -0.9233  0.8995
 9944TIP3    H251248   6.241   2.320   2.485 -0.9037 -0.3370  1.2807
 9945TIP3   OH251249   4.625   1.590  12.861 -0.1824  0.2676  0.3240
 9945TIP3    H151250   4.707   1.601  12.813  0.3990  0.9473  1.4242
 9945TIP3    H251251   4.563   1.557  12.796  1.0442 -0.6049 -0.4424
 9946TIP3   OH251252   3.086   1.789   0.606 -0.3765 -0.2850 -0.1141
 9946TIP3    H151253   3.102   1.714   0.664 -0.0404  0.0940  0.2954
 9946TIP3    H251254   3.036   1.753   0.533 -0.5988 -0.8228  0.2939
 9947TIP3   OH251255   5.947   5.006  11.090 -0.2451  0.3351  0.5891
 9947TIP3    H151256   5.935   4.946  11.164  1.7367  1.9420  2.3334
 9947TIP3    H251257   5.906   4.960  11.016 -0.3576 -2.3697  2.1725
 9948TIP3   OH251258   4.432   5.201   5.904  0.5616  0.0439  0.0805
 9948TIP3    H151259   4.456   5.152   5.983 -0.5727 -1.1722 -0.2852
 9948TIP3    H251260   4.474   5.153   5.832 -1.5046 -1.1643 -0.3983
 9949TIP3   OH251261   3.362   5.194  16.537  0.2681  0.3024 -0.5358
 9949TIP3    H151262   3.302   5.124  16.562 -0.6061  1.1475 -0.1826
 9949TIP3    H251263   3.381   5.177  16.445 -1.2658  0.5209 -0.9211
 9950TIP3   OH251264   1.127   6.411   0.656  0.3629 -0.1459  0.0793
 9950TIP3    H151265   1.087   6.476   0.714  0.3002 -0.3796  0.2987
 9950TIP3    H251266   1.136   6.457   0.572  1.9821  0.7399  0.7059
 9951TIP3   OH251267   4.263   2.571  13.039  0.1526 -0.4879  0.5391
 9951TIP3    H151268   4.253   2.614  13.124 -0.8953 -0.8649  0.6285
 9951TIP3    H251269   4.309   2.635  12.985  0.9715 -0.3006  1.4252
 9952TIP3   OH251270   4.206   2.870   3.352 -0.4947 -0.3895  0.3441
 9952TIP3    H151271   4.286   2.845   3.306 -0.6596  2.7411 -2.0420
 9952TIP3    H251272   4.137   2.863   3.286 -1.2119  1.8428  0.7718
 9953TIP3   OH251273   4.019   6.474  13.133  0.2740 -0.1681  0.4008
 9953TIP3    H151274   4.108   6.442  13.124 -0.1057 -1.5998  1.3806
 9953TIP3    H251275   3.995   6.454  13.223 -1.2654 -0.4741 -0.0310
 9954TIP3   OH251276   0.253   3.547  13.050 -0.8105  0.0213 -0.2960
 9954TIP3    H151277   0.205   3.628  13.032  0.9497  1.1533 -0.0210
 9954TIP3    H251278   0.292   3.560  13.136 -0.6864 -1.2279 -0.1435
 9955TIP3   OH251279   4.365   6.147  14.200 -0.0417  0.5457 -0.0800
 9955TIP3    H151280   4.306   6.121  14.129 -0.1402 -0.7637  0.4594
 9955TIP3    H251281   4.453   6.132  14.164 -0.0136  2.0784 -0.7245
 9956TIP3   OH251282   1.048   4.163   3.402 -0.2911 -0.3807  0.2239
 9956TIP3    H151283   1.078   4.160   3.493 -2.1772 -0.3234  0.8751
 9956TIP3    H251284   0.975   4.102   3.398 -1.0484  0.5652 -0.9460
 9957TIP3   OH251285   1.055   5.771  13.719 -0.3856 -0.3242 -0.5230
 9957TIP3    H151286   1.118   5.816  13.662 -0.0757  1.9196  1.4460
 9957TIP3    H251287   0.969   5.798  13.686 -0.3163 -1.4545 -1.7146
 9958TIP3   OH251288   4.770   0.529   0.892  0.8151 -0.2062  0.4711
 9958TIP3    H151289   4.744   0.550   0.982  0.6936 -0.3912  0.4786
 9958TIP3    H251290   4.843   0.469   0.902  0.9241 -0.0780  0.4467
 9959TIP3   OH251291   4.745   6.114  16.973 -0.4894  0.3575  0.0899
 9959TIP3    H151292   4.813   6.063  16.929 -1.0774  0.6732 -1.2279
 9959TIP3    H251293   4.669   6.106  16.916 -1.1725  1.0880  0.8816
 9960TIP3   OH251294   5.362   5.580   0.259  0.4971  0.2266  0.4181
 9960TIP3    H151295   5.273   5.577   0.225  0.7554 -2.1255 -0.2538
 9960TIP3    H251296   5.371   5.500   0.310  2.2888  0.2814  0.2748
 9961TIP3   OH251297   6.561   4.094   3.345 -0.4215  0.3624 -0.3804
 9961TIP3    H151298   6.592   4.165   3.401 -0.4625  1.2788 -1.4878
 9961TIP3    H251299   6.506   4.137   3.279 -0.4376 -0.6897 -1.0822
 9962TIP3   OH251300   6.046   1.250  14.675  0.2236 -0.3757  0.8126
 9962TIP3    H151301   5.973   1.281  14.729 -1.2949  0.7893 -1.7001
 9962TIP3    H251302   6.122   1.300  14.706 -0.7759  0.9394  1.2528
 9963TIP3   OH251303   3.211   6.502   0.503 -0.1291  0.7115  0.1899
 9963TIP3    H151304   3.291   6.552   0.522  1.7702 -1.6117 -1.1742
 9963TIP3    H251305   3.196   6.515   0.409 -0.2522 -0.3257  0.0508
 9964TIP3   OH251306   4.507   4.556  15.293 -0.0454 -0.4823 -0.5527
 9964TIP3    H151307   4.511   4.630  15.354  1.1970  0.1664 -1.3884
 9964TIP3    H251308   4.491   4.480  15.349 -1.3895  0.3886  0.3283
 9965TIP3   OH251309   2.234   4.440   1.905 -0.0956  0.3576  0.1786
 9965TIP3    H151310   2.270   4.352   1.907 -0.5266  0.1881  0.6092
 9965TIP3    H251311   2.148   4.432   1.947  0.1860  1.1297  0.9258
 9966TIP3   OH251312   0.766   5.583   1.521  0.1969 -0.1341  0.0807
 9966TIP3    H151313   0.704   5.628   1.578 -0.9935 -1.8754  0.2468
 9966TIP3    H251314   0.852   5.612   1.551 -0.4697  1.7679  0.3412
 9967TIP3   OH251315   5.565   4.370   4.449  0.5003 -0.3124 -0.3223
 9967TIP3    H151316   5.491   4.412   4.493 -0.8841  0.2583 -3.0040
 9967TIP3    H251317   5.639   4.428   4.466 -0.2726  0.5536  0.1816
 9968TIP3   OH251318   0.358   6.703   2.005  1.0850 -0.1080 -0.3092
 9968TIP3    H151319   0.351   6.708   1.910 -1.7769  0.8898 -0.1298
 9968TIP3    H251320   0.269   6.712   2.037  2.0443  0.5018  2.5421
 9969TIP3   OH251321   1.739   4.545   5.772 -0.0170 -0.1915  0.3355
 9969TIP3    H151322   1.745   4.464   5.722  0.8208 -1.0390  1.7375
 9969TIP3    H251323   1.645   4.562   5.781 -0.1990 -1.1292  0.2220
 9970TIP3   OH251324   0.766   5.733   2.269 -0.3413 -0.4756 -0.2051
 9970TIP3    H151325   0.680   5.749   2.230 -1.2490 -0.2569  1.7388
 9970TIP3    H251326   0.805   5.820   2.277 -0.1660 -0.5177 -0.5944
 9971TIP3   OH251327   5.692   6.677  10.817  0.0104  0.6746 -0.1454
 9971TIP3    H151328   5.680   6.583  10.829  0.4682  0.6742  0.3642
 9971TIP3    H251329   5.606   6.709  10.791 -0.0745  0.0716 -0.6414
 9972TIP3   OH251330   3.298   1.170   3.665  0.3423  0.2638 -0.2704
 9972TIP3    H151331   3.352   1.127   3.599  0.0687  1.8714 -1.6020
 9972TIP3    H251332   3.259   1.245   3.620  0.8701  1.9828  1.9261
 9973TIP3   OH251333   1.019   2.993  11.571 -0.1219 -0.5322  0.2672
 9973TIP3    H151334   1.021   3.016  11.664  1.6771 -0.6616  0.2881
 9973TIP3    H251335   1.066   3.064  11.528  0.1533 -1.1119 -0.3948
 9974TIP3   OH251336   2.553   2.949  14.151 -0.3858 -0.0529  0.4423
 9974TIP3    H151337   2.558   2.948  14.247  2.7330 -0.7098  0.3982
 9974TIP3    H251338   2.573   2.859  14.125 -0.5729  0.2553 -0.8262
 9975TIP3   OH251339   0.652   3.093  15.625 -0.1639 -0.2675  0.5669
 9975TIP3    H151340   0.653   3.167  15.686  0.9786 -0.6778  1.0675
 9975TIP3    H251341   0.601   3.125  15.550  1.2681  1.4532  0.2576
 9976TIP3   OH251342   5.076   4.537   5.767 -0.1953 -0.0351 -0.4788
 9976TIP3    H151343   5.097   4.449   5.737  1.0542 -0.3164  1.1004
 9976TIP3    H251344   5.095   4.594   5.692  0.6839 -0.9197 -0.9455
 9977TIP3   OH251345   1.286   6.643  14.465 -0.4526  0.3255 -0.2990
 9977TIP3    H151346   1.356   6.707  14.474  0.4909 -0.2632 -2.8353
 9977TIP3    H251347   1.225   6.682  14.402 -0.6277 -0.6350 -0.7381
 9978TIP3   OH251348   3.300   1.256  14.049 -0.3887  0.5075  0.0486
 9978TIP3    H151349   3.391   1.284  14.042 -0.0347 -0.3441  0.9042
 9978TIP3    H251350   3.255   1.298  13.976  0.4389  1.9067  0.3228
 9979TIP3   OH251351   6.747   5.101   4.240  0.6069  0.0579  0.2862
 9979TIP3    H151352   6.756   5.055   4.324 -0.1127 -3.0452 -1.2055
 9979TIP3    H251353   6.834   5.097   4.201  0.5151 -0.1557  0.1018
 9980TIP3   OH251354   2.251   1.636  10.489  0.0558  0.1338  0.3807
 9980TIP3    H151355   2.296   1.572  10.435  0.1159 -0.6870  1.3855
 9980TIP3    H251356   2.198   1.584  10.550  0.4114  1.0093  1.4828
 9981TIP3   OH251357   4.192   6.770  17.039  0.0418  0.2645 -0.0613
 9981TIP3    H151358   4.103   6.759  17.074 -0.0936  0.8238 -0.2231
 9981TIP3    H251359   4.182   6.834  16.968  0.2386 -1.0871 -1.3666
 9982TIP3   OH251360   0.431   3.298  11.892 -0.0096 -0.0627 -0.1053
 9982TIP3    H151361   0.336   3.310  11.891 -0.1369 -1.0244 -0.4581
 9982TIP3    H251362   0.446   3.232  11.960  0.3383 -0.4392 -0.5419
 9983TIP3   OH251363   1.239   6.456   2.699 -0.0841  0.2617 -0.3196
 9983TIP3    H151364   1.334   6.465   2.691 -0.2142  2.0668 -0.2541
 9983TIP3    H251365   1.226   6.396   2.773  1.0029  1.0689  0.5526
 9984TIP3   OH251366   5.998   2.763   0.503  0.1036  0.2476  0.3795
 9984TIP3    H151367   6.086   2.792   0.524  0.8080 -0.7970 -0.9617
 9984TIP3    H251368   6.001   2.667   0.510 -0.6117  0.1208 -0.7090
 9985TIP3   OH251369   1.949   4.142   5.006  0.2892  0.2289  0.7487
 9985TIP3    H151370   1.906   4.167   4.924  0.7723 -2.1417 -0.3124
 9985TIP3    H251371   2.016   4.208   5.020 -1.4682  2.1349  0.6737
 9986TIP3   OH251372   0.596   6.186  15.097  0.7943  0.2096 -0.4107
 9986TIP3    H151373   0.564   6.215  15.012  0.1242  0.0275 -0.2282
 9986TIP3    H251374   0.532   6.220  15.160  0.1985 -1.3102 -0.1596
 9987TIP3   OH251375   3.753   5.701  11.317  0.1167  0.3536 -0.2185
 9987TIP3    H151376   3.736   5.767  11.384  0.9990  0.2721  0.1091
 9987TIP3    H251377   3.674   5.648  11.315  0.5792 -0.5309  1.8188
 9988TIP3   OH251378   2.985   5.626   1.864  0.2134 -0.5817 -0.2366
 9988TIP3    H151379   3.001   5.636   1.958 -0.9503  0.1404 -0.0963
 9988TIP3    H251380   2.891   5.638   1.854  0.5997  1.8807 -1.7782
 9989TIP3   OH251381   1.843   2.694  17.038 -0.1110  0.2047 -0.4593
 9989TIP3    H151382   1.858   2.773  17.090  1.2055  0.9378 -1.8714
 9989TIP3    H251383   1.811   2.727  16.953  0.6863 -0.7470 -1.1473
 9990TIP3   OH251384   5.968   6.524  11.173 -0.5627 -0.2664 -0.5595
 9990TIP3    H151385   5.951   6.563  11.259  1.7578 -1.3570  0.4729
 9990TIP3    H251386   6.048   6.567  11.143 -0.1360 -1.4354 -1.1512
 9991TIP3   OH251387   3.076   2.688   2.004  0.0603  0.4912  0.2210
 9991TIP3    H151388   3.011   2.652   1.943  0.6055 -0.1556  0.0072
 9991TIP3    H251389   3.139   2.617   2.015  0.8396  1.1836  0.2648
 9992TIP3   OH251390   1.741   1.668   1.248 -0.2306  0.5840  0.2525
 9992TIP3    H151391   1.802   1.713   1.306  0.7343 -0.3259 -0.0184
 9992TIP3    H251392   1.718   1.588   1.295 -0.2601  0.3470 -0.1627
 9993TIP3   OH251393   2.391   2.803   0.383  0.1530  0.1710 -0.3070
 9993TIP3    H151394   2.438   2.806   0.466 -2.3221 -0.4592  1.2177
 9993TIP3    H251395   2.434   2.733   0.334  1.6756  0.5698  0.3937
 9994TIP3   OH251396   5.990   5.678   5.189 -0.2416 -0.7018 -0.2308
 9994TIP3    H151397   6.018   5.601   5.139 -1.0587 -1.9530  1.1540
 9994TIP3    H251398   5.895   5.668   5.197 -0.3175  0.3019  0.2384
 9995TIP3   OH251399   6.051   0.086   4.889 -0.6521  0.4779 -0.1044
 9995TIP3    H151400   6.146   0.091   4.879 -0.3572 -1.7824  1.0466
 9995TIP3    H251401   6.037   0.074   4.983 -1.7387 -3.3146 -0.5716
 9996TIP3   OH251402   2.691   2.316   2.048  0.1445  0.4505 -0.1342
 9996TIP3    H151403   2.650   2.336   1.963 -0.7422 -1.0752 -0.1105
 9996TIP3    H251404   2.663   2.226   2.067  0.0208  0.8751  1.9568
 9997TIP3   OH251405   4.665   2.727   3.466  0.2093  0.2850 -0.0631
 9997TIP3    H151406   4.729   2.692   3.404 -0.1945 -1.4538  0.4422
 9997TIP3    H251407   4.708   2.803   3.505  1.7111 -0.4690 -0.1795
 9998TIP3   OH251408   1.629   0.848   3.188 -0.3290 -0.1594  0.3761
 9998TIP3    H151409   1.716   0.860   3.226 -0.1973 -0.4128  0.1554
 9998TIP3    H251410   1.636   0.768   3.136 -0.7218 -0.2359  0.4367
 9999TIP3   OH251411   4.621   6.350   4.574  0.3993 -0.0118  0.0724
 9999TIP3    H151412   4.556   6.416   4.550  0.9060  0.3319 -0.3770
 9999TIP3    H251413   4.638   6.367   4.667  0.6346  0.5850 -0.0737
10000TIP3   OH251414   6.132   4.146  16.492 -0.3668  0.1185 -0.5513
10000TIP3    H151415   6.093   4.131  16.578 -0.4754  1.2250 -0.3906
10000TIP3    H251416   6.059   4.142  16.431 -0.4904  0.5439 -0.4393
10001TIP3   OH251417   2.230   4.113   3.014 -0.2458 -0.1233 -0.6343
10001TIP3    H151418   2.300   4.172   2.986 -0.8800  1.2898  0.6468
10001TIP3    H251419   2.273   4.052   3.074 -0.3102  1.6216  1.2839
10002TIP3   OH251420   0.114   2.176   3.283  0.5231  0.4015 -0.6183
10002TIP3    H151421   0.118   2.086   3.317  0.5796 -0.1579 -2.0155
10002TIP3    H251422   0.130   2.231   3.359 -2.6270 -0.6277  0.9662
10003TIP3   OH251423   2.489   2.765   0.650 -0.0953  0.1472  0.4468
10003TIP3    H151424   2.410   2.799   0.691 -0.0899 -0.4105  0.9212
10003TIP3    H251425   2.560   2.816   0.689 -0.2349  0.9140 -0.2574
10004TIP3   OH251426   5.987   5.299  16.102 -0.2287 -0.1403  0.6579
10004TIP3    H151427   5.912   5.250  16.069  0.9381 -1.3764 -0.3150
10004TIP3    H251428   6.017   5.249  16.178 -1.3655  1.2880  2.1005
10005TIP3   OH251429   4.093   0.965   2.866 -0.5728 -0.2819  0.2250
10005TIP3    H151430   4.037   0.998   2.795  0.1481  0.2049 -0.1337
10005TIP3    H251431   4.164   0.920   2.821  0.8408  1.5133  0.5352
10006TIP3   OH251432   0.689   4.617   3.306  0.1266  0.2819 -0.0455
10006TIP3    H151433   0.742   4.697   3.315  0.4112  0.2290 -1.0812
10006TIP3    H251434   0.746   4.557   3.257 -0.4777 -0.1817 -0.1855
10007TIP3   OH251435   6.804   2.120   0.217  0.1491  0.5530 -0.0723
10007TIP3    H151436   6.824   2.212   0.231  0.9501  0.2233  1.1076
10007TIP3    H251437   6.882   2.084   0.174  0.8675 -0.0642  1.6687
10008TIP3   OH251438   0.765   2.909  14.367  0.3626 -0.0223  0.0007
10008TIP3    H151439   0.797   2.995  14.339  0.6174  0.0379  0.4565
10008TIP3    H251440   0.785   2.851  14.294 -1.7441  0.6978 -1.2439
10009TIP3   OH251441   0.275   5.481  10.255 -0.5708  0.2590 -0.6509
10009TIP3    H151442   0.194   5.457  10.302  0.1994 -0.6954  0.2327
10009TIP3    H251443   0.331   5.518  10.324  0.0007  0.3050 -1.1423
10010TIP3   OH251444   3.635   6.401  16.789  0.7072  0.2635  0.2741
10010TIP3    H151445   3.591   6.350  16.857  2.3436 -2.2246 -0.3927
10010TIP3    H251446   3.580   6.389  16.711  1.2102 -0.7313  0.0607
10011TIP3   OH251447   6.749   0.702   5.106  0.5116 -0.4393 -0.2869
10011TIP3    H151448   6.812   0.772   5.091 -0.0095 -0.2831 -2.0887
10011TIP3    H251449   6.715   0.682   5.018  0.7144 -3.0108  0.1270
10012TIP3   OH251450   4.315   1.962   1.970 -0.0075  0.4066  0.3270
10012TIP3    H151451   4.300   2.020   2.045 -3.9202  0.7768 -0.5226
10012TIP3    H251452   4.328   2.021   1.896 -0.9005  0.1698 -0.0294
10013TIP3   OH251453   5.399   0.450  15.225  0.3973 -0.6018  0.3823
10013TIP3    H151454   5.484   0.486  15.252  0.6050 -1.3262  0.7270
10013TIP3    H251455   5.403   0.358  15.251 -0.3370 -0.7422  0.0218
10014TIP3   OH251456   1.180   1.093   0.765 -0.3637 -0.2602 -0.4759
10014TIP3    H151457   1.203   1.136   0.682  1.7060 -2.1680 -0.9848
10014TIP3    H251458   1.235   1.136   0.830 -0.0037 -0.5838 -0.5681
10015TIP3   OH251459   1.625   0.421  13.517 -0.8014 -0.0777  0.3196
10015TIP3    H151460   1.642   0.512  13.494 -0.4069  0.0758  1.1744
10015TIP3    H251461   1.658   0.370  13.443  0.7313  0.3793  0.6687
10016TIP3   OH251462   3.581   3.483  14.157 -0.1591 -0.8345 -0.0350
10016TIP3    H151463   3.629   3.534  14.091  0.2074 -1.2344 -0.0819
10016TIP3    H251464   3.527   3.548  14.202  0.1439 -0.4372 -0.2329
10017TIP3   OH251465   4.205   4.422   0.985  0.0705  0.3138  0.3338
10017TIP3    H151466   4.223   4.337   0.946  0.2364  0.6704 -0.3897
10017TIP3    H251467   4.267   4.428   1.058  0.4079  0.0237  0.0775
10018TIP3   OH251468   6.404   6.795  15.697  0.3164  0.2123  0.6463
10018TIP3    H151469   6.376   6.716  15.651  0.2015  0.5086  0.2030
10018TIP3    H251470   6.346   6.801  15.773  0.8228 -0.5445  1.0992
10019TIP3   OH251471   3.188   2.369  14.259 -0.0613  0.0177 -0.5151
10019TIP3    H151472   3.122   2.314  14.300 -1.5683  0.8879 -1.6689
10019TIP3    H251473   3.188   2.343  14.167  0.6439  0.5616 -0.6825
10020TIP3   OH251474   1.555   2.942  12.533 -0.4274  0.7676 -0.0983
10020TIP3    H151475   1.520   2.854  12.548 -0.9560  1.0467  0.3477
10020TIP3    H251476   1.532   2.961  12.442 -1.0531  0.7670  0.0558
10021TIP3   OH251477   6.455   1.129  12.602 -0.4445  0.0482 -0.4120
10021TIP3    H151478   6.444   1.195  12.534 -0.8607  0.4798  0.0618
10021TIP3    H251479   6.379   1.142  12.660 -0.6705 -1.0129 -0.4553
10022TIP3   OH251480   3.331   3.273   1.286 -0.6980  0.2877 -0.1824
10022TIP3    H151481   3.324   3.341   1.353  1.7432  0.8852 -0.4633
10022TIP3    H251482   3.281   3.308   1.212 -0.3574  1.3155  0.0517
10023TIP3   OH251483   2.777   4.302   5.482 -0.0250  0.1153 -0.1286
10023TIP3    H151484   2.698   4.349   5.453  1.5032  1.3679 -2.6000
10023TIP3    H251485   2.820   4.364   5.542 -0.9094 -0.6128  1.3077
10024TIP3   OH251486   5.611   6.253  11.752 -0.6275  0.0859 -0.2257
10024TIP3    H151487   5.635   6.322  11.814  0.9941 -1.4224  0.9554
10024TIP3    H251488   5.600   6.298  11.669  0.0575  1.8145  0.5586
10025TIP3   OH251489   0.171   3.987  15.069  0.2834  0.1374  1.1193
10025TIP3    H151490   0.135   4.051  15.007  0.7914  1.2623  1.9366
10025TIP3    H251491   0.112   3.912  15.062  0.0051  0.4547 -0.2960
10026TIP3   OH251492   2.441   3.636   5.333  0.1000 -0.3366  0.5829
10026TIP3    H151493   2.498   3.665   5.262  1.2531  1.7990  2.2476
10026TIP3    H251494   2.354   3.629   5.293  1.1163 -1.7328 -1.5711
10027TIP3   OH251495   5.064   3.770   2.569 -0.2302  0.5641  0.0244
10027TIP3    H151496   5.018   3.691   2.540  0.6905  0.5143 -1.3788
10027TIP3    H251497   5.130   3.738   2.630 -1.4789  0.5554  1.4419
10028TIP3   OH251498   4.234   4.172  14.183 -0.6073  0.0823  0.2919
10028TIP3    H151499   4.247   4.239  14.117 -0.6315 -1.4027 -1.2931
10028TIP3    H251500   4.294   4.196  14.254  1.2544  0.4436 -1.3032
10029TIP3   OH251501   3.792   3.656  15.042  0.2670 -0.1362  0.0173
10029TIP3    H151502   3.799   3.572  15.088  1.1485 -1.1609 -1.9086
10029TIP3    H251503   3.824   3.639  14.954  0.5010  2.2501 -0.4300
10030TIP3   OH251504   4.785   0.178  15.736 -0.2055  0.9437 -0.0674
10030TIP3    H151505   4.721   0.242  15.705 -1.4511  0.2118  0.9014
10030TIP3    H251506   4.818   0.215  15.819  1.0605  1.5613 -0.8006
10031TIP3   OH251507   2.218   3.124   0.565  0.4789 -0.3335 -0.0853
10031TIP3    H151508   2.138   3.081   0.532  1.2079 -0.9815 -1.0958
10031TIP3    H251509   2.261   3.157   0.486  1.5211 -0.5456  0.3784
10032TIP3   OH251510   4.426   4.719  14.592 -0.6119 -0.3038 -0.1403
10032TIP3    H151511   4.410   4.716  14.686 -0.9370 -0.0018 -0.1841
10032TIP3    H251512   4.521   4.727  14.584 -0.4938 -1.4072  0.1339
10033TIP3   OH251513   1.787   1.411   1.391 -0.6287 -0.3836  0.3403
10033TIP3    H151514   1.814   1.319   1.394 -0.5028 -0.4358 -1.2697
10033TIP3    H251515   1.867   1.460   1.411 -0.2406 -0.6051 -0.6350
10034TIP3   OH251516   1.973   6.183  10.664 -0.3721  0.2185  0.7666
10034TIP3    H151517   1.964   6.098  10.620 -0.2806  0.3711  0.4488
10034TIP3    H251518   1.947   6.247  10.597 -0.3776  0.4447  0.9839
10035TIP3   OH251519   0.956   5.465   4.779 -0.6718 -0.3413 -0.3896
10035TIP3    H151520   0.933   5.373   4.791 -1.7245 -0.0629 -0.0613
10035TIP3    H251521   0.978   5.496   4.867  2.1605 -0.8511 -0.8310
10036TIP3   OH251522   1.154   4.773   2.972  0.2312 -0.0932 -0.0881
10036TIP3    H151523   1.096   4.759   2.897  2.0761 -1.5650 -1.3176
10036TIP3    H251524   1.130   4.704   3.034 -1.2290  1.0673  0.7289
10037TIP3   OH251525   3.462   0.527   2.324  0.5096 -0.1673  0.6163
10037TIP3    H151526   3.542   0.579   2.315  0.9674 -0.3088  3.1067
10037TIP3    H251527   3.490   0.451   2.375 -0.9560 -0.9066  0.3545
10038TIP3   OH251528   4.817   5.745  13.164  0.6338 -0.4094  0.1512
10038TIP3    H151529   4.767   5.663  13.153  2.0983 -1.5394  1.4896
10038TIP3    H251530   4.870   5.751  13.085  0.6469 -0.8540  0.1221
10039TIP3   OH251531   1.376   6.085  12.438 -0.1789 -0.0956 -0.0026
10039TIP3    H151532   1.418   6.026  12.375  0.7666  1.1075 -0.5513
10039TIP3    H251533   1.413   6.171  12.418 -1.2720  0.6351  0.9888
10040TIP3   OH251534   0.797   5.753   0.326 -0.2576 -0.3795  0.1535
10040TIP3    H151535   0.828   5.695   0.396  1.2179 -0.8998 -0.8701
10040TIP3    H251536   0.707   5.726   0.310 -0.0656 -1.4080  0.7023
10041TIP3   OH251537   5.115   6.432   1.308  0.4028  0.5620  0.2075
10041TIP3    H151538   5.049   6.426   1.239  0.8275  1.9214 -0.3491
10041TIP3    H251539   5.193   6.464   1.263  1.2507 -0.3449  0.9813
10042TIP3   OH251540   6.215   5.993   4.507 -0.3350 -0.0329  0.3394
10042TIP3    H151541   6.172   6.077   4.523 -4.2621 -1.8843  0.9496
10042TIP3    H251542   6.219   5.952   4.593  1.0363 -0.6966 -0.0247
10043TIP3   OH251543   6.071   6.033   1.018  0.5501 -0.6655 -0.0802
10043TIP3    H151544   6.157   5.994   1.003  0.7505 -1.0723  1.7841
10043TIP3    H251545   6.084   6.126   1.005  1.7937 -0.4890  1.9227
10044TIP3   OH251546   3.960   5.165  11.890 -0.1154 -0.3683 -0.0631
10044TIP3    H151547   4.024   5.207  11.947  0.5837  1.1410 -1.8683
10044TIP3    H251548   3.926   5.236  11.836 -1.0895 -1.6579 -1.2135
10045TIP3   OH251549   4.739   1.956   3.583  0.7368 -0.8301  0.1437
10045TIP3    H151550   4.809   1.905   3.541  0.9854 -0.8135  0.5307
10045TIP3    H251551   4.779   2.041   3.600  0.0624 -0.2061 -1.2711
10046TIP3   OH251552   3.603   0.607  14.774 -0.2032 -0.2322  0.2416
10046TIP3    H151553   3.614   0.690  14.728  0.1415 -0.5439 -0.2558
10046TIP3    H251554   3.555   0.552  14.712  0.7632 -0.8466  0.0114
10047TIP3   OH251555   0.840   2.531  14.177 -0.2490  0.1467  0.1691
10047TIP3    H151556   0.828   2.538  14.082  0.8183  0.0058  0.0166
10047TIP3    H251557   0.758   2.494  14.208 -0.8464  0.7421 -0.6243
10048TIP3   OH251558   0.349   0.718   1.896  0.2496  0.3467  0.2647
10048TIP3    H151559   0.354   0.626   1.923  0.7234  0.2684 -0.0806
10048TIP3    H251560   0.268   0.724   1.846  2.1251 -0.8525 -3.2261
10049TIP3   OH251561   4.384   4.732  16.542 -0.6381 -0.2595 -0.2408
10049TIP3    H151562   4.339   4.813  16.567 -0.3681 -0.1811 -0.0079
10049TIP3    H251563   4.449   4.760  16.478  0.0928 -0.1460  0.5329
10050TIP3   OH251564   3.405   2.867   5.263 -0.7883 -0.2036 -0.1087
10050TIP3    H151565   3.334   2.930   5.247 -0.7278 -0.1152 -0.0273
10050TIP3    H251566   3.380   2.790   5.212 -1.4884 -0.5665  0.7658
10051TIP3   OH251567   2.112   1.938  11.054 -0.2546 -0.1929  0.2820
10051TIP3    H151568   2.044   1.948  10.987 -0.9138  0.3727  1.0090
10051TIP3    H251569   2.183   1.996  11.027 -0.4362 -0.1168 -0.0299
10052TIP3   OH251570   0.527   4.504   4.465 -0.1803 -0.1829  0.0494
10052TIP3    H151571   0.581   4.574   4.428  0.2077 -0.4145  0.1724
10052TIP3    H251572   0.590   4.442   4.502 -0.5634  0.1455  1.2980
10053TIP3   OH251573   2.488   5.423   3.463 -0.4392 -0.0748 -0.0056
10053TIP3    H151574   2.424   5.384   3.404 -2.4536  0.1161  1.9035
10053TIP3    H251575   2.508   5.352   3.525  1.1312 -0.0834 -0.4947
10054TIP3   OH251576   2.982   0.681   3.076  0.1178  0.5205 -0.1630
10054TIP3    H151577   3.071   0.660   3.104 -0.9217 -0.7341  2.6631
10054TIP3    H251578   2.970   0.772   3.100  0.4625  0.5239 -0.0038
10055TIP3   OH251579   6.401   4.345   1.862  0.0846  0.4510  0.4402
10055TIP3    H151580   6.443   4.313   1.941  2.1554 -0.4320 -0.9258
10055TIP3    H251581   6.410   4.273   1.799 -0.4707  1.5288 -0.9360
10056TIP3   OH251582   0.964   1.662   5.459  0.8880 -0.0968  0.8114
10056TIP3    H151583   1.056   1.636   5.462  0.5918 -1.1856  0.9427
10056TIP3    H251584   0.924   1.601   5.397 -0.0282 -0.6219  1.8739
10057TIP3   OH251585   2.568   1.624   2.303  0.1621 -0.4564  0.4563
10057TIP3    H151586   2.513   1.697   2.332  1.1085 -0.3655  2.1540
10057TIP3    H251587   2.589   1.644   2.212 -0.1074  1.0757  0.7088
10058TIP3   OH251588   0.593   3.339   3.411 -0.7063  0.1436  0.8567
10058TIP3    H151589   0.633   3.253   3.403 -1.1804 -0.3242  2.9276
10058TIP3    H251590   0.620   3.386   3.332  1.6445 -1.0345  0.8853
10059TIP3   OH251591   3.473   3.473  12.127 -0.2070  0.2783  0.0225
10059TIP3    H151592   3.430   3.558  12.117 -1.6204 -0.4072 -0.0091
10059TIP3    H251593   3.566   3.492  12.116 -0.5447  1.7100 -0.6608
10060TIP3   OH251594   2.824   2.444  10.953 -0.1018 -1.0610 -0.6195
10060TIP3    H151595   2.837   2.404  11.039 -0.7370 -2.2032 -1.0312
10060TIP3    H251596   2.895   2.507  10.944  1.3381 -2.5684 -0.1979
10061TIP3   OH251597   3.905   4.607  13.746  0.3676 -0.3513  0.3498
10061TIP3    H151598   3.873   4.691  13.778  0.1521  0.7521 -2.4807
10061TIP3    H251599   3.991   4.596  13.787  1.1823  2.1357 -0.5322
10062TIP3   OH251600   4.195   3.087   0.900  0.5816  0.5016 -0.6301
10062TIP3    H151601   4.279   3.115   0.865  0.5606  0.2485 -0.8909
10062TIP3    H251602   4.196   3.115   0.992  1.4680 -0.6244 -0.2790
10063TIP3   OH251603   1.769   2.592   0.447 -0.1616 -0.1262 -0.1176
10063TIP3    H151604   1.687   2.568   0.490 -1.4186  1.1793 -1.6709
10063TIP3    H251605   1.814   2.648   0.511 -1.5618  1.0175 -0.0685
10064TIP3   OH251606   2.959   0.016   5.146  0.7009  0.1337 -0.3241
10064TIP3    H151607   2.923  -0.066   5.112  1.8014 -0.9260  0.9067
10064TIP3    H251608   2.885   0.075   5.150 -0.1912 -0.9023 -0.9684
10065TIP3   OH251609   4.612   4.894  16.812 -0.0913  0.0573 -0.0880
10065TIP3    H151610   4.650   4.852  16.735 -1.9394  1.2180 -1.7019
10065TIP3    H251611   4.631   4.987  16.801  0.1312  0.1893  1.1868
10066TIP3   OH251612   2.335   4.080  14.464  0.7040 -0.6785  0.1685
10066TIP3    H151613   2.338   4.114  14.553 -1.7603 -1.4192  0.6162
10066TIP3    H251614   2.424   4.050  14.446  1.4828  0.4022  1.9884
10067TIP3   OH251615   1.888   0.605   2.440  0.4608  0.1853 -0.0374
10067TIP3    H151616   1.950   0.565   2.379 -0.6318 -2.1563  0.2899
10067TIP3    H251617   1.885   0.545   2.514  0.2898  1.9818  1.4893
10068TIP3   OH251618   5.972   4.628  11.021 -0.4115 -0.3679  0.0326
10068TIP3    H151619   5.882   4.657  11.008 -0.8169 -1.3984  0.4389
10068TIP3    H251620   5.976   4.542  10.978 -0.1926 -1.2360  1.7160
10069TIP3   OH251621   6.049   2.349  15.768 -0.5568 -0.4172  0.7958
10069TIP3    H151622   6.026   2.272  15.820 -0.3837 -1.7686 -1.0192
10069TIP3    H251623   6.133   2.326  15.728 -0.4273  0.7973  0.3342
10070TIP3   OH251624   4.398   4.882  14.973 -0.4833 -0.2104  0.4064
10070TIP3    H151625   4.490   4.864  14.990  0.4806  1.4703 -2.4453
10070TIP3    H251626   4.363   4.800  14.938  0.1062 -0.6372  0.8134
10071TIP3   OH251627   5.645   5.932   5.012 -0.4782 -0.4135 -0.5242
10071TIP3    H151628   5.559   5.918   4.973 -1.3691  0.2346  1.1498
10071TIP3    H251629   5.668   5.847   5.051  0.0003 -0.7952 -1.5871
10072TIP3   OH251630   3.729   4.886   4.122 -0.1855  0.1768 -0.0651
10072TIP3    H151631   3.710   4.840   4.040  0.1626  0.8797 -0.5542
10072TIP3    H251632   3.665   4.957   4.124 -0.5067 -0.1181  0.5237
10073TIP3   OH251633   0.962   3.841  13.020 -1.0295 -0.5352 -0.0038
10073TIP3    H151634   0.916   3.872  13.098  1.7558  2.3301  0.6770
10073TIP3    H251635   0.926   3.894  12.949  0.4299  1.0569  0.3822
10074TIP3   OH251636   1.782   2.847   2.223  0.5406  0.5231 -0.3674
10074TIP3    H151637   1.844   2.916   2.196  1.7862  0.7268  2.6890
10074TIP3    H251638   1.824   2.766   2.194  0.0719  0.8439 -2.1161
10075TIP3   OH251639   4.863   5.457  14.671 -0.0532 -0.8567  0.6154
10075TIP3    H151640   4.931   5.461  14.738  0.9292 -1.4662 -0.3180
10075TIP3    H251641   4.782   5.478  14.718  0.8651  0.7021  1.5812
10076TIP3   OH251642   3.522   0.241   1.356 -0.0865 -0.6375  0.9382
10076TIP3    H151643   3.573   0.165   1.327  0.1978 -0.2295  0.3544
10076TIP3    H251644   3.548   0.253   1.448  1.1827 -0.2054  0.5501
10077TIP3   OH251645   4.023   3.511  13.088  0.5044  0.5363 -0.3305
10077TIP3    H151646   4.017   3.503  13.183  0.2410  0.9788 -0.3061
10077TIP3    H251647   4.117   3.514  13.070  0.5593  1.4836  0.0212
10078TIP3   OH251648   4.497   0.323  12.431 -0.1404 -0.1450  0.2874
10078TIP3    H151649   4.556   0.251  12.454 -0.7297 -0.6400  0.2648
10078TIP3    H251650   4.422   0.280  12.389 -0.1914  0.5379 -0.3384
10079TIP3   OH251651   4.752   1.146  12.540  0.2002  0.0471 -0.7741
10079TIP3    H151652   4.773   1.191  12.622  0.2138  2.2134 -1.8941
10079TIP3    H251653   4.694   1.207  12.494  0.7849 -0.7869 -2.6890
10080TIP3   OH251654   5.996   4.493  14.488 -0.0702 -0.3834  0.0109
10080TIP3    H151655   6.041   4.423  14.535 -2.1234 -1.7631  0.0365
10080TIP3    H251656   5.940   4.448  14.426 -0.7277  1.2947 -0.6646
10081TIP3   OH251657   4.545   2.517   0.755 -0.3317  0.5484  0.5135
10081TIP3    H151658   4.596   2.460   0.698 -3.0125  1.4711 -3.1308
10081TIP3    H251659   4.607   2.585   0.782  1.9016 -1.8182  1.8116
10082TIP3   OH251660   0.884   3.230  10.991 -0.4542  0.3795  0.4239
10082TIP3    H151661   0.791   3.244  10.978 -0.9459 -1.6874  1.3186
10082TIP3    H251662   0.908   3.290  11.062 -0.8822  1.5168 -0.3715
10083TIP3   OH251663   5.562   2.466  11.488 -0.6189 -0.5501 -0.1653
10083TIP3    H151664   5.638   2.467  11.431 -0.4785 -0.8561  0.0160
10083TIP3    H251665   5.598   2.478  11.576 -0.7909 -0.5623 -0.0928
10084TIP3   OH251666   0.950   4.598   3.058 -0.0264  0.1206  0.3422
10084TIP3    H151667   0.946   4.534   2.987  2.5713  1.4797 -1.1508
10084TIP3    H251668   0.893   4.669   3.029  2.7879  1.7491 -1.7221
10085TIP3   OH251669   2.011   3.071   3.753 -0.3586  0.2823  0.3943
10085TIP3    H151670   1.931   3.039   3.712 -0.6133  2.1501 -0.6525
10085TIP3    H251671   2.068   3.095   3.680  1.6279 -1.9252  1.0786
10086TIP3   OH251672   0.239   4.027   1.767 -0.4602 -0.3039  0.1353
10086TIP3    H151673   0.146   4.017   1.746 -0.3891  1.2938 -1.0467
10086TIP3    H251674   0.269   4.101   1.714  1.5249 -0.8402  0.4132
10087TIP3   OH251675   5.423   1.617  12.336  0.4554 -0.3442  0.0129
10087TIP3    H151676   5.515   1.592  12.333  0.4598 -1.2313  3.4044
10087TIP3    H251677   5.424   1.704  12.375 -0.0615  1.5593 -3.7689
10088TIP3   OH251678   2.501   0.201  11.270  0.6150  0.5426  0.0860
10088TIP3    H151679   2.494   0.205  11.365  1.5209  0.2536  0.1795
10088TIP3    H251680   2.422   0.155  11.242 -0.2236  1.6362  0.5899
10089TIP3   OH251681   3.267   0.534  14.826  0.5337  0.3842 -1.0321
10089TIP3    H151682   3.233   0.600  14.766 -0.8001  1.4814  0.8430
10089TIP3    H251683   3.329   0.581  14.882  0.8299 -0.3366 -0.7411
10090TIP3   OH251684   1.988   0.028  12.320 -0.2397 -0.0255  0.0998
10090TIP3    H151685   1.936  -0.009  12.391 -1.2489  1.2968  0.0798
10090TIP3    H251686   1.982  -0.037  12.249 -2.6194  0.4702 -0.2257
10091TIP3   OH251687   0.246   3.360   0.959 -0.1406  0.5277  0.7868
10091TIP3    H151688   0.174   3.297   0.967 -1.2181  1.6207  0.1980
10091TIP3    H251689   0.217   3.421   0.891  2.2945 -0.1752 -1.0035
10092TIP3   OH251690   3.949   0.858   4.560 -0.0887 -0.8459 -0.2288
10092TIP3    H151691   3.991   0.817   4.484 -0.1817 -0.1291 -0.6763
10092TIP3    H251692   3.941   0.787   4.624 -2.0547 -2.0778 -1.7030
10093TIP3   OH251693   4.331   1.913  13.691 -0.1621  0.1951 -0.0466
10093TIP3    H151694   4.375   1.966  13.758 -0.3607 -0.5899  0.7275
10093TIP3    H251695   4.238   1.930  13.703 -0.1585  0.7241 -0.7126
10094TIP3   OH251696   1.239   4.146  16.294 -0.4557  0.3711  0.5097
10094TIP3    H151697   1.321   4.099  16.309 -0.9654  0.3545  4.0024
10094TIP3    H251698   1.262   4.238  16.302 -0.5206  0.4639 -0.2586
10095TIP3   OH251699   6.179   2.809   6.126  0.5441  0.2937 -0.5945
10095TIP3    H151700   6.098   2.774   6.088  0.4575 -0.4799  0.2599
10095TIP3    H251701   6.150   2.880   6.183  0.5964  0.8825 -1.2895
10096TIP3   OH251702   6.611   5.703  11.954 -0.1851  0.2250  0.3936
10096TIP3    H151703   6.605   5.611  11.930  1.9622 -0.1079  0.9207
10096TIP3    H251704   6.619   5.749  11.871 -0.1827 -0.1733  0.1697
10097TIP3   OH251705   6.459   1.579  13.374 -0.7192 -0.2088  0.4451
10097TIP3    H151706   6.497   1.655  13.418  0.1662 -1.0303  1.1214
10097TIP3    H251707   6.522   1.557  13.306 -1.5011  0.3023 -0.4788
10098TIP3   OH251708   3.181   5.252   5.648 -0.3840 -0.3735  0.1757
10098TIP3    H151709   3.143   5.325   5.696  1.7553  0.6009  0.4763
10098TIP3    H251710   3.171   5.275   5.556 -3.6872 -1.8366  0.0126
10099TIP3   OH251711   4.870   0.448  12.482  0.3679  0.3519  0.1167
10099TIP3    H151712   4.906   0.359  12.479  1.1014  0.6491 -0.1804
10099TIP3    H251713   4.781   0.437  12.514  0.0885 -0.6107 -0.9219
10100TIP3   OH251714   6.565   3.637   3.952  0.0349 -0.3920 -0.6675
10100TIP3    H151715   6.486   3.609   3.905  1.0152  0.0832 -2.7573
10100TIP3    H251716   6.562   3.589   4.035 -1.6896 -1.5027 -1.2970
10101TIP3   OH251717   3.467   1.289   1.049 -0.2936  0.1151  0.2410
10101TIP3    H151718   3.553   1.327   1.069  0.2356 -0.7932 -0.2394
10101TIP3    H251719   3.443   1.329   0.965  0.2273 -0.5143 -0.2248
10102TIP3   OH251720   6.064   6.123   2.834 -0.0660 -0.6908 -0.6167
10102TIP3    H151721   6.009   6.186   2.880 -0.9401 -0.2040 -2.2540
10102TIP3    H251722   6.146   6.122   2.883 -0.5832  0.5599  0.3228
10103TIP3   OH251723   6.138   5.352   3.940 -0.1147 -0.3133  0.2308
10103TIP3    H151724   6.188   5.366   4.020  0.2100  1.1075 -0.2048
10103TIP3    H251725   6.200   5.365   3.869 -0.5498 -0.9233 -0.2790
10104TIP3   OH251726   5.265   3.447  14.145  0.7588 -0.0069  0.4036
10104TIP3    H151727   5.347   3.446  14.095  1.4135 -2.9632  1.3221
10104TIP3    H251728   5.197   3.428  14.080  1.0911  0.0623  0.0274
10105TIP3   OH251729   6.626   1.313   0.185 -0.7194 -0.9854 -0.1022
10105TIP3    H151730   6.603   1.368   0.110  0.8437 -0.1497 -0.0132
10105TIP3    H251731   6.589   1.228   0.164 -0.2145 -0.8099 -1.9143
10106TIP3   OH251732   3.904   2.913  12.734 -0.5855  0.2541 -0.1408
10106TIP3    H151733   3.945   2.849  12.792 -1.0467 -1.3390 -1.5152
10106TIP3    H251734   3.960   2.990  12.740  0.9217 -0.8434  0.2898
10107TIP3   OH251735   1.005   2.333   1.688 -0.4034 -0.1297  0.0081
10107TIP3    H151736   0.918   2.292   1.687 -0.1323 -0.7088 -0.3380
10107TIP3    H251737   1.047   2.301   1.608 -0.2302  0.9384 -0.3454
10108TIP3   OH251738   0.732   0.672   3.150  0.3217 -0.1418  0.2625
10108TIP3    H151739   0.732   0.694   3.056 -1.3099 -0.0211  0.2716
10108TIP3    H251740   0.824   0.655   3.170  0.6760 -0.3750 -1.4078
10109TIP3   OH251741   4.580   2.204   0.992 -0.2980  0.7233 -0.2957
10109TIP3    H151742   4.661   2.252   0.976 -0.1228  0.6572  0.3830
10109TIP3    H251743   4.524   2.265   1.039 -0.0997  0.2937  0.5110
10110TIP3   OH251744   5.072   0.412  11.817  0.3907 -0.2502 -0.2939
10110TIP3    H151745   4.993   0.413  11.762  0.2781  0.1000 -0.1312
10110TIP3    H251746   5.077   0.501  11.853  0.5274 -0.4424  0.1705
10111TIP3   OH251747   1.165   4.612  13.919 -0.0934 -0.2322  0.1197
10111TIP3    H151748   1.168   4.521  13.889 -0.6999  0.0917 -0.9853
10111TIP3    H251749   1.076   4.622  13.954  0.2282 -0.2766  0.9617
10112TIP3   OH251750   3.874   1.981  12.814  0.5568 -0.2758  0.3841
10112TIP3    H151751   3.798   1.955  12.762  0.9071 -0.2482 -0.1412
10112TIP3    H251752   3.928   1.902  12.819  0.4964 -0.2978  0.7686
10113TIP3   OH251753   2.319   3.270   0.374 -0.5056  0.4279 -0.1418
10113TIP3    H151754   2.274   3.338   0.324  0.6928  1.4389  0.1034
10113TIP3    H251755   2.395   3.247   0.320 -0.9321 -0.7674 -0.2434
10114TIP3   OH251756   1.431   1.152   0.371 -0.3963  0.2069 -0.1207
10114TIP3    H151757   1.418   1.209   0.447 -0.5896 -0.0992  0.0757
10114TIP3    H251758   1.492   1.201   0.315 -0.5282  0.5873  0.0659
10115TIP3   OH251759   4.175   5.454  16.864  0.6077  0.0808  0.2857
10115TIP3    H151760   4.136   5.491  16.784  2.7170  0.0902 -0.8321
10115TIP3    H251761   4.118   5.483  16.935 -1.3953 -0.0021 -1.2180
10116TIP3   OH251762   6.048   1.602   5.527  0.0993 -0.2618  0.2782
10116TIP3    H151763   6.011   1.558   5.604 -0.4465  0.5309  0.4792
10116TIP3    H251764   6.076   1.531   5.470 -1.0740 -0.8802  0.4493
10117TIP3   OH251765   5.449   4.812   2.250  1.1375 -0.1372 -0.0940
10117TIP3    H151766   5.440   4.904   2.273 -0.6268 -0.5674  1.2144
10117TIP3    H251767   5.529   4.784   2.294  1.5786  0.7177 -0.3332
10118TIP3   OH251768   2.790   5.303  12.174  0.7207 -0.1757  0.1601
10118TIP3    H151769   2.737   5.356  12.233  1.2713 -1.1317  1.5676
10118TIP3    H251770   2.782   5.346  12.089  0.0283  1.3243  0.9529
10119TIP3   OH251771   5.162   4.059  14.385  0.1522  0.6478  0.3820
10119TIP3    H151772   5.069   4.043  14.370  0.4063 -0.5259 -0.1040
10119TIP3    H251773   5.194   4.094  14.302  0.5482 -1.0085 -0.2049
10120TIP3   OH251774   2.085   1.656   0.702  0.1516 -0.1913  0.5532
10120TIP3    H151775   2.130   1.697   0.628 -1.7852 -1.4124 -1.4131
10120TIP3    H251776   2.128   1.693   0.779  0.7538  2.8957 -1.0979
10121TIP3   OH251777   0.469   1.395   1.397 -0.2687  0.0167  0.0684
10121TIP3    H151778   0.481   1.467   1.336  0.0906  0.7462  0.9767
10121TIP3    H251779   0.554   1.352   1.400  0.1551  0.8885  1.1588
10122TIP3   OH251780   3.022   0.285  10.871  0.6278  0.1734 -0.2842
10122TIP3    H151781   3.113   0.295  10.845  1.2788 -1.3208  1.1907
10122TIP3    H251782   3.026   0.232  10.951 -1.5985 -1.1575 -0.9660
10123TIP3   OH251783   3.562   1.507  13.231  0.0021  0.0440  0.2388
10123TIP3    H151784   3.583   1.546  13.146  0.3144 -0.1231  0.2391
10123TIP3    H251785   3.476   1.467  13.219  0.2569 -0.3886 -0.1329
10124TIP3   OH251786   6.602   2.556   1.085  0.9242  0.0817  0.0423
10124TIP3    H151787   6.611   2.643   1.122  2.1995 -0.8834  2.1736
10124TIP3    H251788   6.677   2.507   1.118 -0.7420 -2.3622  0.5138
10125TIP3   OH251789   4.042   1.419   3.026  0.9647  0.5335  0.6278
10125TIP3    H151790   4.003   1.376   2.950 -1.2212  0.3025  1.8037
10125TIP3    H251791   4.121   1.462   2.991  1.8840 -2.2663 -1.0765
10126TIP3   OH251792   4.476   1.916  11.269 -0.2406  0.1240 -0.6149
10126TIP3    H151793   4.407   1.921  11.335 -1.2400 -1.5908 -1.4629
10126TIP3    H251794   4.467   1.997  11.219 -0.2400  0.8879  0.5788
10127TIP3   OH251795   1.263   6.363   1.826  0.8324  0.1915  0.4329
10127TIP3    H151796   1.332   6.327   1.882 -0.2944 -0.1154  1.6800
10127TIP3    H251797   1.274   6.319   1.742  3.2940  1.5153 -0.0240
10128TIP3   OH251798   4.684   6.514   0.582 -0.1741  0.3116 -0.4043
10128TIP3    H151799   4.741   6.512   0.658  0.5643  3.5950 -0.7074
10128TIP3    H251800   4.634   6.595   0.592 -1.2784 -0.0279 -2.5749
10129TIP3   OH251801   2.151   5.062   4.200  0.1650 -0.4958  0.3191
10129TIP3    H151802   2.232   5.038   4.244  0.0862 -1.0808  0.1579
10129TIP3    H251803   2.093   4.988   4.214  0.3356 -0.9821 -1.2588
10130TIP3   OH251804   3.850   1.711  11.223 -0.5813  0.4650 -0.3328
10130TIP3    H151805   3.784   1.643  11.226  1.0502 -1.1708  0.2953
10130TIP3    H251806   3.909   1.691  11.296  0.7349  1.7038 -0.9956
10131TIP3   OH251807   4.760   4.904   0.813 -0.3761 -0.1547  0.7467
10131TIP3    H151808   4.675   4.873   0.780 -0.9296  0.2626  1.7216
10131TIP3    H251809   4.824   4.845   0.773 -0.9115  0.7496 -1.6187
10132TIP3   OH251810   1.420   4.493   1.746  0.3171 -0.7671 -0.4039
10132TIP3    H151811   1.326   4.478   1.733 -0.0867  1.3601 -0.2120
10132TIP3    H251812   1.439   4.571   1.694  1.4017  0.3987  1.6380
10133TIP3   OH251813   4.881   2.795   4.054  0.5086 -0.2642 -0.8584
10133TIP3    H151814   4.948   2.746   4.006  1.5657  1.7728 -1.5855
10133TIP3    H251815   4.837   2.847   3.987 -1.9518 -1.6225 -0.4096
10134TIP3   OH251816   5.258   1.192   3.782  0.0735 -0.8271 -0.2532
10134TIP3    H151817   5.167   1.203   3.754 -0.1915 -3.1883 -0.5721
10134TIP3    H251818   5.307   1.184   3.701  0.1118 -2.3353 -0.1073
10135TIP3   OH251819   3.195   1.941   2.612  0.4118 -0.0001 -0.7092
10135TIP3    H151820   3.113   1.899   2.588  0.3626 -0.1962 -0.2200
10135TIP3    H251821   3.256   1.869   2.626  0.2269  0.0510  0.4914
10136TIP3   OH251822   5.743   4.307   4.248 -0.2163  0.4271 -0.2325
10136TIP3    H151823   5.710   4.228   4.205 -0.3416  1.0695 -1.3556
10136TIP3    H251824   5.685   4.319   4.324  0.8059 -1.4419  0.9147
10137TIP3   OH251825   2.934   6.701  11.086  0.1292  0.0477  0.4801
10137TIP3    H151826   2.928   6.692  10.991 -0.8457 -0.5282  0.5915
10137TIP3    H251827   2.852   6.743  11.111  1.4643  2.6478  0.8050
10138TIP3   OH251828   0.935   6.660  11.610  0.2488  0.4518  0.2793
10138TIP3    H151829   0.887   6.624  11.536 -0.4152  0.6658  0.5984
10138TIP3    H251830   0.869   6.707  11.661  0.3411 -1.0970  1.9224
10139TIP3   OH251831   2.758   3.338  14.709 -0.2217  0.0694  0.4652
10139TIP3    H151832   2.695   3.327  14.638 -0.4780  0.0498  0.6952
10139TIP3    H251833   2.831   3.279  14.686 -0.2141  0.2141  0.1193
10140TIP3   OH251834   0.839   2.380   4.858 -0.1112 -0.4376  0.0744
10140TIP3    H151835   0.857   2.318   4.788 -1.6541 -0.0220 -0.7404
10140TIP3    H251836   0.752   2.416   4.837 -0.2349  0.3440  1.7250
10141TIP3   OH251837   4.107   4.935  11.923  0.0033 -0.1125 -0.2459
10141TIP3    H151838   4.031   4.993  11.932  0.8443  0.9650  0.2057
10141TIP3    H251839   4.180   4.995  11.909  1.0098 -1.0319  0.8734
10142TIP3   OH251840   2.764   1.429   4.489  0.4360  0.1751 -0.1971
10142TIP3    H151841   2.824   1.372   4.441 -0.4710 -0.4975 -0.5548
10142TIP3    H251842   2.678   1.411   4.451  0.1783  2.1517 -0.6724
10143TIP3   OH251843   2.861   4.443   2.760 -0.1324  0.4137 -0.6012
10143TIP3    H151844   2.859   4.511   2.827 -0.0284 -0.7758  0.6449
10143TIP3    H251845   2.954   4.427   2.744 -0.1464  0.1225 -0.4108
10144TIP3   OH251846   5.761   3.025  12.881  0.2128  0.3579 -0.2249
10144TIP3    H151847   5.724   3.105  12.918  0.9708  0.2985  0.7185
10144TIP3    H251848   5.855   3.042  12.876  0.5930 -0.9520  1.3914
10145TIP3   OH251849   4.319   5.119   0.620 -0.1513  0.4741 -0.1183
10145TIP3    H151850   4.272   5.048   0.576  0.1126  0.2077  0.0186
10145TIP3    H251851   4.303   5.196   0.566  1.5794 -0.1720 -1.6750
10146TIP3   OH251852   4.248   6.740  14.747 -0.3344  0.1228 -0.2394
10146TIP3    H151853   4.273   6.711  14.835  0.4544  0.0050 -0.4909
10146TIP3    H251854   4.199   6.667  14.710 -1.2172  0.4157  0.3213
10147TIP3   OH251855   3.321   5.380   5.956  0.1577  0.1699 -0.0960
10147TIP3    H151856   3.233   5.391   5.994 -0.1444  2.5886 -1.3194
10147TIP3    H251857   3.343   5.466   5.921  3.0185 -0.3986  0.0865
10148TIP3   OH251858   4.144   1.416  14.813  0.3023 -0.2854  0.4208
10148TIP3    H151859   4.164   1.475  14.886  1.3086  0.7289 -0.6320
10148TIP3    H251860   4.128   1.331  14.854 -1.6213  0.7566  2.0493
10149TIP3   OH251861   1.426   4.279   0.536 -0.0550  0.0546  0.1041
10149TIP3    H151862   1.334   4.307   0.530 -0.4967 -0.8257  1.8676
10149TIP3    H251863   1.463   4.335   0.605  0.6100  0.1047 -0.2898
10150TIP3   OH251864   1.618   5.591  13.607  0.1898  0.3124 -0.0104
10150TIP3    H151865   1.528   5.559  13.602  0.5946 -0.9687  0.4600
10150TIP3    H251866   1.612   5.684  13.586 -1.2248  0.2204 -0.0890
10151TIP3   OH251867   6.635   3.893   3.852 -0.0878  0.4450 -0.7478
10151TIP3    H151868   6.596   3.820   3.901 -0.6515  0.2555 -1.4760
10151TIP3    H251869   6.728   3.892   3.878 -0.4099  0.4750  0.4706
10152TIP3   OH251870   6.465   0.789  15.105 -0.9284 -0.5222  0.3259
10152TIP3    H151871   6.437   0.868  15.059 -0.0118 -0.0812  0.5009
10152TIP3    H251872   6.391   0.765  15.160 -1.1833  0.2784  0.3383
10153TIP3   OH251873   1.171   4.404   3.693  0.0122  0.0429  0.3659
10153TIP3    H151874   1.127   4.485   3.716  1.8174  1.4460 -0.8390
10153TIP3    H251875   1.180   4.356   3.775 -1.2080  0.9941  1.0663
10154TIP3   OH251876   3.429   0.283   2.784 -0.7791 -0.0278 -0.5102
10154TIP3    H151877   3.359   0.271   2.720  0.1017  0.9747 -1.7107
10154TIP3    H251878   3.494   0.216   2.761 -0.3216  0.5351 -0.8687
10155TIP3   OH251879   3.836   2.877  14.196  0.1815  0.1802 -0.4130
10155TIP3    H151880   3.773   2.863  14.125  0.8483  0.6967 -1.1186
10155TIP3    H251881   3.861   2.969  14.187  0.6128  0.1272  0.2201
10156TIP3   OH251882   0.886   5.238  15.755 -0.1439  0.0013 -0.1156
10156TIP3    H151883   0.968   5.285  15.765 -0.9292  1.0657  1.9605
10156TIP3    H251884   0.912   5.149  15.731  1.6346  0.2756  0.6165
10157TIP3   OH251885   1.281   4.022   5.904  0.8161 -0.2008 -0.8313
10157TIP3    H151886   1.230   3.958   5.953  1.3963 -0.7518 -0.9232
10157TIP3    H251887   1.283   4.100   5.959  0.1192 -0.2723 -0.7031
10158TIP3   OH251888   1.103   4.464  11.560 -0.2975 -0.7171  0.1949
10158TIP3    H151889   1.103   4.458  11.656  0.7918 -0.5234  0.2215
10158TIP3    H251890   1.012   4.478  11.537 -0.7115 -1.7268  1.1437
10159TIP3   OH251891   4.539   1.021   3.235  0.1765  0.1079 -0.0114
10159TIP3    H151892   4.510   1.003   3.325 -2.6073 -0.9772 -1.0250
10159TIP3    H251893   4.576   0.938   3.205 -1.8269 -0.5510 -0.8319
10160TIP3   OH251894   6.303   0.865   5.308  0.1064  0.7108  0.3626
10160TIP3    H151895   6.214   0.831   5.311  0.3097 -0.3158 -2.3938
10160TIP3    H251896   6.298   0.945   5.256  0.7848  0.6830  0.2367
10161TIP3   OH251897   5.049   2.419   1.583 -0.2951  0.5343 -0.6714
10161TIP3    H151898   5.124   2.364   1.608 -1.0184  0.3408  1.2122
10161TIP3    H251899   4.973   2.372   1.616 -1.0244  2.0672 -0.0597
10162TIP3   OH251900   2.927   1.075  12.991  0.1992  0.1925  0.2210
10162TIP3    H151901   2.980   1.009  12.947  0.2582  0.0718  0.4684
10162TIP3    H251902   2.883   1.123  12.921  2.8912  2.2661 -0.1957
10163TIP3   OH251903   2.212   6.339  15.186  0.5560 -0.3536  0.3171
10163TIP3    H151904   2.121   6.366  15.194  0.5589  0.1091 -1.0561
10163TIP3    H251905   2.216   6.293  15.102  2.1275  2.0309 -1.0305
10164TIP3   OH251906   5.041   4.278  13.295  0.6883 -0.3377  0.9144
10164TIP3    H151907   4.996   4.194  13.303  1.7628 -0.7998  2.8137
10164TIP3    H251908   5.105   4.265  13.225 -1.6537  0.1578 -1.4346
10165TIP3   OH251909   2.997   5.143   6.386 -0.0339  0.3361 -0.6391
10165TIP3    H151910   2.974   5.204   6.315 -1.6923  0.0705 -0.3806
10165TIP3    H251911   3.011   5.199   6.462  1.5018  0.6030 -1.0748
10166TIP3   OH251912   3.306   5.672  16.881  0.0218  0.2758 -0.5101
10166TIP3    H151913   3.350   5.748  16.920 -0.9914 -0.6617  2.7859
10166TIP3    H251914   3.224   5.665  16.930 -0.0161 -2.8126 -0.8650
10167TIP3   OH251915   4.609   5.018  13.189  0.0832 -0.1717  0.4684
10167TIP3    H151916   4.683   4.971  13.226  0.9159  0.1715 -0.7288
10167TIP3    H251917   4.632   5.111  13.198 -0.2882 -0.0589  0.2810
10168TIP3   OH251918   2.838   1.450  12.436  0.0203  0.2032  0.2496
10168TIP3    H151919   2.820   1.360  12.409  1.7227  0.0134 -0.3950
10168TIP3    H251920   2.762   1.500  12.407 -1.0028 -1.0379  0.7266
10169TIP3   OH251921   1.068   0.783  11.596  0.0677 -0.3318 -0.0544
10169TIP3    H151922   1.013   0.847  11.640 -0.1110 -1.4239  1.3917
10169TIP3    H251923   1.135   0.759  11.661 -0.9658 -2.9304  0.1770
10170TIP3   OH251924   2.847   3.955   0.264  0.5464  0.9242 -0.3531
10170TIP3    H151925   2.853   4.049   0.280 -0.1007  0.6890  1.5908
10170TIP3    H251926   2.804   3.920   0.342  2.9385 -1.3038  0.1155
10171TIP3   OH251927   5.592   4.169   5.185  0.7935  0.0986 -0.2554
10171TIP3    H151928   5.594   4.087   5.134  1.6572  0.0184 -0.1081
10171TIP3    H251929   5.534   4.226   5.135  0.3482 -0.5269 -0.4758
10172TIP3   OH251930   6.452   2.582  16.762  0.2794 -0.5339 -0.5693
10172TIP3    H151931   6.374   2.637  16.764 -0.3846 -1.4733 -0.3440
10172TIP3    H251932   6.519   2.638  16.722 -0.2383  0.5999  0.1002
10173TIP3   OH251933   2.430   3.836   0.202  0.5846  0.4060 -0.7079
10173TIP3    H151934   2.410   3.841   0.296  0.3847 -3.4765 -0.3919
10173TIP3    H251935   2.473   3.752   0.191 -0.2031  0.3144 -4.2489
10174TIP3   OH251936   1.785   5.044  15.823  0.0696 -0.0128 -0.2814
10174TIP3    H151937   1.857   4.992  15.788  2.0629  1.7208  1.0186
10174TIP3    H251938   1.774   5.013  15.913 -1.1124 -0.5392 -0.5906
10175TIP3   OH251939   2.388   6.797   5.506 -0.2220  0.4491 -0.4106
10175TIP3    H151940   2.413   6.883   5.474  0.3842 -0.0923 -1.4319
10175TIP3    H251941   2.399   6.739   5.431 -3.6239 -0.0295 -0.6935
10176TIP3   OH251942   4.503   2.439  11.745 -0.2721  0.6507 -0.1058
10176TIP3    H151943   4.518   2.346  11.727 -0.0051  0.3655  1.4919
10176TIP3    H251944   4.467   2.473  11.663  1.1519 -0.4865 -1.2626
10177TIP3   OH251945   2.666   3.814   2.751  0.8227 -0.2214  0.5578
10177TIP3    H151946   2.587   3.782   2.793 -0.0209  2.4105  1.1844
10177TIP3    H251947   2.650   3.803   2.657  0.5493 -1.4290  0.7328
10178TIP3   OH251948   5.241   2.547  16.144 -0.7349 -0.2302  0.1558
10178TIP3    H151949   5.332   2.561  16.172 -1.2274  0.2259  1.6457
10178TIP3    H251950   5.220   2.458  16.172 -0.8789 -0.1820  0.2048
10179TIP3   OH251951   6.106   1.533  14.724 -0.5705  0.3924  0.3582
10179TIP3    H151952   6.161   1.501  14.653 -0.7449 -0.3330  0.5352
10179TIP3    H251953   6.159   1.521  14.803 -1.4587 -1.6518  0.7112
10180TIP3   OH251954   5.632   5.946   4.411 -0.0183  0.3030 -0.4189
10180TIP3    H151955   5.612   5.876   4.474 -0.7449  1.5516  0.7936
10180TIP3    H251956   5.594   5.915   4.329 -0.5083 -0.6478  0.1426
10181TIP3   OH251957   0.596   6.172   5.250 -0.1315  0.0617 -0.4700
10181TIP3    H151958   0.577   6.087   5.289  0.9331 -0.4324 -0.9696
10181TIP3    H251959   0.510   6.210   5.233 -0.6323 -0.9111 -0.2421
10182TIP3   OH251960   3.610   2.713   5.118  0.0477  0.1375 -0.3778
10182TIP3    H151961   3.615   2.618   5.109  0.4665 -0.0340  1.3584
10182TIP3    H251962   3.597   2.745   5.029 -0.3654 -1.5589 -0.9582
10183TIP3   OH251963   1.995   2.331   2.409 -0.3064 -0.0965  0.3150
10183TIP3    H151964   1.920   2.390   2.401 -0.5404 -0.6093 -1.7524
10183TIP3    H251965   2.022   2.339   2.501 -2.9363  0.0253  1.1503
10184TIP3   OH251966   3.002   4.383   6.261  0.2992 -0.5574 -0.0404
10184TIP3    H151967   2.982   4.382   6.355 -2.2316 -1.4623 -0.5049
10184TIP3    H251968   3.009   4.475   6.238 -0.1009 -0.2970  0.8529
10185TIP3   OH251969   0.753   0.129   3.561 -0.0070  0.2570 -0.2343
10185TIP3    H151970   0.749   0.173   3.476 -0.2670  0.4253 -0.1356
10185TIP3    H251971   0.834   0.161   3.600  0.4043 -0.2443 -0.6451
10186TIP3   OH251972   3.845   5.209   1.680 -0.1999  0.7316 -0.7314
10186TIP3    H151973   3.919   5.153   1.659  0.4675  1.6465 -0.8819
10186TIP3    H251974   3.769   5.165   1.641  0.0476 -0.8759  0.5192
10187TIP3   OH251975   2.391   5.102  15.723 -0.1955 -0.3324 -0.3759
10187TIP3    H151976   2.338   5.026  15.746 -0.0106 -0.3062  0.1497
10187TIP3    H251977   2.329   5.166  15.689 -0.5375 -0.2172  0.4460
10188TIP3   OH251978   1.749   0.460   4.507 -0.3803  0.3713 -0.0003
10188TIP3    H151979   1.759   0.533   4.568 -1.5012  0.1267  0.4867
10188TIP3    H251980   1.819   0.399   4.531 -0.4149  0.5722  0.6127
10189TIP3   OH251981   2.875   3.143  12.962  0.1350  0.1808 -0.1128
10189TIP3    H151982   2.880   3.201  12.885 -0.1174 -1.0102 -1.0519
10189TIP3    H251983   2.877   3.055  12.926  1.2863 -0.4286  1.3495
10190TIP3   OH251984   2.246   5.814   5.962 -0.1740  0.2033  0.9769
10190TIP3    H151985   2.277   5.869   5.890 -1.5146  1.2286  1.1582
10190TIP3    H251986   2.228   5.729   5.921 -2.2818  1.1707 -0.2289
10191TIP3   OH251987   3.780   4.159  13.520 -0.0836 -0.1262  0.3296
10191TIP3    H151988   3.693   4.191  13.498 -0.8208 -2.4297 -0.4131
10191TIP3    H251989   3.829   4.163  13.438  0.0936 -0.0327  0.4407
10192TIP3   OH251990   6.371   4.621   1.917 -0.2083  0.5893  0.1327
10192TIP3    H151991   6.386   4.531   1.889 -0.8248 -0.3316  2.5713
10192TIP3    H251992   6.414   4.674   1.850  1.8507 -1.5453 -0.3583
10193TIP3   OH251993   4.857   0.212   4.880  0.2716 -0.2868 -0.1708
10193TIP3    H151994   4.880   0.279   4.816 -1.0699  1.0691  0.6945
10193TIP3    H251995   4.941   0.181   4.914  0.9402  0.1656 -1.3812
10194TIP3   OH251996   2.022   0.717   5.101  0.0938  0.6543  0.2636
10194TIP3    H151997   2.017   0.674   5.186  0.6474 -0.3014 -0.1766
10194TIP3    H251998   2.102   0.769   5.106 -0.0742  0.9017  0.4514
10195TIP3   OH251999   5.919   3.316   2.884 -0.0139 -0.1173  0.0092
10195TIP3    H152000   5.887   3.395   2.928  0.9081 -0.5417  1.5391
10195TIP3    H252001   5.842   3.280   2.840 -0.8048  0.7854  0.6097
10196TIP3   OH252002   0.590   5.438  16.581  0.4991  0.0019 -0.0611
10196TIP3    H152003   0.533   5.373  16.541  0.1935 -0.2774  0.8132
10196TIP3    H252004   0.672   5.392  16.597  0.2350 -0.2235  0.6911
10197TIP3   OH252005   2.146   2.647  17.002 -0.3636 -0.1950 -0.1302
10197TIP3    H152006   2.051   2.638  17.008 -0.4332  0.2499 -0.5137
10197TIP3    H252007   2.174   2.659  17.093 -0.8451  1.1447 -0.1316
10198TIP3   OH252008   2.003   6.412   3.442 -0.6359 -0.4063  0.0313
10198TIP3    H152009   2.062   6.487   3.456  0.0253 -0.7241 -0.9615
10198TIP3    H252010   1.975   6.387   3.530  0.7980 -0.3059  0.5506
10199TIP3   OH252011   1.289   3.308   0.905  0.2615  0.1171  0.3620
10199TIP3    H152012   1.302   3.270   0.992  1.2657 -0.2599  0.0589
10199TIP3    H252013   1.325   3.243   0.845 -0.9486  0.1049 -0.3880
10200TIP3   OH252014   4.155   4.609   0.766  0.5141  0.0532  0.2190
10200TIP3    H152015   4.182   4.520   0.788  0.8812  0.2752  0.6739
10200TIP3    H252016   4.114   4.642   0.846  1.7933  0.8404  0.5854
10201TIP3   OH252017   0.467   6.482   3.550  0.6281  0.2775 -0.0588
10201TIP3    H152018   0.454   6.473   3.645 -1.0594 -1.2230 -0.3836
10201TIP3    H252019   0.449   6.395   3.515  2.6953  0.4131 -1.6507
10202TIP3   OH252020   1.362   2.492  15.996  0.3273  0.3229 -0.0735
10202TIP3    H152021   1.444   2.445  15.989  0.2459  0.0778  0.5907
10202TIP3    H252022   1.295   2.429  15.969  0.1209 -0.2757  1.7534
10203TIP3   OH252023   4.804   3.470  16.807 -0.5688 -0.0931  0.2179
10203TIP3    H152024   4.835   3.437  16.723  0.5403 -1.1411  0.9913
10203TIP3    H252025   4.879   3.518  16.843 -0.8997  0.0165  0.7734
10204TIP3   OH252026   4.508   4.125  12.776 -0.5700 -0.1208  0.2885
10204TIP3    H152027   4.464   4.122  12.861  0.1667 -0.0165  0.6764
10204TIP3    H252028   4.527   4.034  12.755  2.0112 -0.0055  1.7094
10205TIP3   OH252029   5.432   2.059  11.688 -0.5361 -0.0873 -0.4750
10205TIP3    H152030   5.505   2.059  11.626  1.4930  1.2700  1.7405
10205TIP3    H252031   5.381   2.137  11.665  0.1131  0.3232 -0.5388
10206TIP3   OH252032   0.797   0.702  12.573  0.5220  0.4171  0.0716
10206TIP3    H152033   0.810   0.763  12.646 -1.3597 -0.3781  1.1709
10206TIP3    H252034   0.728   0.742  12.521  0.9706  0.3640 -0.5672
10207TIP3   OH252035   4.907   1.498   0.241 -0.7137  0.3387 -0.9601
10207TIP3    H152036   4.923   1.404   0.238  1.0659  0.4875  1.3267
10207TIP3    H252037   4.909   1.525   0.149 -0.9688 -1.7929 -1.6451
10208TIP3   OH252038   4.760   0.528   0.073 -0.6990 -0.7210 -0.1701
10208TIP3    H152039   4.700   0.480   0.129 -0.6652 -0.5456  0.0188
10208TIP3    H252040   4.819   0.461   0.038 -0.9703 -0.8844 -0.3159
10209TIP3   OH252041   0.096   2.890  12.389 -0.3499  0.2725  0.4621
10209TIP3    H152042   0.137   2.971  12.359 -0.2539  0.8417  2.0032
10209TIP3    H252043   0.094   2.833  12.312  0.2138  1.4832 -0.4759
10210TIP3   OH252044   5.626   3.691   3.112 -0.2665  0.6530 -0.1125
10210TIP3    H152045   5.707   3.723   3.073  0.0389  1.5590  1.1813
10210TIP3    H252046   5.600   3.761   3.173 -1.5836  0.0207  0.0817
10211TIP3   OH252047   3.899   0.731  16.425 -0.4084  0.0823  0.4137
10211TIP3    H152048   3.974   0.693  16.471  0.2555  0.1790 -0.5701
10211TIP3    H252049   3.846   0.656  16.400  0.4806 -0.1712 -0.8020
10212TIP3   OH252050   6.782   0.117   0.251 -0.0711 -0.7012  0.4870
10212TIP3    H152051   6.857   0.066   0.218 -0.3073 -1.2359  0.7617
10212TIP3    H252052   6.738   0.148   0.172 -0.1467 -1.2585  0.3061
10213TIP3   OH252053   5.888   0.458  13.149 -0.3539  0.1636 -0.2606
10213TIP3    H152054   5.962   0.515  13.168 -1.2755  1.4781 -0.4214
10213TIP3    H252055   5.814   0.518  13.138 -1.6638 -1.1575  0.9196
10214TIP3   OH252056   6.547   2.510  17.106  0.0533 -0.0128  0.3862
10214TIP3    H152057   6.457   2.525  17.136  0.0864  0.7617  0.1323
10214TIP3    H252058   6.548   2.547  17.017  0.8390  0.7160  0.6900
10215TIP3   OH252059   1.025   5.144   2.474  0.6367 -0.6328  0.6649
10215TIP3    H152060   0.958   5.084   2.506 -1.5758  0.3397 -1.8092
10215TIP3    H252061   1.069   5.096   2.405  0.0668 -0.0608 -0.1075
10216TIP3   OH252062   4.927   1.030  16.788  0.0510 -0.4442 -0.2443
10216TIP3    H152063   4.896   0.968  16.723  0.3133 -1.5942  0.6923
10216TIP3    H252064   4.901   1.116  16.755 -0.2968 -1.0475 -1.5751
10217TIP3   OH252065   2.206   3.003   1.719 -0.3839  0.2077 -0.3236
10217TIP3    H152066   2.254   2.949   1.657  0.6274  0.7633 -0.0509
10217TIP3    H252067   2.119   2.964   1.723  0.3257 -1.4133 -0.1105
10218TIP3   OH252068   1.909   6.187   4.480 -0.4651  0.3004 -0.1603
10218TIP3    H152069   1.973   6.137   4.530  0.5448  1.4006 -0.3143
10218TIP3    H252070   1.943   6.188   4.391 -1.3272 -0.1203 -0.5044
10219TIP3   OH252071   2.647   0.039   0.914 -0.0207 -0.0588  0.1582
10219TIP3    H152072   2.574  -0.021   0.925 -0.1976  0.2981  1.0217
10219TIP3    H252073   2.620   0.098   0.844 -0.3412 -0.2484  0.1206
10220TIP3   OH252074   4.850   0.254   6.759 -0.4990 -0.0642  0.2987
10220TIP3    H152075   4.938   0.231   6.788 -0.1943  0.4436 -0.1813
10220TIP3    H252076   4.855   0.349   6.744 -1.5627  0.2500  1.7625
10221TIP3   OH252077   1.438   2.823   0.881  0.7287 -0.0660  0.2615
10221TIP3    H152078   1.464   2.733   0.902  0.2513 -0.0772  0.8221
10221TIP3    H252079   1.350   2.816   0.845 -0.6040  0.4241  3.1565
10222TIP3   OH252080   1.735   2.126  15.265  0.1353  0.5847  0.2669
10222TIP3    H152081   1.821   2.143  15.303  0.0608 -0.1451  0.7662
10222TIP3    H252082   1.705   2.045  15.306 -0.5307  0.5023 -0.3522
10223TIP3   OH252083   1.695   3.056  14.006 -0.8632  0.5072 -0.2165
10223TIP3    H152084   1.613   3.048  13.958  0.4090  0.3091 -2.5252
10223TIP3    H252085   1.717   2.966  14.031 -0.5629  0.3326 -1.0679
10224TIP3   OH252086   6.725   1.459   1.002 -0.0253 -0.0586 -1.0517
10224TIP3    H152087   6.637   1.495   1.010  0.3712  0.6240  0.7245
10224TIP3    H252088   6.774   1.525   0.954  0.1088  0.7105  0.1106
10225TIP3   OH252089   2.532   0.706  14.665 -0.4365 -0.2556  0.1903
10225TIP3    H152090   2.496   0.650  14.596 -2.4462 -1.2047  1.8898
10225TIP3    H252091   2.456   0.730  14.718  0.8725  1.4115  1.4048
10226TIP3   OH252092   0.576   5.951   5.406  0.1504 -0.1422  0.3490
10226TIP3    H152093   0.620   5.887   5.462  0.0844 -1.0339 -0.5928
10226TIP3    H252094   0.491   5.964   5.449  0.4063 -0.2206  0.8868
10227TIP3   OH252095   1.046   4.069  16.482  0.2834  0.1912 -0.4940
10227TIP3    H152096   1.099   3.992  16.463 -1.8374 -0.8886 -2.4217
10227TIP3    H252097   1.087   4.140  16.433 -0.5647 -0.8669 -2.8676
10228TIP3   OH252098   5.369   5.940  14.889  0.1475 -0.5340  0.5975
10228TIP3    H152099   5.458   5.928  14.857 -0.2246 -2.0301  0.0569
10228TIP3    H252100   5.361   6.034  14.902  0.8207  0.0201 -2.3026
10229TIP3   OH252101   6.452   3.993   2.697  0.5666  0.2459 -0.1656
10229TIP3    H152102   6.481   4.052   2.767 -1.1805 -0.8497  1.6151
10229TIP3    H252103   6.407   3.922   2.744  0.0987 -1.0089 -2.3889
10230TIP3   OH252104   4.965   3.542   2.418  0.2634  0.4849 -0.4345
10230TIP3    H152105   4.879   3.501   2.422  0.4050  0.3049  2.3365
10230TIP3    H252106   5.027   3.470   2.430  0.8055  0.7167 -1.6562
10231TIP3   OH252107   4.616   4.318  16.119  0.6874 -0.3499  0.2883
10231TIP3    H152108   4.695   4.324  16.173 -0.0660 -0.7896  1.4770
10231TIP3    H252109   4.644   4.268  16.042  2.3177  2.0689 -0.8130
10232TIP3   OH252110   4.477   4.785   4.349 -0.1380  0.1601 -0.4617
10232TIP3    H152111   4.403   4.797   4.289 -1.0054  0.3368  0.6023
10232TIP3    H252112   4.539   4.732   4.300 -1.3924 -0.8136 -1.0566
10233TIP3   OH252113   5.811   5.603  10.592 -0.7178 -0.0011  0.2699
10233TIP3    H152114   5.802   5.698  10.586  2.8301  0.4878  0.2472
10233TIP3    H252115   5.840   5.576  10.504 -0.5649 -0.9369  0.5917
10234TIP3   OH252116   5.240   0.026   0.247 -0.3326 -0.6136  0.1502
10234TIP3    H152117   5.163  -0.014   0.287 -0.6294 -0.6406 -0.4323
10234TIP3    H252118   5.207   0.067   0.167  0.1824 -0.2446  0.1209
10235TIP3   OH252119   6.245   3.306  12.883 -0.1506 -0.4466  0.1231
10235TIP3    H152120   6.281   3.279  12.968 -1.0750 -1.1424  0.3063
10235TIP3    H252121   6.302   3.263  12.819  0.6521  0.2150  0.3688
10236TIP3   OH252122   4.901   0.249   2.709  0.4396 -0.2286 -0.1702
10236TIP3    H152123   4.945   0.178   2.664  0.6323 -0.7636  0.8388
10236TIP3    H252124   4.971   0.300   2.750  0.1588 -1.1165  1.4884
10237TIP3   OH252125   3.776   1.557   2.353 -0.1072  0.4602 -0.1680
10237TIP3    H152126   3.771   1.591   2.443 -0.3711  0.3946 -0.1580
10237TIP3    H252127   3.686   1.532   2.332  0.0785 -0.1899 -0.1968
10238TIP3   OH252128   0.572   6.321   3.875  0.1953  0.5531 -0.4729
10238TIP3    H152129   0.605   6.253   3.815  1.3276  1.1454 -0.5663
10238TIP3    H252130   0.480   6.330   3.853 -0.4265 -2.0792  0.6457
10239TIP3   OH252131   1.490   2.410  12.828  0.1100  0.4904 -0.7673
10239TIP3    H152132   1.524   2.367  12.749  2.1653  1.0281 -0.2310
10239TIP3    H252133   1.396   2.395  12.824  0.5007 -2.5864 -1.4763
10240TIP3   OH252134   2.138   2.264   4.361  0.1322  0.3249  0.3213
10240TIP3    H152135   2.103   2.351   4.377 -0.2984  0.4421 -1.1063
10240TIP3    H252136   2.067   2.205   4.385  0.2762  0.3778  0.8938
10241TIP3   OH252137   5.591   4.014  14.521 -0.3120 -0.1064  0.6638
10241TIP3    H152138   5.531   3.941  14.507  2.2971 -2.6097  1.4569
10241TIP3    H252139   5.641   3.989  14.599  1.3177  2.1383  0.4398
10242TIP3   OH252140   2.311   5.962   5.192  0.3109 -0.1780  0.3549
10242TIP3    H152141   2.220   5.941   5.212  1.3110 -1.9763  3.9299
10242TIP3    H252142   2.324   6.050   5.229  0.7463 -1.3226  3.2371
10243TIP3   OH252143   4.839   6.476   6.378 -0.0705  0.1253  0.4823
10243TIP3    H152144   4.753   6.440   6.399  0.4897 -0.9150  1.0583
10243TIP3    H252145   4.901   6.407   6.402  0.9454  0.9454  0.3006
10244TIP3   OH252146   4.968   1.697  12.057  0.5797  0.4436  0.2997
10244TIP3    H152147   4.995   1.785  12.084  2.2817  1.0162 -2.8736
10244TIP3    H252148   5.046   1.642  12.072  0.9111  0.3856 -1.4722
10245TIP3   OH252149   5.736   4.190   1.309 -0.4556  0.1365  0.4140
10245TIP3    H152150   5.809   4.249   1.292 -0.8596  0.5335  0.0410
10245TIP3    H252151   5.664   4.224   1.255 -0.2002 -1.7201 -1.2061
10246TIP3   OH252152   6.499   0.216   2.811  0.3242 -0.6344  0.0724
10246TIP3    H152153   6.473   0.145   2.870 -0.1407  1.1665  2.1375
10246TIP3    H252154   6.420   0.268   2.798  1.1032  0.6256  0.2128
10247TIP3   OH252155   0.207   5.475  10.774 -0.1157  0.0197  0.4244
10247TIP3    H152156   0.217   5.402  10.834  0.6143  0.7276  1.1840
10247TIP3    H252157   0.116   5.470  10.745 -1.2295  0.9972  3.3768
10248TIP3   OH252158   0.060   4.035   3.222 -0.3181 -0.4297 -0.8981
10248TIP3    H152159  -0.020   4.039   3.275  0.1811 -0.4951 -0.1208
10248TIP3    H252160   0.092   3.946   3.232  1.1936  0.2505  0.8585
10249TIP3   OH252161   1.788   6.795  16.353 -0.3761 -0.0405  0.7978
10249TIP3    H152162   1.798   6.872  16.296 -2.1804  0.7478  1.5018
10249TIP3    H252163   1.850   6.731  16.316  0.3686  1.3339 -0.4752
10250TIP3   OH252164   2.415   1.598  15.940  0.0880 -0.5635 -0.0631
10250TIP3    H152165   2.379   1.639  15.862 -3.0394  0.3968  1.6995
10250TIP3    H252166   2.370   1.514  15.946  0.3363 -0.6558  0.6863
10251TIP3   OH252167   0.747   1.876   1.009  0.6249  0.4945 -0.3377
10251TIP3    H152168   0.695   1.897   1.087  1.2923 -0.2915  0.3449
10251TIP3    H252169   0.748   1.957   0.959 -1.1941  0.5601 -0.3567
10252TIP3   OH252170   5.430   3.457   0.182 -0.2181  0.3055  0.0203
10252TIP3    H152171   5.480   3.387   0.225 -0.5885  0.6595  1.0811
10252TIP3    H252172   5.347   3.416   0.159  0.4082 -0.1903 -1.4236
10253TIP3   OH252173   6.513   0.898  10.644  0.3087 -0.3147 -0.7049
10253TIP3    H152174   6.428   0.883  10.604 -0.2440 -0.8135  0.6036
10253TIP3    H252175   6.507   0.986  10.681  0.1444 -0.5699 -0.1120
10254TIP3   OH252176   1.745   3.630  12.694 -0.1122  0.2997  0.3426
10254TIP3    H152177   1.693   3.700  12.733 -2.1370 -0.6464 -0.4730
10254TIP3    H252178   1.827   3.671  12.667 -2.0206  2.8882 -2.0165
10255TIP3   OH252179   2.516   1.313   4.741 -0.1518 -0.5194 -1.4111
10255TIP3    H152180   2.508   1.285   4.650  1.0420 -0.3538 -1.5925
10255TIP3    H252181   2.554   1.401   4.735  0.6411 -0.7973 -0.7577
10256TIP3   OH252182   2.271   5.079   3.430  0.1855 -0.6660  0.8381
10256TIP3    H152183   2.220   5.160   3.438  0.1763 -0.8219  2.5835
10256TIP3    H252184   2.234   5.021   3.496 -0.3200 -2.4155 -0.8680
10257TIP3   OH252185   1.637   2.709   1.554 -0.1152 -0.2132  0.1066
10257TIP3    H152186   1.609   2.631   1.601  1.1688  0.4901  2.2236
10257TIP3    H252187   1.728   2.722   1.582  0.0687  1.4053 -1.0720
10258TIP3   OH252188   1.816   1.355  12.553  0.2850 -0.3000 -0.3327
10258TIP3    H152189   1.881   1.411  12.594 -0.1513  0.2468 -0.3738
10258TIP3    H252190   1.856   1.328  12.471  0.2726  0.4346 -0.5899
10259TIP3   OH252191   2.099   3.117   2.749 -0.8220  0.2062 -0.1198
10259TIP3    H152192   2.173   3.107   2.808 -2.3371  0.9477  2.0517
10259TIP3    H252193   2.062   3.029   2.741 -0.6127  0.1015  0.0695
10260TIP3   OH252194   5.862   2.222   1.668 -0.0631  0.0302 -0.2982
10260TIP3    H152195   5.901   2.264   1.592 -1.3743 -0.5999 -1.3524
10260TIP3    H252196   5.936   2.184   1.715  0.7373  0.0885 -1.4647
10261TIP3   OH252197   3.765   5.219   1.318  0.5066 -0.0884 -0.0070
10261TIP3    H152198   3.686   5.167   1.313  1.4104 -1.4570 -0.6492
10261TIP3    H252199   3.807   5.208   1.232  2.2777 -0.8916  0.9038
10262TIP3   OH252200   2.041   4.407  16.494  0.0567  0.1544  0.0595
10262TIP3    H152201   1.983   4.456  16.436 -0.0264 -0.2030 -0.1665
10262TIP3    H252202   1.988   4.332  16.523 -0.3522  1.0306  1.6562
10263TIP3   OH252203   6.021   0.987  16.146 -0.2673 -0.5840  0.1912
10263TIP3    H152204   6.092   0.944  16.194 -1.0342 -1.4323  0.6037
10263TIP3    H252205   6.014   1.074  16.186  0.7393 -0.3691 -0.0752
10264TIP3   OH252206   6.717   4.838  16.717 -0.4166  0.7826  0.3442
10264TIP3    H152207   6.706   4.756  16.668  0.1198  1.5396 -1.1029
10264TIP3    H252208   6.810   4.858  16.708 -0.4048  1.1794  1.3102
10265TIP3   OH252209   2.338   1.256  15.385 -0.4260  0.0326  0.0937
10265TIP3    H152210   2.297   1.287  15.466  1.3035  1.3393  0.5337
10265TIP3    H252211   2.354   1.163  15.401 -0.4806  0.1830  1.0914
10266TIP3   OH252212   0.965   1.421   6.431  0.1302 -0.7592 -0.5359
10266TIP3    H152213   0.911   1.478   6.485  0.4348  0.2553 -1.2613
10266TIP3    H252214   0.905   1.356   6.395 -0.0901 -1.3772  0.9014
10267TIP3   OH252215   4.019   4.397   3.921 -0.1991 -0.2395 -0.3824
10267TIP3    H152216   4.056   4.311   3.941  0.5269  0.5849  2.1818
10267TIP3    H252217   4.075   4.459   3.968 -1.0856  1.5905 -1.6332
10268TIP3   OH252218   5.146   0.282  15.247  0.4241  0.0566  0.1772
10268TIP3    H152219   5.097   0.297  15.328  0.3588  1.9851 -0.1704
10268TIP3    H252220   5.193   0.364  15.232 -1.3060  0.6356 -2.9283
10269TIP3   OH252221   5.207   0.143  16.183  0.1683  0.0474  0.9229
10269TIP3    H152222   5.254   0.221  16.214  2.3215 -1.0377  0.6019
10269TIP3    H252223   5.215   0.146  16.088 -0.3287 -0.2060  0.8733
10270TIP3   OH252224   6.103   1.798  15.679 -0.0736 -0.9023 -0.3034
10270TIP3    H152225   6.054   1.779  15.759  1.5353 -1.0471  0.6927
10270TIP3    H252226   6.129   1.712  15.646  0.8290 -0.7741  0.0500
10271TIP3   OH252227   5.100   5.407  14.852  0.0983 -0.2448  0.1961
10271TIP3    H152228   5.154   5.413  14.773  1.8987 -1.9448  1.1998
10271TIP3    H252229   5.112   5.317  14.882 -0.2383  0.4411  2.5954
10272TIP3   OH252230   5.437   2.818  16.288 -0.0085 -0.4139 -0.2468
10272TIP3    H152231   5.455   2.724  16.291  0.3761 -0.3159  1.4511
10272TIP3    H252232   5.419   2.836  16.196 -2.8308 -2.6468 -0.2543
10273TIP3   OH252233   2.942   6.790  14.784 -0.0818 -0.3977 -0.1676
10273TIP3    H152234   3.012   6.741  14.826 -0.8277  0.3284  2.0484
10273TIP3    H252235   2.862   6.741  14.804 -0.4436 -0.2190 -1.0892
10274TIP3   OH252236   2.680   1.544  15.983 -0.0370 -0.9461 -0.0922
10274TIP3    H152237   2.717   1.632  15.975  1.0791 -1.1785  1.9583
10274TIP3    H252238   2.594   1.550  15.942 -0.1842  1.2295  0.4374
10275TIP3   OH252239   0.119   6.635   2.903  0.1459 -0.1806 -0.6770
10275TIP3    H152240   0.026   6.618   2.921  0.4412 -0.7963  0.3748
10275TIP3    H252241   0.127   6.730   2.909 -0.1923 -0.2032  0.5050
10276TIP3   OH252242   5.565   5.159  12.726 -0.4461 -0.0856  0.6757
10276TIP3    H152243   5.642   5.158  12.670  0.0244 -1.7084  1.2886
10276TIP3    H252244   5.540   5.067  12.735 -0.9129  0.1742  2.5426
10277TIP3   OH252245   4.439   4.839  12.227  0.2084  0.1070  0.3755
10277TIP3    H152246   4.533   4.837  12.208 -0.0792 -2.2466 -1.3181
10277TIP3    H252247   4.403   4.902  12.165  0.7485  1.9593  1.8621
10278TIP3   OH252248   0.759   0.938  15.668  0.1117  0.1071  0.3642
10278TIP3    H152249   0.691   0.989  15.625 -0.2776  0.3962  1.2882
10278TIP3    H252250   0.730   0.931  15.759  0.6284 -0.9584  0.4679
10279TIP3   OH252251   3.230   4.592  12.705  0.9417 -0.7385  0.5597
10279TIP3    H152252   3.227   4.500  12.682 -0.6841  0.0366 -3.0065
10279TIP3    H252253   3.139   4.615  12.724  0.6124  0.7806 -2.2747
10280TIP3   OH252254   5.168   0.870  13.179  0.6133 -0.1422 -0.3255
10280TIP3    H152255   5.242   0.912  13.221  1.3351 -0.6517 -1.0574
10280TIP3    H252256   5.174   0.778  13.205 -0.0942 -0.0925  0.0600
10281TIP3   OH252257   6.500   4.185  13.173  1.0550  0.3004  0.6039
10281TIP3    H152258   6.510   4.247  13.100  1.7765 -1.9092 -1.3179
10281TIP3    H252259   6.428   4.221  13.225  1.2772  2.5933 -0.5286
10282TIP3   OH252260   2.913   4.386  11.281  0.3959  0.1662  0.4655
10282TIP3    H152261   2.823   4.417  11.277  0.6571  1.0758  1.1433
10282TIP3    H252262   2.966   4.465  11.269  1.0965  0.1095  2.5923
10283TIP3   OH252263   6.377   2.735  11.615 -0.1004 -0.1544 -0.4249
10283TIP3    H152264   6.339   2.819  11.641  0.5211  0.3675 -1.1325
10283TIP3    H252265   6.437   2.758  11.543 -0.4571 -1.3013 -1.1062
10284TIP3   OH252266   4.708   2.853   2.984  0.2248  0.2720 -0.4299
10284TIP3    H152267   4.730   2.849   2.891  0.6696  1.1737 -0.3752
10284TIP3    H252268   4.790   2.839   3.030  0.4549  2.1059 -0.2120
10285TIP3   OH252269   4.129   1.708   5.605 -0.7030  0.0302 -0.5382
10285TIP3    H152270   4.072   1.652   5.657  0.4186 -0.6918 -0.0281
10285TIP3    H252271   4.215   1.665   5.610  0.2195  1.8206 -0.0858
10286TIP3   OH252272   1.100   2.279  12.143  0.9210 -0.4644 -0.1255
10286TIP3    H152273   1.029   2.221  12.116  0.7624 -0.4672  0.3000
10286TIP3    H252274   1.166   2.270  12.074  0.0271  0.4026 -1.1306
10287TIP3   OH252275   6.423   3.623   2.136  0.6381 -0.0412  0.4087
10287TIP3    H152276   6.380   3.608   2.052 -0.6363  0.1045  1.0149
10287TIP3    H252277   6.514   3.599   2.121  0.5867  0.6819 -1.2128
10288TIP3   OH252278   1.634   5.069  12.753  0.2927 -0.6293  0.1839
10288TIP3    H152279   1.539   5.083  12.751  0.2755 -0.1980  2.1457
10288TIP3    H252280   1.670   5.143  12.703 -0.3882 -0.9865 -0.8755
10289TIP3   OH252281   6.797   6.260   2.295 -0.2137 -0.4069  0.1193
10289TIP3    H152282   6.819   6.272   2.388 -0.8717  0.5318  0.1668
10289TIP3    H252283   6.875   6.291   2.248 -1.2350  2.7580  0.2886
10290TIP3   OH252284   1.674   5.079  14.024  0.6084 -0.4431  1.0231
10290TIP3    H152285   1.761   5.093  14.062  1.8499  0.1275 -1.8007
10290TIP3    H252286   1.688   5.085  13.930 -2.1013 -2.6901  0.3616
10291TIP3   OH252287   2.780   6.166  14.857  0.1226  0.3063  0.7108
10291TIP3    H152288   2.833   6.233  14.813  0.9917  0.3446  1.7821
10291TIP3    H252289   2.708   6.215  14.897  0.0212  0.4238  0.3931
10292TIP3   OH252290   6.783   3.432  15.008 -0.4258  0.5632 -0.1782
10292TIP3    H152291   6.759   3.357  14.953  1.1953 -0.9080  1.0338
10292TIP3    H252292   6.764   3.404  15.097 -1.1648  2.1886  0.2270
10293TIP3   OH252293   1.512   6.782   2.176  0.0282  0.0585 -0.2232
10293TIP3    H152294   1.600   6.817   2.165 -0.9929  3.5868  1.4661
10293TIP3    H252295   1.517   6.731   2.257  0.8581 -1.4215 -1.1477
10294TIP3   OH252296   4.663   4.061  13.522  0.2247  0.3472  0.1482
10294TIP3    H152297   4.661   4.155  13.500 -0.8896  0.4963  0.8290
10294TIP3    H252298   4.723   4.055  13.596  0.2981  0.5151  0.1041
10295TIP3   OH252299   3.916   1.562  16.978  0.5474  0.0006 -0.1843
10295TIP3    H152300   3.930   1.580  16.885 -0.4228 -1.3221 -0.6130
10295TIP3    H252301   3.876   1.642  17.012  1.0455  0.5483 -0.8691
10296TIP3   OH252302   1.245   0.831  11.124  0.5379  0.7270 -0.3280
10296TIP3    H152303   1.258   0.804  11.215  2.6005 -0.6015 -0.9451
10296TIP3    H252304   1.256   0.751  11.073 -2.3843  1.0708 -1.6968
10297TIP3   OH252305   2.184   0.407  12.869  0.0351  0.6072 -0.1215
10297TIP3    H152306   2.227   0.474  12.923 -1.8782  0.0395  2.3152
10297TIP3    H252307   2.228   0.325  12.894 -0.3086  0.4422 -0.0543
10298TIP3   OH252308   3.401   6.005   2.542 -0.4133  0.3429  0.1663
10298TIP3    H152309   3.326   6.057   2.569 -1.3325 -0.9779  0.2797
10298TIP3    H252310   3.393   5.924   2.593  0.6779 -0.1169 -0.3634
10299TIP3   OH252311   1.046   0.298  10.965 -0.2521 -0.0392 -0.0360
10299TIP3    H152312   1.078   0.229  10.906 -0.7667 -0.8200  0.5784
10299TIP3    H252313   1.002   0.360  10.906 -2.6802 -1.9030 -0.3190
10300TIP3   OH252314   4.277   1.543   2.336 -0.1023  0.5524 -0.1953
10300TIP3    H152315   4.312   1.631   2.326  0.5774  0.3568  0.3646
10300TIP3    H252316   4.210   1.536   2.268  0.3454  1.2414 -0.7306
10301TIP3   OH252317   0.888   6.156  14.141 -0.3541 -0.0926 -0.0750
10301TIP3    H152318   0.955   6.128  14.078  0.2158 -0.2659  0.5866
10301TIP3    H252319   0.825   6.085  14.144  0.6127 -0.9492  0.9310
10302TIP3   OH252320   4.548   6.424  10.709  0.5252  0.1425  0.2828
10302TIP3    H152321   4.559   6.460  10.621 -2.0955  0.5475  0.0453
10302TIP3    H252322   4.545   6.501  10.766 -2.1073  0.2295  0.1339
10303TIP3   OH252323   5.785   2.802  13.361 -0.0606  0.7878  0.1813
10303TIP3    H152324   5.727   2.727  13.372 -0.5154  1.0110 -0.6118
10303TIP3    H252325   5.770   2.831  13.271  0.0528  1.8699  0.4998
10304TIP3   OH252326   1.763   0.198  13.809  0.2762  0.0305  0.1252
10304TIP3    H152327   1.710   0.177  13.733 -0.2821  0.4833  0.3853
10304TIP3    H252328   1.852   0.209  13.774  0.4841 -2.0851 -0.1158
10305TIP3   OH252329   3.236   4.488  14.056  0.0714 -0.4209  0.2265
10305TIP3    H152330   3.261   4.508  14.146 -0.0880 -2.0016  0.6516
10305TIP3    H252331   3.182   4.409  14.063  0.2408 -0.7029 -1.2704
10306TIP3   OH252332   3.678   2.863  14.480  0.4896  0.2702  0.8664
10306TIP3    H152333   3.726   2.890  14.402 -0.1111  0.8699  0.7014
10306TIP3    H252334   3.747   2.840  14.543  0.9770 -0.0400  0.2281
10307TIP3   OH252335   2.283   5.703   3.466  0.4063  0.6374 -0.3629
10307TIP3    H152336   2.274   5.652   3.385  1.6477 -0.5207  0.1803
10307TIP3    H252337   2.241   5.648   3.533  0.7723  0.8514  0.0444
10308TIP3   OH252338   0.258   2.485  13.460  0.0977  0.3031  0.1158
10308TIP3    H152339   0.331   2.545  13.447  0.2134 -0.0556 -0.9453
10308TIP3    H252340   0.195   2.535  13.512  0.4414  1.1358 -0.2540
10309TIP3   OH252341   0.058   6.700  16.157 -0.2448 -0.4445 -0.5352
10309TIP3    H152342   0.079   6.786  16.192  2.5324 -0.4923 -1.8485
10309TIP3    H252343   0.096   6.638  16.219 -0.5227 -0.6909 -0.6045
10310TIP3   OH252344   3.011   1.945   3.080 -0.3772 -0.4215 -0.0397
10310TIP3    H152345   2.980   1.998   3.006 -1.3151 -0.4555  0.3161
10310TIP3    H252346   3.090   1.902   3.047 -1.4638 -1.4282 -1.4473
10311TIP3   OH252347   4.321   2.743  16.730  0.2409  0.0853  0.1195
10311TIP3    H152348   4.260   2.679  16.767 -0.4327  0.2200 -0.7309
10311TIP3    H252349   4.381   2.690  16.677 -0.5480  0.1802 -0.8908
10312TIP3   OH252350   1.166   1.052   5.008  0.7119 -0.1159  0.0234
10312TIP3    H152351   1.237   1.004   5.050  1.0000  0.5102  0.2579
10312TIP3    H252352   1.091   0.993   5.014  1.2314 -0.8385 -0.3326
10313TIP3   OH252353   2.878   3.372  11.914 -0.3418 -0.1357  0.4199
10313TIP3    H152354   2.822   3.351  11.839  0.2748 -1.0661  0.1947
10313TIP3    H252355   2.956   3.411  11.874 -0.2014 -0.2151  0.6189
10314TIP3   OH252356   5.688   1.333  14.490  0.1074  0.0754  0.4873
10314TIP3    H152357   5.623   1.268  14.515 -1.3637  1.5125  0.5706
10314TIP3    H252358   5.765   1.282  14.464 -1.0753 -1.6730  0.2886
10315TIP3   OH252359   4.916   0.099   0.535  0.5678  0.4741  0.3416
10315TIP3    H152360   4.881   0.166   0.477  0.9604  2.0041  1.7792
10315TIP3    H252361   4.870   0.019   0.511  1.0035  0.9471 -2.2919
10316TIP3   OH252362   4.585   2.797   0.845  0.2214 -0.1014  0.6267
10316TIP3    H152363   4.505   2.811   0.793 -0.3567  0.0611  1.5393
10316TIP3    H252364   4.587   2.870   0.907  0.9190 -0.2747  0.8187
10317TIP3   OH252365   4.483   4.229  11.761  0.2227  0.1659 -0.9584
10317TIP3    H152366   4.555   4.222  11.824  0.9934  1.5957 -1.6424
10317TIP3    H252367   4.405   4.239  11.816  0.9495  2.0085 -0.1623
10318TIP3   OH252368   5.943   3.671   5.448  0.1200  0.5036  0.0749
10318TIP3    H152369   5.890   3.598   5.415  0.1405  0.5677 -0.1057
10318TIP3    H252370   5.948   3.657   5.542  1.1922 -0.4411 -0.1004
10319TIP3   OH252371   3.768   5.519  11.666  0.2263  0.1240  0.0677
10319TIP3    H152372   3.737   5.491  11.752  0.9519  0.0398  0.3037
10319TIP3    H252373   3.759   5.442  11.611 -0.0799  0.1293  0.1068
10320TIP3   OH252374   5.452   1.088   1.509  0.4855  0.2668  0.2837
10320TIP3    H152375   5.365   1.095   1.547  0.1405 -0.5106 -0.3417
10320TIP3    H252376   5.501   1.161   1.547 -0.6702  1.2112  0.0237
10321TIP3   OH252377   2.626   0.989   1.958 -0.6385  0.1073 -0.2084
10321TIP3    H152378   2.570   1.067   1.965 -2.3418 -0.7372 -2.7646
10321TIP3    H252379   2.608   0.939   2.037 -1.7849  0.9409  0.0843
10322TIP3   OH252380   5.532   4.874   1.011  0.1401 -0.0913  0.6462
10322TIP3    H152381   5.626   4.889   1.018  0.0317  1.2548 -0.3129
10322TIP3    H252382   5.492   4.950   1.054 -0.4713  0.7557 -1.2943
10323TIP3   OH252383   2.817   1.807  16.473  0.1034  0.7229 -0.2967
10323TIP3    H152384   2.748   1.849  16.526 -1.1482  0.0330 -1.3234
10323TIP3    H252385   2.889   1.793  16.535 -1.1599  0.2749  1.1428
10324TIP3   OH252386   5.430   2.095  16.075  0.0554 -0.3769  0.8419
10324TIP3    H152387   5.447   2.083  15.981 -0.9553 -0.2912  0.6286
10324TIP3    H252388   5.350   2.044  16.091 -1.2951  1.6750  1.0740
10325TIP3   OH252389   1.987   3.127   1.332  0.1244  0.3083  0.2774
10325TIP3    H152390   1.999   3.045   1.283  0.0253  0.3302  0.2167
10325TIP3    H252391   1.895   3.149   1.320  0.3202  0.8251 -0.3167
10326TIP3   OH252392   4.226   6.710   1.570  0.2272  0.3170 -0.6267
10326TIP3    H152393   4.306   6.741   1.612 -0.0607 -0.0207  0.2120
10326TIP3    H252394   4.218   6.762   1.490  1.5924 -0.0799 -1.0332
10327TIP3   OH252395   6.580   2.162   1.938  0.5075 -0.4555 -0.0561
10327TIP3    H152396   6.487   2.165   1.958  0.3583 -1.8075 -0.4084
10327TIP3    H252397   6.622   2.195   2.017 -0.2737  0.6109 -0.0694
10328TIP3   OH252398   3.844   5.321  15.252 -0.1339 -0.5488  0.0221
10328TIP3    H152399   3.887   5.281  15.328  0.6239  0.3966  0.1136
10328TIP3    H252400   3.789   5.389  15.290  0.1968 -0.1177 -0.2672
10329TIP3   OH252401   3.534   6.215  14.251  0.2514  0.2609 -0.7338
10329TIP3    H152402   3.536   6.228  14.156  0.7930  0.8186 -0.6550
10329TIP3    H252403   3.505   6.299  14.286 -0.2621 -0.0439 -0.4188
10330TIP3   OH252404   0.545   0.738  12.426 -0.5823 -0.2406 -0.3811
10330TIP3    H152405   0.450   0.723  12.427 -0.3765 -1.6225  0.1669
10330TIP3    H252406   0.571   0.719  12.336 -0.6286 -1.2917 -0.1866
10331TIP3   OH252407   2.958   6.038   4.701  0.0664 -0.3604  0.0277
10331TIP3    H152408   2.990   6.118   4.743 -0.4161  0.8963 -1.8837
10331TIP3    H252409   3.000   5.967   4.749 -0.0094  0.9879  2.2318
10332TIP3   OH252410   2.724   4.018  16.141  0.0016  0.1232  0.2655
10332TIP3    H152411   2.717   3.993  16.049  0.8682 -0.5652  0.3686
10332TIP3    H252412   2.648   3.976  16.183 -0.8813  1.1485 -0.2564
10333TIP3   OH252413   0.942   0.176  11.874 -0.4848 -0.1971 -0.4429
10333TIP3    H152414   1.011   0.110  11.866  1.9597  1.8250  1.8918
10333TIP3    H252415   0.975   0.251  11.825 -1.1701  0.7055  0.4410
10334TIP3   OH252416   1.864   3.989  15.681 -0.0314 -0.4344 -0.1952
10334TIP3    H152417   1.787   4.042  15.662  1.6564  1.9223 -0.9449
10334TIP3    H252418   1.906   4.033  15.755  0.1070 -2.2581  0.8677
10335TIP3   OH252419   5.813   1.064  11.006  0.5799  0.9238  0.1114
10335TIP3    H152420   5.859   0.981  10.997  1.6143  1.2877  1.6030
10335TIP3    H252421   5.738   1.045  11.063  1.1859  1.1202  0.9932
10336TIP3   OH252422   5.073   2.422   1.278 -0.7461  0.5487  0.1928
10336TIP3    H152423   5.034   2.415   1.365 -0.7680  3.6537  0.5479
10336TIP3    H252424   5.158   2.464   1.294 -0.7102  1.0784 -1.2745
10337TIP3   OH252425   0.810   1.066  14.416 -0.4285 -0.0471 -0.2007
10337TIP3    H152426   0.874   1.071  14.345  0.3693 -0.8945  0.4387
10337TIP3    H252427   0.815   0.975  14.447  0.1725  0.6108  1.7827
10338TIP3   OH252428   4.456   2.313  15.597  0.4025  0.4020 -0.4675
10338TIP3    H152429   4.457   2.233  15.543 -0.7833  0.3581 -0.4461
10338TIP3    H252430   4.416   2.379  15.541  1.8195  1.1368 -0.6570
10339TIP3   OH252431   5.823   5.088   4.584  0.7943 -0.8082 -0.7910
10339TIP3    H152432   5.736   5.090   4.624  1.2723  2.0254  0.2866
10339TIP3    H252433   5.805   5.093   4.490 -0.2932  2.0089 -0.5497
10340TIP3   OH252434   2.729   2.589  15.565 -0.2474  0.0955  0.0087
10340TIP3    H152435   2.783   2.528  15.514 -0.5436 -0.1185 -0.0528
10340TIP3    H252436   2.765   2.676  15.545 -0.0103 -0.0357 -0.1347
10341TIP3   OH252437   5.231   2.939  13.500 -0.2176  0.3067 -0.0216
10341TIP3    H152438   5.165   3.008  13.497  0.2296  0.7559  0.1658
10341TIP3    H252439   5.182   2.857  13.489 -0.8100  0.6228  0.2267
10342TIP3   OH252440   1.633   1.637   6.100 -0.0260 -0.0269 -0.3288
10342TIP3    H152441   1.702   1.702   6.089  0.7642 -0.6643  0.7198
10342TIP3    H252442   1.583   1.669   6.176  1.1115 -1.2506  0.9789
10343TIP3   OH252443   4.138   4.138   3.986  0.0070 -0.4088 -0.3922
10343TIP3    H152444   4.165   4.182   4.066  1.0608 -0.8097 -0.5115
10343TIP3    H252445   4.164   4.046   3.998  2.7672  0.0039 -2.2404
10344TIP3   OH252446   0.280   0.094   3.738 -0.4238 -0.3448 -0.4994
10344TIP3    H152447   0.336   0.153   3.687 -1.0178 -0.5885 -1.4549
10344TIP3    H252448   0.285   0.011   3.692  1.4112 -1.4741  1.5329
10345TIP3   OH252449   4.608   5.583   5.941  0.1536  0.9036 -0.4142
10345TIP3    H152450   4.593   5.541   5.856 -1.0770  2.7662 -1.1598
10345TIP3    H252451   4.580   5.517   6.005 -1.2072  0.3601 -1.5295
10346TIP3   OH252452   6.425   2.981   6.027  0.6339  0.0028  0.2178
10346TIP3    H152453   6.509   2.976   6.073  0.3556 -0.7515  0.6421
10346TIP3    H252454   6.372   2.911   6.064  0.9134 -1.6445 -2.2855
10347TIP3   OH252455   6.350   3.617  16.965  0.5637 -0.2394 -0.4071
10347TIP3    H152456   6.427   3.674  16.961  0.1852  0.2702 -0.5678
10347TIP3    H252457   6.278   3.676  16.987  0.1233 -0.6157 -0.8137
10348TIP3   OH252458   5.567   0.271  13.528  0.0080 -0.3810  0.2105
10348TIP3    H152459   5.579   0.235  13.440 -2.8608 -0.4914 -0.2243
10348TIP3    H252460   5.607   0.206  13.586 -2.7200 -3.0893 -0.7245
10349TIP3   OH252461   3.248   6.714  10.775 -0.2413 -0.4994 -0.0386
10349TIP3    H152462   3.158   6.747  10.772 -0.5457 -1.2025 -3.6933
10349TIP3    H252463   3.243   6.628  10.734  2.0094 -0.8689  0.3462
10350TIP3   OH252464   6.794   2.384   1.963 -1.1435 -0.6652 -0.5685
10350TIP3    H152465   6.807   2.347   1.876  0.4549  0.8768 -1.0514
10350TIP3    H252466   6.714   2.437   1.954 -1.4289 -1.1416 -0.8738
10351TIP3   OH252467   6.622   3.049   3.930  0.3890  0.0690  0.1919
10351TIP3    H152468   6.561   3.018   3.862 -0.8868  0.8826  0.9430
10351TIP3    H252469   6.566   3.080   4.001  1.6118 -3.2204  2.8680
10352TIP3   OH252470   6.470   4.839   4.819  0.7014  0.4111 -0.1400
10352TIP3    H152471   6.377   4.826   4.838  0.2997  2.7085 -0.2446
10352TIP3    H252472   6.506   4.751   4.809 -1.1123 -0.5759  1.5598
10353TIP3   OH252473   6.394   1.966   5.131 -0.3684 -0.8524  0.2321
10353TIP3    H152474   6.449   1.922   5.066 -1.0840  0.6554 -1.4795
10353TIP3    H252475   6.426   1.933   5.215  0.5663 -2.9178 -0.8497
10354TIP3   OH252476   0.193   4.000   6.300 -0.1390 -0.3398 -0.0749
10354TIP3    H152477   0.217   4.081   6.345  1.3381 -0.2284 -1.0245
10354TIP3    H252478   0.125   3.961   6.355 -0.5991  1.3430  0.6002
10355TIP3   OH252479   2.978   0.500  11.564  0.0622  0.1475 -0.6457
10355TIP3    H152480   2.994   0.554  11.486  2.1887  1.1373  0.3560
10355TIP3    H252481   2.950   0.416  11.530 -0.5423  1.0076 -2.4100
10356TIP3   OH252482   1.997   6.185  16.746  0.3234 -0.1048  0.6728
10356TIP3    H152483   1.969   6.135  16.823  0.4035  1.0885  1.5045
10356TIP3    H252484   2.016   6.118  16.680  2.4905 -1.3495  2.4035
10357TIP3   OH252485   4.840   4.251  13.691 -0.5101 -0.1763  0.0526
10357TIP3    H152486   4.842   4.303  13.610 -0.4794  1.6099  1.1573
10357TIP3    H252487   4.861   4.313  13.760 -1.3733 -1.4789  1.5480
10358TIP3   OH252488   3.724   5.710   2.132 -0.5373 -0.8663 -0.3623
10358TIP3    H152489   3.755   5.726   2.221 -0.6049  0.2424 -0.5282
10358TIP3    H252490   3.631   5.691   2.142 -0.3668 -1.6079 -0.1198
10359TIP3   OH252491   2.809   0.332   0.493  0.0782  0.7699 -0.3013
10359TIP3    H152492   2.899   0.340   0.525  0.1476  2.0368 -0.7522
10359TIP3    H252493   2.816   0.273   0.418  0.6322  1.2614 -0.6517
10360TIP3   OH252494   2.686   4.355  15.500 -0.1034  0.7540 -0.2938
10360TIP3    H152495   2.779   4.352  15.521  0.0086  0.1229 -0.8489
10360TIP3    H252496   2.664   4.266  15.474 -1.5775  0.0898  2.7498
10361TIP3   OH252497   6.474   2.956   3.699  0.3722 -0.0625 -0.2270
10361TIP3    H152498   6.396   2.917   3.737  0.8487 -0.0087  0.8400
10361TIP3    H252499   6.445   2.991   3.615 -0.9570  0.7658  0.5501
10362TIP3   OH252500   6.099   1.767  11.691  0.2676  0.0035  0.3613
10362TIP3    H152501   6.162   1.717  11.638 -2.5675 -1.1203 -2.2339
10362TIP3    H252502   6.151   1.838  11.729  3.0082 -0.5488 -2.0131
10363TIP3   OH252503   0.599   1.637  13.967  0.8081 -0.3450 -0.3071
10363TIP3    H152504   0.615   1.710  13.907  1.8572  0.7025  1.1749
10363TIP3    H252505   0.505   1.639  13.982  0.8649  0.9834  0.0228
10364TIP3   OH252506   1.508   0.663   0.051 -0.7535 -0.4167 -0.0366
10364TIP3    H152507   1.463   0.625  -0.025 -1.3818  0.1735  0.0343
10364TIP3    H252508   1.465   0.747   0.066  2.5607  1.8904 -2.0611
10365TIP3   OH252509   4.334   3.368   1.348 -0.0604 -0.7151  0.5127
10365TIP3    H152510   4.241   3.379   1.331 -0.2320 -1.0147  1.2435
10365TIP3    H252511   4.363   3.306   1.280 -0.4808 -0.9455  0.5382
10366TIP3   OH252512   2.619   3.821  11.846  0.1890 -0.1090 -0.1558
10366TIP3    H152513   2.708   3.806  11.813  0.4107 -1.5188  0.9776
10366TIP3    H252514   2.605   3.915  11.835  2.7321  0.6328  1.8178
10367TIP3   OH252515   0.837   0.517   3.657  0.5461  0.0693 -0.0242
10367TIP3    H152516   0.823   0.519   3.752  1.1093  0.9851  0.0562
10367TIP3    H252517   0.885   0.436   3.641  0.0773 -0.3010  0.4157
10368TIP3   OH252518   3.588   3.891   3.450  0.7063  0.1873 -0.1551
10368TIP3    H152519   3.524   3.962   3.457  1.2787  0.8689 -1.5466
10368TIP3    H252520   3.585   3.848   3.535  0.5628  2.0571  0.8256
10369TIP3   OH252521   4.835   0.764   1.096 -0.1311  0.1714  0.0054
10369TIP3    H152522   4.744   0.758   1.069 -0.4064  3.1640 -0.0908
10369TIP3    H252523   4.883   0.782   1.016  0.2830  0.2954  0.2768
10370TIP3   OH252524   3.628   1.545   4.682 -0.8166  0.7735 -0.4652
10370TIP3    H152525   3.619   1.584   4.769  1.3569  0.9065 -0.2368
10370TIP3    H252526   3.561   1.477   4.678 -1.2145  1.0474  1.1470
10371TIP3   OH252527   2.072   5.980  12.016 -0.3156 -0.3549 -0.1041
10371TIP3    H152528   2.137   5.975  12.086  1.0821  2.8857 -0.9873
10371TIP3    H252529   1.990   5.999  12.061  0.1327 -0.4529  0.7806
10372TIP3   OH252530   6.196   2.517   2.995  0.0366  0.1179 -0.2335
10372TIP3    H152531   6.255   2.446   2.970 -1.2295 -1.0999  0.1639
10372TIP3    H252532   6.183   2.567   2.914  1.0319 -0.0029 -0.4823
10373TIP3   OH252533   4.176   3.092  14.912 -0.0513  0.6752 -0.8391
10373TIP3    H152534   4.183   3.168  14.854 -2.0430  0.8835 -0.8596
10373TIP3    H252535   4.105   3.113  14.972 -0.1834 -0.8877 -0.3949
10374TIP3   OH252536   1.732   3.649   0.260  0.1303 -0.3150  0.2463
10374TIP3    H152537   1.651   3.660   0.310  0.4125 -2.1147  1.1460
10374TIP3    H252538   1.703   3.646   0.169 -0.3277  3.7239  0.0821
10375TIP3   OH252539   0.079   1.921  16.128  0.3717 -0.0088  0.8998
10375TIP3    H152540   0.141   1.962  16.067 -0.6244  0.5903  0.2656
10375TIP3    H252541  -0.002   1.970  16.116 -0.8837 -2.1405  0.1301
10376TIP3   OH252542   6.233   6.093  11.775 -0.6300 -0.1474 -0.0722
10376TIP3    H152543   6.313   6.054  11.810 -1.1161  0.0215  1.3143
10376TIP3    H252544   6.260   6.176  11.737 -0.0757 -0.3449 -0.1120
10377TIP3   OH252545   5.129   6.653  15.334  0.0481  0.0006  0.1576
10377TIP3    H152546   5.039   6.679  15.353  0.0652 -0.4228  0.8894
10377TIP3    H252547   5.166   6.726  15.285 -1.6439 -1.1195 -3.1293
10378TIP3   OH252548   3.757   2.615  15.770 -0.4904 -0.2700 -0.4400
10378TIP3    H152549   3.679   2.562  15.786 -2.3689  2.7421  1.3658
10378TIP3    H252550   3.828   2.565  15.809 -2.1446 -1.5311  1.1429
10379TIP3   OH252551   0.203   3.456  14.280 -0.2222  0.4656  0.4190
10379TIP3    H152552   0.149   3.393  14.232  1.6042 -0.0583 -1.0537
10379TIP3    H252553   0.229   3.520  14.214  2.7954 -0.5465  0.4628
10380TIP3   OH252554   5.253   0.305   6.159 -0.1535  0.1941 -0.7108
10380TIP3    H152555   5.272   0.357   6.237  1.2787  1.8221 -2.0549
10380TIP3    H252556   5.158   0.294   6.160 -0.0545 -1.3894  2.1502
10381TIP3   OH252557   0.340   4.240  14.763 -0.3179  0.3326 -0.1297
10381TIP3    H152558   0.355   4.269  14.673  0.3241 -1.4481 -0.6351
10381TIP3    H252559   0.417   4.271  14.811  0.5395 -0.7620 -0.7375
10382TIP3   OH252560   4.571   3.018   5.083 -0.8767 -0.1498  0.5088
10382TIP3    H152561   4.513   3.019   5.006  0.0953  1.0455 -0.2545
10382TIP3    H252562   4.579   3.110   5.107  1.7173 -0.1015 -0.2387
10383TIP3   OH252563   6.142   2.789  15.999 -0.3768 -0.0952 -0.3581
10383TIP3    H152564   6.054   2.752  16.008 -0.6272  0.3951 -0.6971
10383TIP3    H252565   6.138   2.870  16.050 -0.2404  0.1246 -0.6973
10384TIP3   OH252566   2.922   6.329   5.534  0.4957  0.3132  0.3061
10384TIP3    H152567   2.974   6.254   5.563 -0.8144  0.3257  3.0201
10384TIP3    H252568   2.843   6.291   5.497 -0.2706  0.2876  1.8903
10385TIP3   OH252569   4.448   1.369   4.451  0.1414  0.0940 -0.8132
10385TIP3    H152570   4.463   1.295   4.392 -1.0464  1.1994 -2.5824
10385TIP3    H252571   4.369   1.411   4.418 -0.3052  1.0555  1.3166
10386TIP3   OH252572   0.991   5.883   1.175 -0.8476  0.2826 -1.1147
10386TIP3    H152573   0.904   5.871   1.136 -2.2091  2.1189  1.0783
10386TIP3    H252574   0.993   5.976   1.200  1.8302  0.3230 -1.2127
10387TIP3   OH252575   1.945   4.067  12.576 -0.4103 -0.6092 -0.9320
10387TIP3    H152576   1.900   4.100  12.654 -1.0929 -1.4946 -0.9292
10387TIP3    H252577   1.944   4.140  12.515 -1.4299 -0.4396 -0.7371
10388TIP3   OH252578   3.131   0.823   3.959 -0.0120 -0.2310  0.4349
10388TIP3    H152579   3.179   0.873   3.893 -0.3202  0.0467  0.4209
10388TIP3    H252580   3.057   0.785   3.911 -0.0683 -0.2746  0.5566
10389TIP3   OH252581   5.709   0.414   0.488 -0.2174 -0.2575  0.1779
10389TIP3    H152582   5.793   0.451   0.517  0.6381 -0.2116 -2.1941
10389TIP3    H252583   5.692   0.456   0.404 -2.5605 -0.4155  0.5138
10390TIP3   OH252584   2.817   0.769  15.176 -0.2622  0.3255  0.2198
10390TIP3    H152585   2.766   0.795  15.100 -2.5380 -1.3208  1.0877
10390TIP3    H252586   2.848   0.681  15.156  1.2746  0.8418  0.2040
10391TIP3   OH252587   5.976   3.474  12.693  0.2315 -0.5106  0.3175
10391TIP3    H152588   5.988   3.446  12.783 -2.4553 -1.6333  0.4346
10391TIP3    H252589   6.008   3.564  12.690  1.5187 -0.8657  2.0371
10392TIP3   OH252590   5.792   1.798  16.695 -0.5235  0.1938  0.1963
10392TIP3    H152591   5.830   1.788  16.607 -1.3738  0.0055 -0.1623
10392TIP3    H252592   5.698   1.789  16.681 -0.6462 -0.1693  1.1790
10393TIP3   OH252593   4.832   6.395  14.086  0.7638 -0.1799 -0.2402
10393TIP3    H152594   4.873   6.430  14.007  2.1994  0.9394  0.9448
10393TIP3    H252595   4.889   6.423  14.157 -0.4047 -1.2875  1.1991
10394TIP3   OH252596   4.771   6.334  15.452  0.0723  0.2705 -0.5578
10394TIP3    H152597   4.805   6.374  15.533 -0.2840 -0.8276  0.1563
10394TIP3    H252598   4.679   6.318  15.470 -0.2503  0.9159 -1.5642
10395TIP3   OH252599   1.488   2.035   1.967  0.4138 -0.1135  0.3889
10395TIP3    H152600   1.513   2.058   2.056 -2.1429  1.9918  0.6535
10395TIP3    H252601   1.442   1.951   1.976 -1.2711  0.8627  1.3672
10396TIP3   OH252602   4.034   3.311   3.436  0.4408 -0.2615 -0.3637
10396TIP3    H152603   3.982   3.392   3.431 -0.0491 -0.3384  2.0858
10396TIP3    H252604   4.104   3.324   3.373 -0.1886  1.6658 -0.7513
10397TIP3   OH252605   1.798   2.268   5.979  0.7544 -0.2536 -0.1539
10397TIP3    H152606   1.748   2.349   5.986  2.1375  0.5675  0.9337
10397TIP3    H252607   1.752   2.206   6.036  1.0603  0.5673  1.0373
10398TIP3   OH252608   2.921   6.653   4.487 -0.3089 -0.9593 -0.2983
10398TIP3    H152609   2.976   6.674   4.412  0.4684  0.2213  0.5646
10398TIP3    H252610   2.956   6.569   4.518  0.5702 -0.5728 -0.1939
10399TIP3   OH252611   6.717   5.856   1.257  0.4217 -0.7103  0.2414
10399TIP3    H152612   6.636   5.878   1.212  0.7848 -0.8393 -0.4933
10399TIP3    H252613   6.716   5.909   1.336 -0.2636 -0.5350  0.1211
10400TIP3   OH252614   6.722   6.002  14.239  0.1611 -0.1732  0.7649
10400TIP3    H152615   6.643   6.057  14.232  1.0307  0.9455 -1.2510
10400TIP3    H252616   6.793   6.065  14.252  0.9938 -0.9610  0.1206
10401TIP3   OH252617   4.562   6.101  13.555  0.0007 -0.1589 -0.3945
10401TIP3    H152618   4.604   6.137  13.633 -2.5701 -0.6559  1.3363
10401TIP3    H252619   4.492   6.045  13.588 -0.4649 -1.3511 -3.0694
10402TIP3   OH252620   3.556   6.003   3.339 -0.4299 -0.3864 -0.0479
10402TIP3    H152621   3.647   6.029   3.325 -0.4797 -0.2596 -0.1434
10402TIP3    H252622   3.507   6.048   3.270 -0.5937 -0.2689  0.1429
10403TIP3   OH252623   3.703   4.563  10.394  0.0381 -0.3170 -0.3739
10403TIP3    H152624   3.748   4.591  10.474 -0.3380 -2.0132  0.4641
10403TIP3    H252625   3.747   4.482  10.369 -1.7658 -1.3944 -0.2009
10404TIP3   OH252626   5.337   3.851  14.477 -0.1640  0.4457 -0.0349
10404TIP3    H152627   5.281   3.924  14.452 -0.7255 -0.0982 -0.3856
10404TIP3    H252628   5.306   3.777  14.425 -1.2805 -0.7103  2.1024
10405TIP3   OH252629   6.668   3.295   1.486 -0.2082 -0.0905  0.0703
10405TIP3    H152630   6.698   3.385   1.476  0.4522 -0.5159 -2.4634
10405TIP3    H252631   6.748   3.242   1.480 -0.7275 -0.8937  0.0956
10406TIP3   OH252632   1.017   1.357  13.084 -0.0139 -0.1800  0.8997
10406TIP3    H152633   0.989   1.315  13.003  0.8358  1.1753 -0.1361
10406TIP3    H252634   0.943   1.346  13.144 -0.6161 -1.2867 -0.0047
10407TIP3   OH252635   2.629   1.245   0.316 -0.0129  0.3268  0.5326
10407TIP3    H152636   2.636   1.155   0.285 -0.5924  0.4805 -0.0560
10407TIP3    H252637   2.719   1.279   0.313 -0.3254  1.2497 -3.8084
10408TIP3   OH252638   4.413   2.260  12.939  0.4195  0.4788 -0.2115
10408TIP3    H152639   4.336   2.280  12.991  0.3144 -0.9153  0.2064
10408TIP3    H252640   4.379   2.217  12.860  0.7189  0.5237 -0.3697
10409TIP3   OH252641   5.260   3.029   4.313  0.8131  0.4948 -0.4376
10409TIP3    H152642   5.325   3.018   4.243  0.1598 -0.1203 -0.9598
10409TIP3    H252643   5.176   3.035   4.267  0.3552 -0.1158  0.3087
10410TIP3   OH252644   1.633   5.790  11.545 -0.1582  0.2416  0.1054
10410TIP3    H152645   1.548   5.749  11.559  0.3318 -2.2759 -3.0300
10410TIP3    H252646   1.695   5.733  11.591  0.1495 -0.4502 -1.0995
10411TIP3   OH252647   6.579   3.574  10.930 -0.2222 -0.1927  0.6222
10411TIP3    H152648   6.615   3.495  10.970 -1.1894 -1.5184 -1.0007
10411TIP3    H252649   6.642   3.643  10.951  1.6997 -1.7942  0.3869
10412TIP3   OH252650   2.459   0.346  14.274  0.0890 -0.1780  0.3875
10412TIP3    H152651   2.496   0.427  14.240 -0.2295 -0.0603  0.3186
10412TIP3    H252652   2.467   0.283  14.202 -2.2903  0.5629 -0.6240
10413TIP3   OH252653   4.655   0.646  12.638  0.5854  0.5116  0.8244
10413TIP3    H152654   4.722   0.606  12.693  0.7388  1.1694  1.1123
10413TIP3    H252655   4.671   0.740  12.643  0.5393  0.5922 -0.2675
10414TIP3   OH252656   0.410   3.949  12.573 -0.2938 -0.2620  0.2806
10414TIP3    H152657   0.318   3.932  12.591 -0.4748 -0.4225 -0.7362
10414TIP3    H252658   0.453   3.946  12.658 -1.4461  1.2612  0.9640
10415TIP3   OH252659   6.235   0.614   3.994  0.0327  0.8247  0.2027
10415TIP3    H152660   6.153   0.594   3.948  0.9644 -1.2604 -0.6883
10415TIP3    H252661   6.301   0.613   3.925  1.0635  0.7174  1.1709
10416TIP3   OH252662   5.136   1.550   3.697 -0.2520 -0.1173 -0.7373
10416TIP3    H152663   5.207   1.488   3.683  0.4019  0.9418 -2.4890
10416TIP3    H252664   5.056   1.501   3.675  0.2906 -0.2618 -2.5497
10417TIP3   OH252665   5.371   3.506   5.632  0.1883 -0.7052  0.4082
10417TIP3    H152666   5.428   3.482   5.559 -0.3883 -0.5713 -0.0990
10417TIP3    H252667   5.344   3.422   5.670 -1.1704 -0.8855 -0.8510
10418TIP3   OH252668   6.756   0.867   2.439 -0.5653 -0.2562  0.3895
10418TIP3    H152669   6.675   0.846   2.484 -0.5366  0.6676  0.8964
10418TIP3    H252670   6.816   0.894   2.508 -0.6550  1.6182 -0.1988
10419TIP3   OH252671   2.992   0.659   5.452 -0.2627 -0.1520  0.2881
10419TIP3    H152672   2.992   0.613   5.536 -0.8198  0.1502  0.4541
10419TIP3    H252673   3.011   0.591   5.387  0.0802 -0.3995  0.6472
10420TIP3   OH252674   3.532   3.683  13.570  0.2130 -0.2220  0.3085
10420TIP3    H152675   3.473   3.755  13.548 -0.0659 -0.1909  1.1029
10420TIP3    H252676   3.585   3.717  13.642  0.7329 -0.4884  0.0568
10421TIP3   OH252677   0.748   2.832  11.776  0.1066 -0.2792  0.1143
10421TIP3    H152678   0.732   2.919  11.738  0.7399  0.0575  0.5988
10421TIP3    H252679   0.678   2.778  11.740 -1.1254  0.7417  0.8794
10422TIP3   OH252680   4.857   6.550  11.594 -0.2467  0.4524 -0.5202
10422TIP3    H152681   4.775   6.584  11.628 -1.4504 -2.2955 -0.4379
10422TIP3    H252682   4.839   6.459  11.572  2.7904 -0.2775 -0.4997
10423TIP3   OH252683   6.353   1.900   3.679 -0.4593  0.7484 -0.0128
10423TIP3    H152684   6.305   1.906   3.762  1.6930  1.0758  1.2923
10423TIP3    H252685   6.415   1.828   3.692  0.3079  1.1725 -1.1185
10424TIP3   OH252686   2.338   5.775   1.327  0.3125 -0.5055 -0.7893
10424TIP3    H152687   2.343   5.870   1.322 -0.5265 -0.3297  1.0620
10424TIP3    H252688   2.349   5.746   1.236  0.4985  1.3436 -1.3966
10425TIP3   OH252689   0.235   1.865  16.763  0.2560 -0.2753 -0.1206
10425TIP3    H152690   0.300   1.815  16.812  1.6226  0.2275 -1.3822
10425TIP3    H252691   0.282   1.901  16.688 -0.9983  1.7875  0.0015
10426TIP3   OH252692   1.947   1.399  15.017 -0.5041 -0.2139  0.6042
10426TIP3    H152693   1.945   1.451  14.937 -1.3795  0.5147  1.0801
10426TIP3    H252694   2.034   1.359  15.018  0.2577  1.3404  0.2864
10427TIP3   OH252695   4.636   0.834  11.702  0.7192  0.2037 -0.0466
10427TIP3    H152696   4.648   0.921  11.664  1.1956  0.2823  0.2808
10427TIP3    H252697   4.662   0.844  11.794  0.1306 -0.1240  0.1563
10428TIP3   OH252698   1.528   1.378  13.455  0.1902  0.0788 -0.2081
10428TIP3    H152699   1.585   1.359  13.380 -0.5843 -0.5299 -0.6522
10428TIP3    H252700   1.460   1.435  13.420 -0.6616 -0.9054 -0.1828
10429TIP3   OH252701   6.171   4.670   1.132  0.3339  0.2103 -0.0479
10429TIP3    H152702   6.160   4.760   1.162 -0.1970 -0.0642  0.6143
10429TIP3    H252703   6.180   4.619   1.213 -0.1825 -0.4322 -0.3846
10430TIP3   OH252704   4.162   5.248  12.050 -0.0635 -0.1298  0.0296
10430TIP3    H152705   4.192   5.333  12.080 -1.3271  0.3507 -0.0290
10430TIP3    H252706   4.243   5.201  12.026  0.6980  0.7063  0.9120
10431TIP3   OH252707   3.882   3.101  17.004 -0.5103  0.5096 -0.1834
10431TIP3    H152708   3.895   3.151  17.084 -0.7376 -0.7709  0.6868
10431TIP3    H252709   3.805   3.140  16.963 -0.0826  1.5091 -0.0630
10432TIP3   OH252710   6.182   3.512  13.997  0.3156 -0.0217  0.4884
10432TIP3    H152711   6.271   3.503  13.964  1.1635 -1.9543  2.9548
10432TIP3    H252712   6.189   3.487  14.089 -2.8819 -0.7182  0.6361
10433TIP3   OH252713   0.267   4.288  12.385  0.1845 -0.3866 -0.9345
10433TIP3    H152714   0.231   4.199  12.394  1.7929 -0.9467  0.4688
10433TIP3    H252715   0.226   4.338  12.456 -1.2944  0.2372 -2.1816
10434TIP3   OH252716   5.110   1.321  11.170 -0.2929 -0.0880  0.1272
10434TIP3    H152717   5.159   1.393  11.131 -1.2525  0.4236 -0.1732
10434TIP3    H252718   5.111   1.252  11.103 -0.2710  0.0477 -0.0123
10435TIP3   OH252719   4.593   1.358  12.445 -0.8122  0.4158 -0.4094
10435TIP3    H152720   4.656   1.420  12.408 -0.2792 -1.6260 -3.3206
10435TIP3    H252721   4.531   1.342  12.374 -0.5857 -2.7060 -0.0550
10436TIP3   OH252722   1.792   2.216   4.622 -0.1765 -0.1860  0.1482
10436TIP3    H152723   1.872   2.233   4.673  0.0990 -0.3079 -0.2363
10436TIP3    H252724   1.724   2.266   4.667  0.0062 -0.5092  0.7939
10437TIP3   OH252725   2.807   6.555  16.786 -0.3304 -0.0792  0.0614
10437TIP3    H152726   2.897   6.581  16.766  0.4780 -1.8698  1.1632
10437TIP3    H252727   2.753   6.625  16.749  1.4768  0.7729 -1.0717
10438TIP3   OH252728   4.803   5.977   4.481  0.4393 -0.5672 -0.2908
10438TIP3    H152729   4.881   5.943   4.437  1.2412 -0.2139  0.8037
10438TIP3    H252730   4.775   6.051   4.426  0.9712 -0.5987 -0.6126
10439TIP3   OH252731   3.631   6.583   0.929  0.4846 -0.1799 -0.5202
10439TIP3    H152732   3.709   6.558   0.980  0.0425 -0.7500 -0.1009
10439TIP3    H252733   3.558   6.566   0.988  0.0662  0.8759 -0.7116
10440TIP3   OH252734   0.959   4.353  12.482 -0.0002 -0.2951 -0.4319
10440TIP3    H152735   0.960   4.449  12.476 -0.1865 -0.3586 -2.2904
10440TIP3    H252736   0.868   4.331  12.500 -0.1835 -0.1411 -1.1324
10441TIP3   OH252737   2.654   3.390   1.073 -0.2172  0.0554 -0.1191
10441TIP3    H152738   2.742   3.426   1.067  0.3352 -1.3884 -1.2501
10441TIP3    H252739   2.597   3.460   1.042  0.7974  0.1238 -1.9632
10442TIP3   OH252740   6.210   0.422   3.608 -0.3779  0.1522  0.0739
10442TIP3    H152741   6.233   0.443   3.698 -1.6204 -0.7407  0.6339
10442TIP3    H252742   6.185   0.329   3.611  0.5278 -0.1650 -1.3869
10443TIP3   OH252743   3.294   3.553   5.969  0.2870 -0.6305 -0.2625
10443TIP3    H152744   3.314   3.644   5.994  0.3841 -0.9108  0.7476
10443TIP3    H252745   3.209   3.536   6.008  0.3056 -0.9982 -0.3784
10444TIP3   OH252746   5.625   3.926   5.085  0.0056 -0.6423 -0.0091
10444TIP3    H152747   5.679   3.910   5.162 -0.8700 -0.6430  0.6122
10444TIP3    H252748   5.615   3.840   5.044  0.2187 -0.6914  0.0416
10445TIP3   OH252749   4.975   4.414  13.868 -0.7083  0.1876  0.1458
10445TIP3    H152750   5.025   4.476  13.920 -1.9173 -0.1646  1.8188
10445TIP3    H252751   4.902   4.389  13.924 -1.2692 -1.3488 -1.1789
10446TIP3   OH252752   1.188   2.469   3.461 -0.1516 -0.4376 -0.3739
10446TIP3    H152753   1.199   2.444   3.553  0.5613  1.3017  0.0577
10446TIP3    H252754   1.278   2.477   3.428 -0.3077  1.3113 -0.4910
10447TIP3   OH252755   1.009   1.648  15.027  0.7819 -0.1914  0.3604
10447TIP3    H152756   0.950   1.592  14.977 -1.0781  2.0747 -0.1434
10447TIP3    H252757   0.994   1.622  15.118 -0.6303 -0.0429  0.1942
10448TIP3   OH252758   5.106   3.341  13.951  0.5015  0.1110  0.1426
10448TIP3    H152759   5.156   3.290  13.888 -0.3400 -0.0980 -0.3831
10448TIP3    H252760   5.061   3.276  14.005  0.3055  0.2838  0.1919
10449TIP3   OH252761   0.518   0.527  16.256  0.0970 -0.2688 -0.2394
10449TIP3    H152762   0.551   0.444  16.288  0.7025  0.3740  0.8559
10449TIP3    H252763   0.500   0.578  16.335  0.2270  0.8275 -0.8945
10450TIP3   OH252764   1.991   0.367  12.622 -0.1382 -0.4051 -0.2695
10450TIP3    H152765   2.014   0.459  12.610  0.7347 -0.5664  0.0984
10450TIP3    H252766   1.981   0.333  12.533  2.3290 -0.6214 -0.5406
10451TIP3   OH252767   0.606   0.217  13.342 -0.4293 -0.5579  0.1684
10451TIP3    H152768   0.528   0.262  13.309  0.6279  1.3792  0.1355
10451TIP3    H252769   0.587   0.203  13.435 -0.6901  0.2216  0.2432
10452TIP3   OH252770   1.948   3.576  14.323 -0.7387 -0.5359 -0.3115
10452TIP3    H152771   1.911   3.504  14.375  0.5506 -1.7337 -0.9628
10452TIP3    H252772   2.039   3.580  14.351 -0.7852  0.8641 -0.3124
10453TIP3   OH252773   3.635   1.301   4.291 -0.2565 -0.1997 -0.7510
10453TIP3    H152774   3.562   1.281   4.231 -1.1574 -0.2926  0.3365
10453TIP3    H252775   3.607   1.263   4.374  0.5821  0.6952 -0.0553
10454TIP3   OH252776   1.138   0.245   2.559  0.0596  0.1403  0.0309
10454TIP3    H152777   1.099   0.312   2.616 -0.9740  0.4107 -0.9557
10454TIP3    H252778   1.101   0.162   2.590 -1.6151  0.4259 -1.1018
10455TIP3   OH252779   1.881   4.022  11.445  0.5257  0.3250 -0.2114
10455TIP3    H152780   1.890   3.944  11.389  0.1210 -0.2304  0.4728
10455TIP3    H252781   1.850   4.090  11.386 -0.3506 -0.3714 -0.5911
10456TIP3   OH252782   4.117   1.825  14.607 -0.2083 -0.0852  0.2386
10456TIP3    H152783   4.123   1.731  14.587  0.9251 -0.1276  0.6863
10456TIP3    H252784   4.043   1.856  14.556  0.0198 -1.0286 -0.6903
10457TIP3   OH252785   2.942   4.627  12.773  0.1980 -0.0020 -0.0505
10457TIP3    H152786   2.963   4.583  12.855  0.1726 -0.4144 -0.2648
10457TIP3    H252787   2.904   4.559  12.718  2.4541 -0.3241 -1.3084
10458TIP3   OH252788   5.320   2.562  14.395 -0.0248  0.2658 -0.2252
10458TIP3    H152789   5.232   2.551  14.359  0.5493 -0.3963 -1.4654
10458TIP3    H252790   5.321   2.652  14.427 -1.0171  0.4180 -0.5695
10459TIP3   OH252791   5.870   6.302  11.961  0.2470  0.1728 -0.6667
10459TIP3    H152792   5.845   6.226  11.908 -0.0498  1.8298 -3.0689
10459TIP3    H252793   5.790   6.354  11.967  0.3734  0.2137  1.1888
10460TIP3   OH252794   4.633   0.191  14.978  0.0989  0.3383 -0.5288
10460TIP3    H152795   4.667   0.170  14.891  0.2447 -1.5545 -0.0503
10460TIP3    H252796   4.708   0.228  15.025  0.5276 -0.3758 -0.6367
10461TIP3   OH252797   5.686   4.081  14.087  0.2635 -0.1900 -0.0573
10461TIP3    H152798   5.701   3.989  14.065 -0.5984 -0.1508 -0.8517
10461TIP3    H252799   5.773   4.120  14.089  0.7163 -1.1921  1.1120
10462TIP3   OH252800   0.935   1.077   0.961 -0.4892 -0.3459  0.0609
10462TIP3    H152801   0.975   1.143   0.905 -0.0129 -0.4032  0.3238
10462TIP3    H252802   0.959   0.994   0.922  1.7519 -0.4861  1.5236
10463TIP3   OH252803   4.424   0.837   4.540 -0.0148 -0.5719  0.1094
10463TIP3    H152804   4.492   0.887   4.496 -1.2473  1.1039  0.0058
10463TIP3    H252805   4.398   0.770   4.476  0.6691 -0.4435 -0.3114
10464TIP3   OH252806   4.057   3.481  11.978  0.0744 -0.3542  0.1494
10464TIP3    H152807   4.087   3.394  11.953  0.0913  0.0024 -1.0998
10464TIP3    H252808   3.983   3.464  12.036  0.5137 -1.1983  0.4831
10465TIP3   OH252809   1.899   1.874  16.636 -0.0620  0.2018 -0.1133
10465TIP3    H152810   1.960   1.800  16.633  1.6290  1.5062  0.6259
10465TIP3    H252811   1.947   1.943  16.682 -1.3887  1.9446 -1.2203
10466TIP3   OH252812   1.933   6.531   4.263 -0.7006  0.0525  0.3735
10466TIP3    H152813   1.925   6.626   4.266 -0.4333  0.0610  0.8055
10466TIP3    H252814   2.002   6.510   4.326 -2.5011 -0.6445  2.2236
10467TIP3   OH252815   2.452   6.023  14.607  0.0693 -0.7193 -0.5519
10467TIP3    H152816   2.472   6.113  14.579  0.5851 -0.6912 -0.1225
10467TIP3    H252817   2.495   5.968  14.541  0.3812 -0.6495 -0.4107
10468TIP3   OH252818   6.761   2.461  14.978  0.1145 -0.1206 -0.1466
10468TIP3    H152819   6.810   2.396  15.027  0.5732  0.1881 -0.1964
10468TIP3    H252820   6.790   2.450  14.887  1.1277  0.9919  0.0300
10469TIP3   OH252821   2.930   6.102  14.203 -0.1109  0.7762 -0.5779
10469TIP3    H152822   2.955   6.066  14.118  2.9920  1.3501 -0.0112
10469TIP3    H252823   2.933   6.027  14.263 -0.3408  0.7442 -0.6045
10470TIP3   OH252824   2.887   6.243  10.790 -0.5434 -0.2328 -0.6190
10470TIP3    H152825   2.901   6.268  10.698  1.8189 -1.4077 -0.6539
10470TIP3    H252826   2.839   6.160  10.784 -0.8786 -0.0277 -0.7819
10471TIP3   OH252827   5.513   6.758  16.567 -0.3694 -0.0629  1.3736
10471TIP3    H152828   5.436   6.809  16.592 -0.5916  0.2079  0.1799
10471TIP3    H252829   5.586   6.820  16.576 -0.5543  0.2829  0.5735
10472TIP3   OH252830   4.265   1.950  14.294 -0.2902  1.0466  0.7856
10472TIP3    H152831   4.234   2.008  14.364  1.7165  2.2485  0.7550
10472TIP3    H252832   4.241   1.996  14.214  0.2754  1.2812  0.7465
10473TIP3   OH252833   6.726   6.284   1.650 -0.2299 -1.0972  0.5625
10473TIP3    H152834   6.814   6.247   1.651  0.3067  0.1312  0.7643
10473TIP3    H252835   6.701   6.289   1.743 -0.4555 -1.3028  0.5143
10474TIP3   OH252836   2.784   0.101   2.348 -0.0766 -0.5405  0.4064
10474TIP3    H152837   2.768   0.166   2.417 -1.8219 -1.1392  0.5914
10474TIP3    H252838   2.852   0.142   2.293 -0.6813  1.1722  0.8680
10475TIP3   OH252839   2.883   5.498   4.216 -0.0687  0.6546  0.3207
10475TIP3    H152840   2.928   5.416   4.197  3.8192  2.8681 -1.1809
10475TIP3    H252841   2.945   5.547   4.271 -2.1282  2.7345  0.9689
10476TIP3   OH252842   3.264   4.527  14.326  0.2950  0.5508  0.6260
10476TIP3    H152843   3.185   4.578  14.342 -2.2026 -2.6797 -0.2628
10476TIP3    H252844   3.297   4.505  14.413 -0.7059  0.6560  1.0418
10477TIP3   OH252845   2.882   5.000  14.636  0.0464 -0.3460 -0.1110
10477TIP3    H152846   2.819   5.005  14.564  1.2788 -1.5062 -1.3327
10477TIP3    H252847   2.835   5.034  14.712 -1.4127  0.6055 -1.3812
10478TIP3   OH252848   1.315   6.775  12.390  0.0018 -0.2195 -0.4481
10478TIP3    H152849   1.305   6.687  12.354  0.0520 -0.8650  1.0279
10478TIP3    H252850   1.362   6.824  12.323 -0.7371 -1.0872 -1.6242
10479TIP3   OH252851   3.681   6.661  15.585 -0.3668 -0.1938  0.2475
10479TIP3    H152852   3.716   6.709  15.509  0.4769  1.8165  1.8055
10479TIP3    H252853   3.601   6.709  15.608 -0.2484 -0.3722  1.0413
10480TIP3   OH252854   2.982   1.478   1.740  0.6233 -0.3673  0.3135
10480TIP3    H152855   2.893   1.491   1.708  1.0627 -1.6355 -1.5153
10480TIP3    H252856   2.988   1.384   1.758  1.6476 -0.3236  0.2389
10481TIP3   OH252857   0.955   1.048   3.027  0.1172  0.0993 -0.4980
10481TIP3    H152858   0.980   1.111   3.095  0.1684  0.4248 -0.8134
10481TIP3    H252859   0.992   0.965   3.056 -0.9210 -0.0354  0.5011
10482TIP3   OH252860   0.670   3.925  16.868  0.2566 -0.3495  0.3168
10482TIP3    H152861   0.598   3.946  16.927  1.8405  1.7356  1.6529
10482TIP3    H252862   0.727   4.002  16.871  1.1769 -0.7929 -2.8193
10483TIP3   OH252863   6.511   5.413   3.997 -0.6465  0.2196 -0.0587
10483TIP3    H152864   6.445   5.425   4.066  0.2811 -0.8973  1.0835
10483TIP3    H252865   6.569   5.489   4.007 -0.9674  0.4774 -0.1388
10484TIP3   OH252866   1.411   3.026  12.743  0.0566  0.4557 -0.4731
10484TIP3    H152867   1.463   3.010  12.665 -1.7881  0.3230 -1.7344
10484TIP3    H252868   1.408   3.122  12.751  0.8200  0.4615 -0.1268
10485TIP3   OH252869   0.826   2.102  13.825  0.2689  0.2723 -0.0155
10485TIP3    H152870   0.864   2.104  13.913  0.3582 -0.2742 -0.0385
10485TIP3    H252871   0.889   2.150  13.770  0.3634  0.3489  0.1604
10486TIP3   OH252872   1.307   5.655  11.371  0.0694 -0.9653 -1.0368
10486TIP3    H152873   1.293   5.735  11.321 -0.7896 -0.6999 -0.4091
10486TIP3    H252874   1.394   5.624  11.346  0.3558  0.0982 -1.3728
10487TIP3   OH252875   4.164   6.063  17.079  0.9938  0.4765 -0.3574
10487TIP3    H152876   4.243   6.039  17.126 -1.3562 -0.6669  3.5172
10487TIP3    H252877   4.143   6.151  17.111  0.1714  0.3350 -0.4844
10488TIP3   OH252878   4.000   2.275   5.522 -0.3495 -0.0664  0.0470
10488TIP3    H152879   4.027   2.318   5.603  1.6277  0.9882 -1.0989
10488TIP3    H252880   3.988   2.347   5.459 -0.9864 -0.9214 -0.8550
10489TIP3   OH252881   2.480   6.112  12.977  0.2544 -0.3666 -0.1833
10489TIP3    H152882   2.476   6.102  12.881 -0.2017  0.1658 -0.2214
10489TIP3    H252883   2.571   6.095  12.999  0.4234 -0.2129 -0.7501
10490TIP3   OH252884   2.824   4.196   2.263 -0.0409  0.1004 -0.3810
10490TIP3    H152885   2.839   4.144   2.184 -0.2439  2.1815 -1.8892
10490TIP3    H252886   2.827   4.287   2.232 -2.9831  0.9549  1.4796
10491TIP3   OH252887   1.776   5.875  13.799 -0.3799 -0.0744  0.3351
10491TIP3    H152888   1.784   5.873  13.703  1.6853  0.1842  0.4574
10491TIP3    H252889   1.735   5.791  13.821 -1.2965  0.0436 -0.7750
10492TIP3   OH252890   1.170   6.145   4.985 -0.4564  0.0576  0.1885
10492TIP3    H152891   1.190   6.218   5.044  0.3126 -0.8750  1.1270
10492TIP3    H252892   1.091   6.106   5.023 -0.0168 -0.4861  0.5463
10493TIP3   OH252893   2.166   2.773  14.906  0.1848  0.2420 -0.2561
10493TIP3    H152894   2.125   2.850  14.868 -1.8492  0.2577  1.7345
10493TIP3    H252895   2.248   2.762  14.858  0.6631  3.7619 -0.4615
10494TIP3   OH252896   5.993   5.264  12.020  0.4431 -0.1075 -0.3502
10494TIP3    H152897   6.017   5.350  12.056  0.2877 -0.6021  0.9726
10494TIP3    H252898   6.007   5.274  11.926  1.6509  0.9886 -0.1000
10495TIP3   OH252899   2.885   0.202  14.294 -0.3965 -0.0373 -0.2716
10495TIP3    H152900   2.876   0.153  14.376 -0.2282 -1.4036 -1.0341
10495TIP3    H252901   2.829   0.279  14.305 -2.6030 -1.5980  0.1016
10496TIP3   OH252902   5.352   4.664   0.966 -0.0888  0.3048 -0.0388
10496TIP3    H152903   5.286   4.669   1.035 -0.2279  2.1589 -0.2656
10496TIP3    H252904   5.422   4.722   0.996  0.8205 -0.5432 -0.4675
10497TIP3   OH252905   2.737   1.232  12.303 -0.3197 -0.1427 -0.0009
10497TIP3    H152906   2.818   1.200  12.263  0.7473 -0.5134  2.2977
10497TIP3    H252907   2.689   1.153  12.327 -0.7153  0.0590 -0.1208
10498TIP3   OH252908   0.700   3.363  11.263 -0.4926 -0.0903  0.0022
10498TIP3    H152909   0.724   3.273  11.243 -0.6094 -0.4649  1.4633
10498TIP3    H252910   0.707   3.370  11.358 -1.1989  1.2395 -0.0102
10499TIP3   OH252911   1.831   3.926  16.928  0.3221 -0.1346 -0.7108
10499TIP3    H152912   1.739   3.935  16.951  0.0185 -1.7355 -1.2159
10499TIP3    H252913   1.840   3.973  16.845 -0.0204  0.0866 -0.6222
10500TIP3   OH252914   2.238   2.859   0.180 -0.8124  0.1713  0.1098
10500TIP3    H152915   2.285   2.853   0.263  1.4144 -0.9034 -1.1363
10500TIP3    H252916   2.199   2.773   0.167  0.9023 -0.4972 -1.0201
10501TIP3   OH252917   3.589   5.773  12.828 -0.2766 -0.3604  1.1404
10501TIP3    H152918   3.526   5.702  12.820 -0.6308  0.0883 -0.2441
10501TIP3    H252919   3.561   5.838  12.764  1.9561 -0.4269 -0.0121
10502TIP3   OH252920   0.643   6.403   4.534  0.5060  0.1471  0.2224
10502TIP3    H152921   0.560   6.444   4.557 -0.0807 -1.2575  0.7166
10502TIP3    H252922   0.684   6.381   4.617  1.7548  1.4985  0.0038
10503TIP3   OH252923   1.853   5.708   0.759  0.7596 -0.2400 -0.3740
10503TIP3    H152924   1.778   5.694   0.700 -0.7767  1.9124  0.9587
10503TIP3    H252925   1.909   5.769   0.712  1.9491 -2.0820 -1.5043
10504TIP3   OH252926   4.279   3.860  11.526  0.1021 -0.4336  0.1587
10504TIP3    H152927   4.276   3.780  11.578  0.7677 -0.3358  0.3500
10504TIP3    H252928   4.225   3.841  11.450 -0.7264 -0.6474  0.7823
10505TIP3   OH252929   1.894   5.361  10.557  0.4217  0.7047  0.1239
10505TIP3    H152930   1.976   5.338  10.513  0.1174 -2.0704  0.8549
10505TIP3    H252931   1.828   5.306  10.515 -0.4649  0.4820  1.7242
10506TIP3   OH252932   5.773   4.961  11.425 -0.1678  0.1440 -0.3154
10506TIP3    H152933   5.681   4.933  11.430 -0.4708  1.2185  0.4134
10506TIP3    H252934   5.821   4.880  11.409 -1.2991 -0.3471 -1.3770
10507TIP3   OH252935   6.350   5.767   1.476  0.1545 -0.3746  0.3547
10507TIP3    H152936   6.282   5.717   1.431 -0.7185  0.1356  1.0709
10507TIP3    H252937   6.362   5.845   1.421  0.3162 -0.5648  0.1179
10508TIP3   OH252938   3.264   2.891   6.067  0.5345  0.3939 -0.5631
10508TIP3    H152939   3.258   2.986   6.062  1.1669  0.3920 -1.6616
10508TIP3    H252940   3.266   2.872   6.160  0.1112  1.4331 -0.3283
10509TIP3   OH252941   5.483   1.295   3.373  0.4176  0.2170  0.2600
10509TIP3    H152942   5.417   1.242   3.418  0.9766  0.2458  1.1359
10509TIP3    H252943   5.564   1.245   3.381  0.9769  1.2217  1.1764
10510TIP3   OH252944   2.043   5.880  15.595  0.3046  0.1550  0.0294
10510TIP3    H152945   2.047   5.976  15.590 -0.1625  0.2259  0.9267
10510TIP3    H252946   1.988   5.862  15.670  0.8293 -0.8323  0.1927
10511TIP3   OH252947   0.752   6.228   1.000  0.2998 -0.1068  0.1722
10511TIP3    H152948   0.751   6.198   0.909  0.3772  1.1203 -0.2561
10511TIP3    H252949   0.741   6.323   0.994 -0.3504 -0.0782  1.4879
10512TIP3   OH252950   1.546   4.660  13.204  0.1779 -0.4870 -1.0249
10512TIP3    H152951   1.601   4.582  13.196 -0.1184 -0.6943 -1.0272
10512TIP3    H252952   1.602   4.731  13.171  0.1325 -0.8328 -1.8834
10513TIP3   OH252953   3.346   1.997  14.709 -0.2872 -0.1807 -0.2000
10513TIP3    H152954   3.439   1.990  14.731 -0.3956  0.6788  0.6052
10513TIP3    H252955   3.308   1.916  14.742 -0.0128 -0.0276  0.5085
10514TIP3   OH252956   3.988   0.222  12.836 -0.3661  0.5171  0.3851
10514TIP3    H152957   4.044   0.251  12.908  0.7476 -0.3320 -0.1009
10514TIP3    H252958   3.982   0.299  12.779  2.7086 -0.1048 -0.9921
10515TIP3   OH252959   4.142   2.539  11.670 -0.0150 -0.0469  0.0945
10515TIP3    H152960   4.182   2.626  11.678  1.3337 -0.5453 -0.9725
10515TIP3    H252961   4.186   2.499  11.595 -2.2887 -0.7647 -0.9556
10516TIP3   OH252962   2.961   1.180   0.128  0.0990  0.5170  0.4694
10516TIP3    H152963   2.929   1.254   0.180 -1.9413  0.6977 -0.9427
10516TIP3    H252964   2.882   1.138   0.095  1.2831 -1.1194 -0.3814
10517TIP3   OH252965   2.157   0.566   1.896  0.2111 -0.2750 -0.0678
10517TIP3    H152966   2.209   0.645   1.880 -0.2559  0.0971  0.2418
10517TIP3    H252967   2.222   0.499   1.917  0.6203 -0.0029 -0.4382
10518TIP3   OH252968   3.099   0.013  13.037 -0.2695 -0.2694  0.0890
10518TIP3    H152969   3.055  -0.001  12.953  0.5474  0.2093 -0.4339
10518TIP3    H252970   3.178  -0.040  13.031 -0.4283 -0.5815  0.7445
10519TIP3   OH252971   2.184   1.656  11.709  0.2300  0.1659 -0.5605
10519TIP3    H152972   2.110   1.595  11.708  0.6571 -0.3684 -0.4651
10519TIP3    H252973   2.235   1.629  11.785 -0.2477  1.4821  0.2558
10520TIP3   OH252974   3.029   3.031   0.120 -0.1692  0.8816  0.1756
10520TIP3    H152975   3.122   3.010   0.125 -0.0301  1.2384 -0.6900
10520TIP3    H252976   2.994   2.973   0.053 -0.4389  1.1968  0.0407
10521TIP3   OH252977   5.808   2.441  14.384 -0.0647 -0.2482 -0.8505
10521TIP3    H152978   5.825   2.520  14.435  2.1170 -0.4816 -1.1542
10521TIP3    H252979   5.720   2.415  14.410 -1.7390  3.3456 -2.1471
10522TIP3   OH252980   3.916   4.514  14.167 -0.1614 -0.0098  0.2629
10522TIP3    H152981   3.917   4.498  14.073 -0.0788 -0.6203  0.3652
10522TIP3    H252982   3.973   4.590  14.179 -0.2087  0.0987 -0.1806
10523TIP3   OH252983   4.875   6.485  14.556 -0.4521  0.2380  0.4073
10523TIP3    H152984   4.793   6.510  14.513 -0.5218  0.1108  0.4647
10523TIP3    H252985   4.918   6.426  14.494 -0.5460  0.0659  0.5041
10524TIP3   OH252986   6.642   3.332  12.260 -0.0385  0.4314 -0.2415
10524TIP3    H152987   6.546   3.333  12.268 -0.2398 -1.1937 -1.7966
10524TIP3    H252988   6.659   3.341  12.166  1.4483  2.3204  0.1372
10525TIP3   OH252989   3.873   2.730   3.557 -0.1122  0.3105  0.1109
10525TIP3    H152990   3.858   2.636   3.555  0.3203  0.2489 -0.3691
10525TIP3    H252991   3.944   2.742   3.620  0.0845  0.2810 -0.1062
10526TIP3   OH252992   0.107   3.739   1.877  0.1304 -0.3613  0.2903
10526TIP3    H152993   0.116   3.674   1.807  0.8527 -0.9248  0.8956
10526TIP3    H252994   0.158   3.704   1.949 -1.1879 -0.1347  1.3726
10527TIP3   OH252995   4.994   5.732   0.884  0.0468  0.1383 -0.1458
10527TIP3    H152996   5.020   5.674   0.956  2.1049  0.8681 -0.2392
10527TIP3    H252997   5.002   5.677   0.806 -1.5249 -0.4535  0.0701
10528TIP3   OH252998   4.795   3.930  12.865  0.1985 -0.3311  0.2948
10528TIP3    H152999   4.723   3.939  12.928 -1.5511 -1.6174 -1.3842
10528TIP3    H253000   4.865   3.889  12.914 -1.0142 -1.0512  1.4874
10529TIP3   OH253001   5.388   5.503   3.607 -0.0187 -0.4451  0.1587
10529TIP3    H153002   5.480   5.529   3.609  0.6052 -2.1790 -1.9622
10529TIP3    H253003   5.340   5.586   3.613  1.4980  0.3580  3.9687
10530TIP3   OH253004   2.337   5.235   2.242  0.0496 -0.3737  0.3126
10530TIP3    H153005   2.275   5.213   2.311  1.5605 -0.9000  1.5773
10530TIP3    H253006   2.389   5.155   2.231 -0.3667 -0.4062 -1.6990
10531TIP3   OH253007   1.395   6.112  14.163 -0.1477 -0.9967 -0.4239
10531TIP3    H153008   1.365   6.109  14.254  2.1659 -0.1833  0.4590
10531TIP3    H253009   1.440   6.029  14.150 -0.5353 -1.1422 -0.8738
10532TIP3   OH253010   2.044   6.019   5.181 -0.6413 -0.1885  0.1791
10532TIP3    H153011   1.958   6.019   5.223 -0.8732 -0.5101 -0.2771
10532TIP3    H253012   2.045   5.939   5.128  0.7574 -1.2881  1.7802
10533TIP3   OH253013   6.159   2.096  14.040  0.0636 -0.0172  0.1795
10533TIP3    H153014   6.194   2.160  14.102 -0.5832  0.0617  0.4647
10533TIP3    H253015   6.096   2.146  13.988 -0.8194 -0.5416  0.7363
10534TIP3   OH253016   3.158   3.922  14.827  0.1814  0.0403  0.2207
10534TIP3    H153017   3.137   3.829  14.829  0.2579  0.0390  1.7497
10534TIP3    H253018   3.213   3.933  14.750 -0.0214 -1.1290 -0.1011
10535TIP3   OH253019   2.609   1.947  13.797 -0.0169 -0.4332  0.0471
10535TIP3    H153020   2.683   1.902  13.756  0.8103  0.0286  0.9941
10535TIP3    H253021   2.546   1.877  13.816 -1.0441 -0.5406 -3.1073
10536TIP3   OH253022   3.838   4.806   2.833  0.2322 -0.7696 -0.2213
10536TIP3    H153023   3.817   4.899   2.842  0.8006 -0.5819 -0.7339
10536TIP3    H253024   3.761   4.768   2.792 -0.0011 -0.5169 -0.0199
10537TIP3   OH253025   0.177   1.641   6.364 -0.5960  0.3330 -0.3206
10537TIP3    H153026   0.238   1.631   6.437 -1.5545 -1.0606  0.3317
10537TIP3    H253027   0.149   1.552   6.344 -1.4799  0.8340 -1.4070
10538TIP3   OH253028   0.558   5.707  11.951  0.8549 -0.5340 -0.2845
10538TIP3    H153029   0.592   5.745  11.871 -1.8060  1.6103 -0.5531
10538TIP3    H253030   0.583   5.768  12.020  0.6530 -0.8378  0.0648
10539TIP3   OH253031   3.215   3.089  14.006  0.3476 -0.4227  0.3410
10539TIP3    H153032   3.260   3.088  13.921  1.1841  0.7577  0.7567
10539TIP3    H253033   3.151   3.160  13.998  1.0227  0.2623  0.9937
10540TIP3   OH253034   6.273   6.454   5.544  0.0388 -0.1044 -0.1667
10540TIP3    H153035   6.365   6.473   5.530 -0.0628 -0.2589 -1.1633
10540TIP3    H253036   6.243   6.418   5.460 -1.1349  0.7919 -0.1694
10541TIP3   OH253037   4.342   6.683  13.344  0.2262 -0.5775 -0.3704
10541TIP3    H153038   4.369   6.623  13.413  1.8131  1.2437  0.6746
10541TIP3    H253039   4.246   6.686  13.351  0.1764 -2.3745  0.0268
10542TIP3   OH253040   6.333   1.525  12.474 -0.1108 -0.1126 -0.2734
10542TIP3    H153041   6.305   1.558  12.559  1.6795  0.5837  0.0799
10542TIP3    H253042   6.287   1.579  12.411  0.1510  0.7676  0.2774
10543TIP3   OH253043   6.620   1.757  13.533 -0.3049 -0.4371 -0.0025
10543TIP3    H153044   6.700   1.705  13.529  0.5893  0.7722  1.1797
10543TIP3    H253045   6.645   1.841  13.494 -0.9445  0.0093  0.5419
10544TIP3   OH253046   5.107   6.498  13.479 -0.0993  0.2047 -0.0301
10544TIP3    H153047   5.164   6.556  13.529  0.1405  0.4051 -0.5198
10544TIP3    H253048   5.028   6.489  13.532 -0.3571  1.4016 -0.1686
10545TIP3   OH253049   4.087   2.909   3.631  0.1368  0.3323  0.2215
10545TIP3    H153050   4.058   2.995   3.600  1.3115  0.5074 -0.4374
10545TIP3    H253051   4.127   2.867   3.555 -0.0609 -0.6507  0.6350
10546TIP3   OH253052   0.354   3.933   4.985  0.0096 -0.3844 -0.1400
10546TIP3    H153053   0.381   3.850   5.024 -1.4408  0.2065  2.3118
10546TIP3    H253054   0.407   3.999   5.029 -0.4114  0.1723 -0.4549
10547TIP3   OH253055   2.622   6.133   3.771  0.4177  0.1936 -0.4771
10547TIP3    H153056   2.611   6.038   3.780  0.7000  0.2672  0.9279
10547TIP3    H253057   2.630   6.165   3.861  2.5774  1.2804 -0.9810
10548TIP3   OH253058   6.256   2.783  13.841  0.0695  0.6967  0.4890
10548TIP3    H153059   6.233   2.731  13.917 -1.5071 -0.3874 -0.6541
10548TIP3    H253060   6.308   2.724  13.786 -1.2579  0.4300 -0.5567
10549TIP3   OH253061   6.142   0.542   0.738  0.5163 -0.0308  0.1627
10549TIP3    H153062   6.067   0.570   0.687 -0.1797  0.0753  1.2340
10549TIP3    H253063   6.169   0.619   0.787  1.8107  0.1445 -0.7750
10550TIP3   OH253064   5.346   6.375   4.637  0.4247 -0.4066  0.2056
10550TIP3    H153065   5.361   6.354   4.730  0.6474 -1.0787  0.0276
10550TIP3    H253066   5.387   6.303   4.590  2.0862  0.9310 -0.4880
10551TIP3   OH253067   2.602   2.628  13.015  0.4411 -0.0348  0.1354
10551TIP3    H153068   2.663   2.652  12.945  1.7363 -1.3340  0.7573
10551TIP3    H253069   2.610   2.699  13.079 -0.0595  0.6927 -0.5840
10552TIP3   OH253070   1.913   6.344   4.014 -0.2961  0.5681  0.2380
10552TIP3    H153071   1.975   6.385   3.955 -0.0666  1.1222  0.8608
10552TIP3    H253072   1.911   6.400   4.091  1.9082 -1.8016  2.2301
10553TIP3   OH253073   1.054   6.358   5.717 -0.3876  0.2608 -0.3358
10553TIP3    H153074   0.983   6.328   5.772 -0.6627 -0.4899 -1.0769
10553TIP3    H253075   1.011   6.391   5.638  0.0609  0.1850 -0.6168
10554TIP3   OH253076   6.525   0.436   3.332  0.7875 -0.2407  0.0758
10554TIP3    H153077   6.599   0.434   3.391  2.1210 -0.6479 -1.5455
10554TIP3    H253078   6.488   0.348   3.336  0.5803 -0.1315  0.6383
10555TIP3   OH253079   1.543   3.335  16.430 -0.1615  0.5554  0.3228
10555TIP3    H153080   1.469   3.361  16.375 -0.8850  1.6037  1.7288
10555TIP3    H253081   1.561   3.244  16.404 -0.7884  0.8478 -1.2626
10556TIP3   OH253082   2.729   0.190   3.447 -0.2562  0.2530 -0.0712
10556TIP3    H153083   2.758   0.234   3.527  1.3742 -1.2208  0.2229
10556TIP3    H253084   2.645   0.151   3.470  0.7263 -1.1549  1.3820
10557TIP3   OH253085   2.719   1.873  10.962  0.3612  0.3690  0.7809
10557TIP3    H153086   2.722   1.822  11.043  1.8736  0.2540  0.6807
10557TIP3    H253087   2.625   1.888  10.947  0.0506  0.6419  2.6938
10558TIP3   OH253088   5.652   5.680  13.815  0.1650  0.7221 -0.0560
10558TIP3    H153089   5.712   5.679  13.890  1.9731  1.4501 -1.4339
10558TIP3    H253090   5.566   5.663  13.854  1.3135 -1.0655  1.8987
10559TIP3   OH253091   2.159   6.636  16.709  0.2836  0.3917  0.8519
10559TIP3    H153092   2.190   6.725  16.724  1.1500  0.2036  0.2443
10559TIP3    H253093   2.074   6.633  16.753  0.7960  1.1338  1.9582
10560TIP3   OH253094   2.218   6.503  15.798 -0.3895 -0.4303  0.1524
10560TIP3    H153095   2.314   6.507  15.794 -0.4442  1.2342 -0.3668
10560TIP3    H253096   2.189   6.588  15.764 -2.0646 -0.9815  0.1042
10561TIP3   OH253097   1.157   4.056  12.352  0.1340  0.7689  0.1531
10561TIP3    H153098   1.227   4.015  12.403 -1.8130 -2.0301  0.7699
10561TIP3    H253099   1.076   4.026  12.393 -1.4958  1.4634 -2.3374
10562TIP3   OH253100   5.159   1.520  10.299 -0.0602  0.0573 -0.5141
10562TIP3    H153101   5.072   1.480  10.310 -1.0447  1.6629 -1.9385
10562TIP3    H253102   5.142   1.614  10.295  1.8892  0.4915  0.1654
10563TIP3   OH253103   1.506   6.134  10.511  0.0182  0.0899  0.0833
10563TIP3    H153104   1.525   6.048  10.474 -2.8124 -1.3942  1.6836
10563TIP3    H253105   1.545   6.132  10.598 -0.7421  0.0753  0.4308
10564TIP3   OH253106   2.752   3.499   2.543  0.1715 -0.5549 -0.0109
10564TIP3    H153107   2.765   3.593   2.528  1.4159 -0.9592 -1.8918
10564TIP3    H253108   2.743   3.490   2.638  0.1681  1.4374  0.2135
10565TIP3   OH253109   3.492   4.515   5.426  1.1122 -0.4596 -0.1190
10565TIP3    H153110   3.532   4.454   5.364  2.1062  0.7039 -0.6866
10565TIP3    H253111   3.478   4.463   5.505 -0.5739 -2.0892 -1.4134
10566TIP3   OH253112   4.258   4.423   6.031  0.1788  0.4752 -0.1182
10566TIP3    H153113   4.261   4.510   5.990  1.0919 -0.1850 -1.5109
10566TIP3    H253114   4.346   4.410   6.066  0.3691 -0.3394 -0.8933
10567TIP3   OH253115   0.147   1.505   0.463 -0.7525  0.2306  0.2530
10567TIP3    H153116   0.157   1.597   0.440  1.5616 -0.2961 -1.1669
10567TIP3    H253117   0.112   1.464   0.384 -0.3289 -0.3491  0.3615
10568TIP3   OH253118   6.160   5.045  15.606 -0.2705 -0.0026  0.0246
10568TIP3    H153119   6.220   5.119  15.593 -0.4192 -0.1585 -1.7730
10568TIP3    H253120   6.201   4.993  15.676 -0.4224  1.9938  1.7098
10569TIP3   OH253121   1.481   5.794   2.985  0.0906  0.2504  0.1469
10569TIP3    H153122   1.452   5.869   3.036 -0.9986  0.2478 -0.4432
10569TIP3    H253123   1.441   5.718   3.027  1.1844 -0.0236  0.7405
10570TIP3   OH253124   1.148   2.411   2.483  0.3112 -0.4365 -0.4700
10570TIP3    H153125   1.234   2.431   2.444 -1.4538  4.7568 -2.5455
10570TIP3    H253126   1.100   2.367   2.413  0.0561  0.5141 -0.9192
10571TIP3   OH253127   5.907   3.617   2.481 -0.4539 -0.2314  0.3841
10571TIP3    H153128   5.841   3.548   2.472  0.3247 -0.8769 -0.7161
10571TIP3    H253129   5.982   3.573   2.521 -0.1281  0.1031  0.1476
10572TIP3   OH253130   5.579   2.237  16.281  0.7165  0.1140 -0.0268
10572TIP3    H153131   5.511   2.282  16.332  1.1380  2.5426 -1.4522
10572TIP3    H253132   5.530   2.183  16.219  0.1994 -2.2952  2.3204
10573TIP3   OH253133   1.005   2.979  11.843  0.1652 -0.2198  0.1864
10573TIP3    H153134   1.022   3.021  11.927 -0.8594 -0.8057  0.7127
10573TIP3    H253135   0.932   2.919  11.861 -0.0896 -0.3309 -1.1241
10574TIP3   OH253136   0.071   2.099  15.006 -0.3859 -0.5424 -0.0877
10574TIP3    H153137   0.089   2.148  15.087  2.4662 -1.8332  0.1557
10574TIP3    H253138   0.106   2.154  14.936  1.1345 -1.3303  0.0158
10575TIP3   OH253139   2.318   1.132  13.753  0.8284  0.3168 -0.3991
10575TIP3    H153140   2.246   1.137  13.816  0.8797 -0.8512 -0.2186
10575TIP3    H253141   2.351   1.221  13.747  1.6895  0.2698  2.2627
10576TIP3   OH253142   6.515   2.301   1.555  0.3993 -0.7221  0.3225
10576TIP3    H153143   6.472   2.333   1.634  0.2146  1.6965 -0.6558
10576TIP3    H253144   6.506   2.206   1.559 -1.8428 -0.5294  1.9499
10577TIP3   OH253145   2.537   2.089   5.227  0.8445  0.6097  0.2642
10577TIP3    H153146   2.576   2.009   5.262  1.4005  1.0826  0.7749
10577TIP3    H253147   2.544   2.081   5.132  1.6983  0.4276  0.3322
10578TIP3   OH253148   6.148   3.070   6.027  0.4579  0.2822 -0.0223
10578TIP3    H153149   6.242   3.050   6.025  0.3037 -1.0471  2.2191
10578TIP3    H253150   6.138   3.130   6.101 -0.6457 -1.0991  1.0037
10579TIP3   OH253151   5.669   6.771   3.839  0.3354  0.1675 -0.3984
10579TIP3    H153152   5.744   6.716   3.864  0.7133  0.4709 -0.8513
10579TIP3    H253153   5.641   6.812   3.920 -0.4907 -1.3311  0.1273
10580TIP3   OH253154   0.976   5.719   0.814 -0.3910 -0.3251 -0.3384
10580TIP3    H153155   1.026   5.800   0.825  0.8463 -1.1015 -0.1286
10580TIP3    H253156   0.886   5.745   0.833  0.1003  0.8270  0.5480
10581TIP3   OH253157   1.465   2.602  13.648  0.3183 -0.2880  0.6674
10581TIP3    H153158   1.425   2.537  13.591  2.4815 -1.4458  0.3473
10581TIP3    H253159   1.510   2.662  13.589  0.1334  0.2410  1.0529
10582TIP3   OH253160   4.448   4.549  15.848 -0.0161 -0.2526  0.1343
10582TIP3    H153161   4.511   4.578  15.782  2.2674 -2.4384  1.1867
10582TIP3    H253162   4.424   4.460  15.821 -0.5588 -0.4454  1.2043
10583TIP3   OH253163   0.836   6.790   2.709  0.0603  0.2448 -0.5127
10583TIP3    H153164   0.857   6.765   2.619 -0.8925 -0.1562 -0.6293
10583TIP3    H253165   0.920   6.817   2.746  0.4106  0.6864 -1.6025
10584TIP3   OH253166   4.343   4.393   1.202 -0.6594 -0.0952 -0.3864
10584TIP3    H153167   4.275   4.349   1.252  0.0620 -0.7792  0.0028
10584TIP3    H253168   4.404   4.426   1.268  0.2770 -0.9717 -0.7895
10585TIP3   OH253169   6.595   4.866  13.207 -0.0219  0.1509  0.3809
10585TIP3    H153170   6.537   4.808  13.257 -0.1952 -0.3621 -0.3956
10585TIP3    H253171   6.668   4.883  13.266 -0.4163 -0.1085  0.9604
10586TIP3   OH253172   1.788   2.843  16.246 -0.6341 -0.2627 -0.2035
10586TIP3    H153173   1.793   2.748  16.236  0.3582 -0.2409 -0.0279
10586TIP3    H253174   1.744   2.873  16.166  0.2554 -0.7631 -0.9083
10587TIP3   OH253175   3.572   5.818   1.500  0.5973  0.0078 -0.0505
10587TIP3    H153176   3.502   5.869   1.460 -0.3659 -0.6204  0.7782
10587TIP3    H253177   3.560   5.830   1.594  1.5429 -0.1894  0.1055
10588TIP3   OH253178   1.180   1.789   5.707  0.6503 -0.1796  0.0020
10588TIP3    H153179   1.172   1.705   5.752 -0.2473  0.8711  1.8850
10588TIP3    H253180   1.265   1.823   5.735  0.2993  0.2621  0.5444
10589TIP3   OH253181   5.435   3.658  14.640 -0.0702  0.4780  0.1266
10589TIP3    H153182   5.402   3.735  14.594 -0.4113 -0.5882 -1.5077
10589TIP3    H253183   5.420   3.585  14.579  4.3266 -0.3086 -0.3801
10590TIP3   OH253184   6.707   2.615   3.820 -0.5151  0.2466  0.3792
10590TIP3    H153185   6.680   2.588   3.732 -1.5638 -1.6064  1.2245
10590TIP3    H253186   6.629   2.654   3.858  0.1338  1.7087  0.2856
10591TIP3   OH253187   4.729   0.611  11.557 -0.2442 -0.7488 -0.5338
10591TIP3    H153188   4.740   0.684  11.618  1.5981  1.5371 -3.3168
10591TIP3    H253189   4.635   0.593  11.558 -1.1668  3.0465 -1.0121
10592TIP3   OH253190   2.179   4.787  16.655 -0.3676  0.4703 -0.2899
10592TIP3    H153191   2.116   4.731  16.700  0.9319 -1.1287 -0.3566
10592TIP3    H253192   2.166   4.874  16.692  0.8554 -0.7877  3.5571
10593TIP3   OH253193   3.196   4.159  13.836  0.6626  0.3134 -0.0778
10593TIP3    H153194   3.247   4.239  13.823  2.0968 -0.8632 -2.3638
10593TIP3    H253195   3.132   4.160  13.765 -0.8492  0.5034  1.2395
10594TIP3   OH253196   0.453   6.194   0.036 -0.3638  0.3082  0.0862
10594TIP3    H153197   0.466   6.099   0.034  0.2800  0.4027 -0.5372
10594TIP3    H253198   0.529   6.228   0.083  0.0804  0.6197 -0.8476
10595TIP3   OH253199   1.084   1.895   1.259  1.1686 -0.1024  0.5815
10595TIP3    H153200   1.154   1.937   1.309  0.8589  1.0725  0.0658
10595TIP3    H253201   1.008   1.953   1.271  0.7117 -0.5438 -0.1084
10596TIP3   OH253202   2.669   3.741   4.418 -0.2983 -0.4245 -0.1338
10596TIP3    H153203   2.736   3.776   4.476  0.4963 -0.8689 -0.7560
10596TIP3    H253204   2.595   3.722   4.475  0.5084 -0.9615  0.7684
10597TIP3   OH253205   0.072   3.929  16.754 -0.7363  0.0729  0.2644
10597TIP3    H153206   0.053   3.961  16.842  2.1538 -0.1048  1.0415
10597TIP3    H253207   0.147   3.980  16.725 -2.2816  0.9370 -2.6539
10598TIP3   OH253208   3.561   6.222  11.243  0.9635  0.3077  0.1235
10598TIP3    H153209   3.606   6.248  11.323  0.7954  2.8121 -0.4900
10598TIP3    H253210   3.624   6.240  11.173  0.1451  0.8570 -0.5017
10599TIP3   OH253211   1.974   3.070  15.087  0.2455  0.3343 -0.4794
10599TIP3    H153212   1.906   3.109  15.031  0.5225  1.4772 -0.0336
10599TIP3    H253213   2.055   3.084  15.039  0.3940  0.6694 -0.1317
10600TIP3   OH253214   0.014   6.454   5.451 -0.5398  0.2199  0.2318
10600TIP3    H153215  -0.019   6.481   5.537  0.2726 -0.9784  0.9506
10600TIP3    H253216  -0.065   6.445   5.397 -1.1896 -0.3553  1.2418
10601TIP3   OH253217   1.991   3.837  12.089  0.2809  0.4083  0.1624
10601TIP3    H153218   1.971   3.756  12.042 -0.3317  0.0705  0.9930
10601TIP3    H253219   2.086   3.839  12.094  0.3250  0.0732 -0.4251
10602TIP3   OH253220   4.671   3.431  11.407 -0.2346 -0.1747  0.6139
10602TIP3    H153221   4.616   3.501  11.441  0.3101 -0.5780  2.4373
10602TIP3    H253222   4.642   3.353  11.453 -0.3251 -1.0472 -0.8407
10603TIP3   OH253223   1.011   6.342  10.410  0.2811 -0.1609 -0.2005
10603TIP3    H153224   1.023   6.386  10.326 -2.0851 -0.2618 -0.6558
10603TIP3    H253225   0.975   6.256  10.387 -2.1745  0.4835  0.9236
10604TIP3   OH253226   3.394   5.070   3.260 -0.3217 -0.4186  0.4167
10604TIP3    H153227   3.410   5.039   3.349  1.6610 -2.3865 -0.5325
10604TIP3    H253228   3.478   5.107   3.233 -0.0659 -2.2948 -1.5334
10605TIP3   OH253229   0.407   3.559  13.271 -0.1430 -0.1655  0.3598
10605TIP3    H153230   0.385   3.485  13.327 -2.1061 -0.0584 -0.1993
10605TIP3    H253231   0.417   3.633  13.332  0.8976 -0.6624  0.8247
10606TIP3   OH253232   2.172   4.484  15.301  0.2100  0.1821  0.1764
10606TIP3    H153233   2.198   4.555  15.360 -0.1869 -0.3978  1.0647
10606TIP3    H253234   2.252   4.433  15.288  0.0623 -0.3119  1.1050
10607TIP3   OH253235   0.442   5.886  11.052  0.5843 -0.1882  0.3362
10607TIP3    H153236   0.417   5.819  11.116  0.3315 -1.0758 -0.6730
10607TIP3    H253237   0.364   5.939  11.041  0.5579 -0.1733  0.5861
10608TIP3   OH253238   5.327   6.267   1.650  0.2283  0.1162 -0.4832
10608TIP3    H153239   5.361   6.185   1.685  1.6039  0.8775  0.0822
10608TIP3    H253240   5.340   6.330   1.721 -0.9836  0.7782 -0.8342
10609TIP3   OH253241   0.684   3.646  14.743 -0.2479  0.0096 -0.4934
10609TIP3    H153242   0.709   3.555  14.756  0.0329  0.2806  1.2090
10609TIP3    H253243   0.699   3.687  14.829 -1.1864  1.4569 -0.9777
10610TIP3   OH253244   1.560   1.387  15.806 -0.2584  0.0412 -0.0465
10610TIP3    H153245   1.475   1.356  15.838 -1.0604  1.4283 -0.7558
10610TIP3    H253246   1.569   1.474  15.843  1.1318 -0.3048  0.4662
10611TIP3   OH253247   0.449   4.985  13.198  0.2749 -0.6335  0.5139
10611TIP3    H153248   0.387   5.053  13.172 -1.6939 -1.8952  1.5845
10611TIP3    H253249   0.451   4.924  13.123  1.2655  0.0543 -0.0405
10612TIP3   OH253250   2.747   0.100  16.471 -0.0156  0.2480 -0.1547
10612TIP3    H153251   2.829   0.058  16.495 -0.1908  1.0011  2.0510
10612TIP3    H253252   2.681   0.058  16.526 -0.3677  2.5255  1.3249
10613TIP3   OH253253   2.954   6.536   0.906 -0.0138  0.4460  0.0267
10613TIP3    H153254   3.041   6.567   0.880  0.8097 -0.4091  1.6066
10613TIP3    H253255   2.958   6.441   0.894 -0.4106  0.3040  0.9592
10614TIP3   OH253256   1.982   2.710   2.474  0.0055  0.1572 -0.5292
10614TIP3    H153257   2.062   2.671   2.509  0.8602  0.8806 -1.6255
10614TIP3    H253258   1.983   2.687   2.381 -1.7596 -0.9555 -0.3088
10615TIP3   OH253259   0.022   2.335  16.906 -0.0094  0.1367 -0.0013
10615TIP3    H153260   0.101   2.282  16.920 -0.6803 -1.3632 -1.6305
10615TIP3    H253261  -0.050   2.279  16.931 -0.7093  0.5158 -1.1120
10616TIP3   OH253262   3.167   0.374   4.412  0.2996 -0.3136  0.1597
10616TIP3    H153263   3.089   0.320   4.424  0.8653 -0.7921  1.8610
10616TIP3    H253264   3.232   0.314   4.376  0.8996 -0.7854  1.9624
10617TIP3   OH253265   2.976   0.504   1.184 -0.3980  0.5208  0.0239
10617TIP3    H153266   2.945   0.587   1.219 -0.2133  0.1335  1.1311
10617TIP3    H253267   2.896   0.455   1.166 -0.4954 -0.0020  1.7184
10618TIP3   OH253268   1.927   4.641   5.166 -0.0546  0.2825  0.1343
10618TIP3    H153269   1.868   4.709   5.197 -1.1377 -0.8872  0.7698
10618TIP3    H253270   1.893   4.560   5.205  2.4594 -0.3670  1.2261
10619TIP3   OH253271   4.838   5.165  11.179 -0.7606  0.3351  0.3283
10619TIP3    H153272   4.748   5.194  11.196 -0.9837  0.2909 -0.7482
10619TIP3    H253273   4.863   5.210  11.099  0.7517  1.5769  1.4395
10620TIP3   OH253274   5.360   3.388   2.251  0.1693 -0.4408 -0.5445
10620TIP3    H153275   5.286   3.384   2.190 -0.0072  0.8144 -0.4369
10620TIP3    H253276   5.362   3.479   2.280  1.5968 -0.5174 -0.3360
10621TIP3   OH253277   3.557   2.669   4.379  0.7774  0.2370  0.1496
10621TIP3    H153278   3.578   2.614   4.303  0.7107  2.1880 -1.3498
10621TIP3    H253279   3.461   2.672   4.381  0.7613 -0.4115  0.7923
10622TIP3   OH253280   2.309   6.682   3.697  0.2229 -0.1816 -0.0889
10622TIP3    H153281   2.263   6.683   3.780  1.6892  0.6748  0.7598
10622TIP3    H253282   2.382   6.621   3.710  0.2396 -0.3451 -0.8768
10623TIP3   OH253283   6.257   6.326  16.113 -0.3690  0.5034 -0.5081
10623TIP3    H153284   6.302   6.256  16.066  0.1158  0.5461 -0.1184
10623TIP3    H253285   6.327   6.385  16.141 -0.6063  0.2953  0.5629
10624TIP3   OH253286   2.737   5.095   0.186 -0.1677 -0.6325  0.1292
10624TIP3    H153287   2.697   5.044   0.256 -1.7042  0.4487  0.0732
10624TIP3    H253288   2.731   5.186   0.215 -3.9954  0.2797 -2.7153
10625TIP3   OH253289   4.327   4.297   3.773 -0.1458 -0.0957 -0.3064
10625TIP3    H153290   4.362   4.320   3.860  0.5276  1.4742 -0.9420
10625TIP3    H253291   4.404   4.268   3.724 -0.5729 -1.2577 -0.3140
10626TIP3   OH253292   4.755   2.368   3.502 -0.4255 -0.0510  0.5777
10626TIP3    H153293   4.733   2.384   3.410 -0.1234  1.8426  0.7870
10626TIP3    H253294   4.677   2.326   3.538 -0.4053 -1.1748 -0.6056
10627TIP3   OH253295   4.449   1.883  15.551  0.6043  0.0308 -0.9613
10627TIP3    H153296   4.371   1.920  15.509  0.6490  2.5498  0.8954
10627TIP3    H253297   4.453   1.793  15.520 -3.4046 -0.4064 -0.7199
10628TIP3   OH253298   5.295   5.932   0.576 -0.5811  0.3084 -0.9859
10628TIP3    H153299   5.367   5.989   0.548 -0.9350  1.1710 -0.2066
10628TIP3    H253300   5.337   5.854   0.611 -0.0859  0.0024 -2.2103
10629TIP3   OH253301   2.510   4.605   3.487 -0.1144  0.6116  0.3051
10629TIP3    H153302   2.596   4.563   3.485  0.0069  0.8064  1.1506
10629TIP3    H253303   2.529   4.698   3.496 -0.4159  0.6416  0.6370
10630TIP3   OH253304   1.633   3.121   2.135 -0.2443  0.1911  0.1501
10630TIP3    H153305   1.576   3.187   2.173 -1.0228 -0.0863 -0.5011
10630TIP3    H253306   1.578   3.076   2.071  0.3456 -0.9217  0.4065
10631TIP3   OH253307   0.776   2.991  13.884 -0.1214  0.3048 -0.4437
10631TIP3    H153308   0.749   2.900  13.868  1.1280 -0.0584 -0.6161
10631TIP3    H253309   0.695   3.036  13.906 -1.2077 -0.3036 -2.8066
10632TIP3   OH253310   6.383   6.049   0.158  0.0500  0.1172 -0.1865
10632TIP3    H153311   6.432   6.013   0.232 -0.1147  0.4587  0.0916
10632TIP3    H253312   6.293   6.057   0.190 -0.0941 -0.0722 -0.5425
10633TIP3   OH253313   5.883   5.565   3.548  0.3021  0.5381  0.4075
10633TIP3    H153314   5.920   5.527   3.627  0.7544 -1.0117 -0.4935
10633TIP3    H253315   5.808   5.509   3.527 -1.3788  2.4130  1.0740
10634TIP3   OH253316   1.112   3.918   4.982 -0.3953  0.1563  0.2647
10634TIP3    H153317   1.165   3.950   4.909 -0.7405 -0.9436 -0.5015
10634TIP3    H253318   1.163   3.844   5.017 -0.2328  0.6757  1.1454
10635TIP3   OH253319   2.349   3.425  14.657  0.3473  0.4640  0.4384
10635TIP3    H153320   2.363   3.331  14.661 -0.6293  0.3074  0.5425
10635TIP3    H253321   2.268   3.439  14.707 -1.9670  0.7634 -3.0450
10636TIP3   OH253322   4.688   6.766  16.099 -0.1218 -0.3682 -0.1650
10636TIP3    H153323   4.755   6.777  16.167 -0.8304  0.4744  0.4160
10636TIP3    H253324   4.667   6.856  16.072  0.6563 -0.6878 -2.0275
10637TIP3   OH253325   6.167   0.481   4.684 -0.2487 -0.6298 -0.0934
10637TIP3    H153326   6.084   0.527   4.691  0.3672  0.3357  1.3210
10637TIP3    H253327   6.234   0.548   4.700  0.6701 -1.9658  2.2861
10638TIP3   OH253328   0.569   1.666  12.927 -0.2138 -0.4047  0.2073
10638TIP3    H153329   0.589   1.756  12.902  0.0023 -0.9612 -1.7449
10638TIP3    H253330   0.480   1.651  12.895  0.8280 -1.7974 -2.3418
10639TIP3   OH253331   1.851   3.968   5.696  0.0932  0.3971  0.4038
10639TIP3    H153332   1.930   3.922   5.724  0.6583  0.8665 -0.3836
10639TIP3    H253333   1.819   4.012   5.775 -0.8310 -1.8241  1.3343
10640TIP3   OH253334   6.621   1.564  12.494 -0.2989  0.4598 -0.0074
10640TIP3    H153335   6.526   1.565  12.500 -0.4049  0.5207 -1.5104
10640TIP3    H253336   6.650   1.592  12.581 -1.6499  0.8390  0.3479
10641TIP3   OH253337   1.782   2.274   0.343 -0.1304 -0.5212  0.5259
10641TIP3    H153338   1.759   2.181   0.349  0.3996 -0.7611 -0.7369
10641TIP3    H253339   1.702   2.317   0.315 -0.0464 -0.8152 -0.2116
10642TIP3   OH253340   0.496   4.498  12.957  0.5733  0.5101  0.4487
10642TIP3    H153341   0.445   4.430  12.913  0.3824  0.1833  1.1557
10642TIP3    H253342   0.522   4.458  13.040  1.7518  0.7692  0.2200
10643TIP3   OH253343   3.087   4.442   5.851  0.1315 -0.3131  0.4961
10643TIP3    H153344   3.000   4.402   5.852  1.0667 -2.5546 -0.6605
10643TIP3    H253345   3.092   4.489   5.935 -2.0454 -0.3847  0.7405
10644TIP3   OH253346   6.030   5.453   0.909 -0.3976  0.2640 -0.2151
10644TIP3    H153347   6.035   5.466   1.004  2.5866  1.7138 -0.4384
10644TIP3    H253348   6.067   5.366   0.894 -1.3882 -0.1947 -0.0306
10645TIP3   OH253349   0.357   2.184   2.170 -0.0827  0.2255  0.1172
10645TIP3    H153350   0.273   2.222   2.195 -0.7198 -1.8823  1.3711
10645TIP3    H253351   0.421   2.228   2.226 -0.7144 -0.0826  1.0937
10646TIP3   OH253352   1.370   5.768  11.648 -0.1475 -0.4688 -0.0097
10646TIP3    H153353   1.294   5.711  11.661 -0.7631  0.7943  2.6911
10646TIP3    H253354   1.346   5.822  11.572 -1.0162 -1.4919 -0.4921
10647TIP3   OH253355   6.788   3.617   3.154 -0.2333  0.1411 -0.2391
10647TIP3    H153356   6.881   3.602   3.168 -0.1749 -0.0355 -0.7739
10647TIP3    H253357   6.744   3.552   3.208 -0.0315 -0.0997 -0.3625
10648TIP3   OH253358   0.964   4.489  15.167  0.0214  0.4797 -0.0221
10648TIP3    H153359   1.034   4.552  15.151 -0.1721  0.5696 -0.5298
10648TIP3    H253360   0.883   4.539  15.153 -0.1497  0.3624  0.5056
10649TIP3   OH253361   3.002   0.063  10.560 -0.0858 -0.2666  0.0954
10649TIP3    H153362   2.968   0.032  10.476  0.5950 -0.6018 -0.0648
10649TIP3    H253363   3.096   0.045  10.556  0.2961  1.4842  0.1430
10650TIP3   OH253364   1.912   2.556   3.781  0.6468 -0.2650 -0.2784
10650TIP3    H153365   1.887   2.596   3.864 -0.5446 -1.1916 -0.1656
10650TIP3    H253366   2.001   2.524   3.796  0.6392  0.0498  0.4653
10651TIP3   OH253367   1.506   2.474   5.327 -0.0875  0.5165 -0.3881
10651TIP3    H153368   1.512   2.381   5.350 -0.3877  0.5806 -0.0404
10651TIP3    H253369   1.434   2.477   5.263 -0.8323  0.6585  0.4413
10652TIP3   OH253370   2.370   1.075   5.872  0.5561  0.3073  0.3171
10652TIP3    H153371   2.362   1.028   5.789  0.3133  1.5516 -0.3936
10652TIP3    H253372   2.281   1.100   5.894  0.8043  1.4555  0.0608
10653TIP3   OH253373   0.017   6.296  12.345 -0.1712 -0.4699 -0.4998
10653TIP3    H153374  -0.014   6.217  12.391 -0.4162 -0.7868 -1.1908
10653TIP3    H253375   0.098   6.268  12.303  1.0016  0.3088  1.1505
10654TIP3   OH253376   6.219   6.415   5.279 -0.1891  0.8317  0.2171
10654TIP3    H153377   6.202   6.452   5.193  1.6984  2.0978  0.3073
10654TIP3    H253378   6.257   6.329   5.261 -0.2769  0.8785 -0.2078
10655TIP3   OH253379   6.307   1.097   2.930 -0.9803 -0.3611 -0.1372
10655TIP3    H153380   6.325   1.176   2.982 -2.3316 -0.6567  0.8473
10655TIP3    H253381   6.393   1.066   2.903 -0.2705  0.2572  1.2917
10656TIP3   OH253382   3.742   5.019   2.514  0.4569 -0.2759  0.1199
10656TIP3    H153383   3.730   4.931   2.479  1.6519 -0.0394 -0.9775
10656TIP3    H253384   3.826   5.048   2.477  0.3406  1.1160  0.8827
10657TIP3   OH253385   1.694   3.474   4.316 -0.6057  0.3344 -0.1684
10657TIP3    H153386   1.756   3.472   4.389 -0.6392  0.7648 -0.1303
10657TIP3    H253387   1.654   3.387   4.317 -0.8277  0.4401  0.5178
10658TIP3   OH253388   5.014   5.825   4.358  0.3662 -0.2776  0.1086
10658TIP3    H153389   4.976   5.792   4.277 -1.0980 -0.7845  0.9640
10658TIP3    H253390   5.106   5.798   4.354  0.5435  0.4411 -1.7329
10659TIP3   OH253391   1.777   1.851  17.000  0.2610 -0.2875 -0.1770
10659TIP3    H153392   1.729   1.769  17.012  2.3967 -2.0672 -2.5362
10659TIP3    H253393   1.740   1.888  16.920  1.3457 -0.5744 -0.8219
10660TIP3   OH253394   1.442   5.960  16.819 -0.0680 -0.5855  0.1871
10660TIP3    H153395   1.505   5.946  16.889 -0.2418  2.4263  1.0886
10660TIP3    H253396   1.493   5.953  16.738  1.3699  1.2243  0.8800
10661TIP3   OH253397   1.846   1.609   3.119 -0.0156  0.1938 -0.2989
10661TIP3    H153398   1.923   1.649   3.080  0.4944 -1.3055 -0.8837
10661TIP3    H253399   1.841   1.522   3.080 -0.7021 -0.5808  1.4042
10662TIP3   OH253400   6.457   2.720   4.055 -0.3582  0.5084  0.0841
10662TIP3    H153401   6.514   2.653   4.095  0.9813  1.9073  0.6037
10662TIP3    H253402   6.442   2.783   4.126 -3.8853 -0.5414  0.4599
10663TIP3   OH253403   1.126   2.307   5.768 -0.4651 -0.5432 -0.3146
10663TIP3    H153404   1.141   2.339   5.858 -0.5790 -0.4641 -0.3235
10663TIP3    H253405   1.182   2.230   5.761 -1.6342 -1.4964  0.3582
10664TIP3   OH253406   6.626   2.454  10.389 -0.2631  0.0485 -0.2130
10664TIP3    H153407   6.610   2.489  10.301  0.8261  0.3428 -0.3006
10664TIP3    H253408   6.683   2.379  10.374 -0.8335 -0.4695  0.1728
10665TIP3   OH253409   1.620   4.640  14.211  0.7135 -0.7730  0.2687
10665TIP3    H153410   1.667   4.717  14.243 -0.4680  0.1051 -0.0081
10665TIP3    H253411   1.551   4.676  14.155  0.3166 -2.0577 -0.1105
10666TIP3   OH253412   5.903   4.717   4.553 -0.1106 -0.3167 -0.4079
10666TIP3    H153413   5.866   4.633   4.527 -0.6648 -0.2745  0.2084
10666TIP3    H253414   5.979   4.729   4.495 -0.0498 -1.2102 -0.5277
10667TIP3   OH253415   3.085   1.640  11.320 -0.3114 -0.0570 -0.3203
10667TIP3    H153416   3.048   1.718  11.361  1.1219  0.4587  0.0338
10667TIP3    H253417   3.009   1.583  11.305 -1.8214  2.3809 -2.9194
10668TIP3   OH253418   6.473   4.783  11.519 -0.0549 -0.1356  0.2691
10668TIP3    H153419   6.507   4.708  11.569  0.0686 -0.4657 -0.3047
10668TIP3    H253420   6.381   4.787  11.543  0.4180  0.9620  2.0951
10669TIP3   OH253421   0.296   4.952   0.066  0.1462 -0.1718  0.0678
10669TIP3    H153422   0.275   4.866   0.029  0.1600 -0.6402  1.0954
10669TIP3    H253423   0.263   5.015   0.002 -1.7374 -0.9217  0.2318
10670TIP3   OH253424   2.705   5.637   1.803 -0.4204 -0.0400 -0.2788
10670TIP3    H153425   2.737   5.587   1.727 -0.2215  0.8346 -0.7799
10670TIP3    H253426   2.651   5.574   1.852  1.6107 -1.4342  0.3188
10671TIP3   OH253427   1.041   6.018   0.030 -0.3839  0.2950 -0.0964
10671TIP3    H153428   1.126   6.004  -0.013 -1.1312  2.1493 -2.3752
10671TIP3    H253429   0.988   5.943   0.005  0.2310 -0.3204  0.4226
10672TIP3   OH253430   1.223   1.304  14.666  0.1554  0.3226 -0.3782
10672TIP3    H153431   1.277   1.225  14.669 -0.3388 -0.0436  3.2671
10672TIP3    H253432   1.277   1.372  14.706 -0.0841  1.4438 -1.8652
10673TIP3   OH253433   3.467   1.592   5.434 -0.5787 -0.0347 -0.1238
10673TIP3    H153434   3.518   1.673   5.436 -0.3534 -0.0902 -1.8870
10673TIP3    H253435   3.419   1.592   5.517  0.5736  1.1264  0.5937
10674TIP3   OH253436   1.561   3.615  16.420 -0.3017  0.3473 -0.3349
10674TIP3    H153437   1.551   3.612  16.325 -0.5342 -0.4189 -0.2883
10674TIP3    H253438   1.587   3.527  16.445 -0.4414  0.4880  0.3361
10675TIP3   OH253439   0.432   6.732  16.249 -0.2136 -0.3597 -0.0603
10675TIP3    H153440   0.477   6.652  16.274 -0.9582 -0.9194 -0.4951
10675TIP3    H253441   0.370   6.706  16.182 -1.7997  0.2177  1.1094
10676TIP3   OH253442   1.564   1.775   0.610  0.5599  0.5178 -0.5811
10676TIP3    H153443   1.527   1.839   0.549  0.1574  2.8776  1.9367
10676TIP3    H253444   1.491   1.717   0.631  0.9630 -1.0370 -2.9972
10677TIP3   OH253445   0.479   2.550  16.453  0.9387 -0.2422 -0.8741
10677TIP3    H153446   0.560   2.499  16.450  0.9519 -0.6431  2.3933
10677TIP3    H253447   0.412   2.491  16.420  1.1824 -2.0098  1.5470
10678TIP3   OH253448   5.614   4.062  14.945  0.4752 -0.1116 -0.5622
10678TIP3    H153449   5.648   4.148  14.972  2.4552 -0.3473 -2.1236
10678TIP3    H253450   5.541   4.083  14.887  0.9330  0.5338 -0.9274
10679TIP3   OH253451   0.471   5.114  12.131 -0.6710 -0.3566 -0.7015
10679TIP3    H153452   0.554   5.162  12.134 -0.1690 -1.2419  1.6176
10679TIP3    H253453   0.406   5.178  12.163 -0.2755 -0.6432  0.7716
10680TIP3   OH253454   4.660   1.111  16.479 -0.3463 -0.4038 -0.1970
10680TIP3    H153455   4.598   1.107  16.552  0.3745  0.0962  0.4623
10680TIP3    H253456   4.697   1.199  16.484  0.7862 -0.8498 -0.2495
10681TIP3   OH253457   3.888   0.046   3.538 -0.0918  0.1775  0.8541
10681TIP3    H153458   3.805   0.056   3.585 -0.1729  1.2100  0.5180
10681TIP3    H253459   3.931  -0.028   3.581 -2.1441 -1.8651 -0.3809
10682TIP3   OH253460   2.715   4.536   4.882 -0.2329  0.3620 -0.1412
10682TIP3    H153461   2.660   4.525   4.805  0.5816  1.2206 -0.8622
10682TIP3    H253462   2.654   4.560   4.952 -0.8002  1.1388 -0.8849
10683TIP3   OH253463   5.317   1.232  14.028  0.0754 -0.5086 -0.4431
10683TIP3    H153464   5.367   1.201  13.952  1.6326  0.1869  0.2474
10683TIP3    H253465   5.315   1.328  14.017  2.7365 -0.0874  1.7231
10684TIP3   OH253466   0.266   1.069  13.908 -0.1042  0.3862  0.2344
10684TIP3    H153467   0.215   1.044  13.985 -0.4093  0.7318  0.1470
10684TIP3    H253468   0.342   1.115  13.943  0.0472  0.0476  0.3554
10685TIP3   OH253469   0.766   1.442   0.282  0.9584  0.0248  0.1072
10685TIP3    H153470   0.764   1.399   0.197 -0.4603  0.6516 -0.2082
10685TIP3    H253471   0.688   1.408   0.327  0.7225  1.0174  0.4621
10686TIP3   OH253472   5.050   5.683   2.054  0.3509  0.0866 -0.0525
10686TIP3    H153473   5.022   5.732   1.977 -1.9350  0.2288  0.8046
10686TIP3    H253474   5.038   5.591   2.030  0.3175  0.1051 -0.1060
10687TIP3   OH253475   0.669   4.397  11.295  0.7214  0.6096  0.2145
10687TIP3    H153476   0.624   4.468  11.342 -0.4146  1.6058 -2.2189
10687TIP3    H253477   0.708   4.440  11.219 -2.2928 -1.6172 -2.9210
10688TIP3   OH253478   3.647   5.840   4.696 -0.4019  0.4710 -0.0269
10688TIP3    H153479   3.709   5.831   4.623 -2.0185  0.1702 -1.4274
10688TIP3    H253480   3.621   5.751   4.717  0.8204  0.4796  1.6580
10689TIP3   OH253481   2.899   6.204  13.133  0.1245  0.1099  0.5885
10689TIP3    H153482   2.927   6.207  13.041  0.4669  0.1032  0.6911
10689TIP3    H253483   2.978   6.179  13.181 -0.1031 -0.0781  0.8642
10690TIP3   OH253484   4.972   3.894   1.285 -0.3998 -0.8412 -0.4466
10690TIP3    H153485   5.010   3.908   1.372 -0.9871 -1.3065 -0.1043
10690TIP3    H253486   5.039   3.922   1.224  0.4628 -1.5557  0.1495
10691TIP3   OH253487   6.456   4.557   4.803 -0.4240 -0.2447 -0.4425
10691TIP3    H153488   6.440   4.498   4.876 -0.4764 -0.3895 -0.5708
10691TIP3    H253489   6.369   4.576   4.768 -0.3753 -0.4347 -0.6696
10692TIP3   OH253490   3.446   1.132   5.377 -0.4409  0.1061  0.1378
10692TIP3    H153491   3.533   1.168   5.392  0.5331 -1.6532 -0.8714
10692TIP3    H253492   3.418   1.168   5.293  1.0310 -2.1887 -1.4534
10693TIP3   OH253493   3.688   1.041  13.314 -0.4348 -0.4068 -0.0850
10693TIP3    H153494   3.669   0.955  13.276 -3.4845  0.3959 -0.6446
10693TIP3    H253495   3.727   1.091  13.243 -0.7900 -0.6558 -0.4619
10694TIP3   OH253496   2.221   5.790   4.538  0.2164  0.4017 -0.0711
10694TIP3    H153497   2.159   5.803   4.610  0.6638 -0.3912  0.4781
10694TIP3    H253498   2.166   5.791   4.459 -0.3740  0.6070  0.3334
10695TIP3   OH253499   5.514   3.248  13.390 -0.0792 -0.0294  0.0001
10695TIP3    H153500   5.506   3.153  13.381 -0.0942  0.1299 -1.9369
10695TIP3    H253501   5.498   3.264  13.483 -2.7527 -1.6614 -0.0664
10696TIP3   OH253502   2.325   4.399   3.525  0.3498 -0.0243  0.3086
10696TIP3    H153503   2.248   4.428   3.475  0.3294  0.5313  0.6504
10696TIP3    H253504   2.385   4.474   3.520  2.5224 -1.7306 -3.2006
10697TIP3   OH253505   3.260   4.730  12.032  0.2599 -0.0188  0.1158
10697TIP3    H153506   3.247   4.771  12.118  1.2459  0.1353  0.2056
10697TIP3    H253507   3.226   4.794  11.969 -1.1223 -0.4330  0.4151
10698TIP3   OH253508   6.570   4.889  16.449 -0.3618  0.8357 -0.9094
10698TIP3    H153509   6.659   4.854  16.461  0.0210  1.8470 -0.6046
10698TIP3    H253510   6.512   4.815  16.467  0.4028  0.3845 -0.2089
10699TIP3   OH253511   4.879   5.313   3.280 -0.1334  0.2942  0.0939
10699TIP3    H153512   4.884   5.407   3.262 -1.5059  0.6989  1.6091
10699TIP3    H253513   4.798   5.302   3.329  0.2145 -1.6407  0.3178
10700TIP3   OH253514   1.407   0.905  12.483 -0.1466  0.2906 -0.6854
10700TIP3    H153515   1.444   0.827  12.523  0.1051  1.1527  0.7996
10700TIP3    H253516   1.361   0.949  12.554  1.5421  2.6193 -0.9461
10701TIP3   OH253517   5.251   2.362   3.064 -0.5104 -0.5502 -0.0586
10701TIP3    H153518   5.317   2.427   3.090 -2.0515  0.9380  0.3336
10701TIP3    H253519   5.238   2.308   3.142 -2.7731  1.8715  1.4385
10702TIP3   OH253520   2.849   2.391  14.075  0.4809  0.0491 -0.5966
10702TIP3    H153521   2.867   2.363  13.985  1.2459 -0.8190 -0.1856
10702TIP3    H253522   2.823   2.311  14.120 -0.7358  0.6200 -0.2282
10703TIP3   OH253523   3.943   1.401   3.750  0.5095  0.4735  0.6911
10703TIP3    H153524   3.901   1.464   3.809  0.5797 -0.0920  1.3623
10703TIP3    H253525   4.002   1.453   3.697 -1.7006  1.4710 -0.9733
10704TIP3   OH253526   1.871   0.419   5.808 -0.9416 -0.0565  0.0127
10704TIP3    H153527   1.867   0.334   5.764 -0.0040 -0.0988 -0.0116
10704TIP3    H253528   1.835   0.403   5.895  2.4108 -1.3924  1.3447
10705TIP3   OH253529   1.780   3.975   2.580 -0.2203  0.0729 -0.3135
10705TIP3    H153530   1.790   3.926   2.662  1.6718 -1.4776 -1.3766
10705TIP3    H253531   1.800   4.066   2.603 -0.2513 -0.2407  1.0331
10706TIP3   OH253532   4.827   3.762  14.181 -0.3074  0.3937 -0.5615
10706TIP3    H153533   4.749   3.727  14.137 -1.5274  4.7083 -2.3717
10706TIP3    H253534   4.885   3.789  14.109  1.8396 -0.4215  0.7422
10707TIP3   OH253535   1.796   1.590   2.314 -0.1044 -0.3535  0.2768
10707TIP3    H153536   1.849   1.599   2.393 -1.0445 -0.7067  0.9639
10707TIP3    H253537   1.749   1.674   2.308  0.3464 -0.1281 -0.2047
10708TIP3   OH253538   1.365   3.090   0.739  0.0972  0.1411  0.8382
10708TIP3    H153539   1.456   3.059   0.735  0.1296  0.1844  1.1819
10708TIP3    H253540   1.316   3.014   0.769 -0.2038 -0.3175 -0.7469
10709TIP3   OH253541   4.806   1.835  12.872  0.2040 -0.2187  0.2452
10709TIP3    H153542   4.788   1.875  12.957  0.3696 -0.3380  0.3345
10709TIP3    H253543   4.881   1.882  12.838 -0.0282  0.0125  0.0440
10710TIP3   OH253544   3.976   3.171   3.653  0.3228  0.1157  0.1780
10710TIP3    H153545   4.007   3.229   3.583 -1.8977 -1.0891 -1.9624
10710TIP3    H253546   3.883   3.159   3.634  0.1206 -2.0145  2.1258
10711TIP3   OH253547   1.485   4.175  14.360 -0.1052  0.0020  1.0538
10711TIP3    H153548   1.562   4.124  14.335 -0.5336  0.1010 -0.5318
10711TIP3    H253549   1.518   4.264  14.373 -0.2823  0.6247 -2.0902
10712TIP3   OH253550   3.302   1.561  16.225 -0.0484  0.0146 -0.1043
10712TIP3    H153551   3.355   1.626  16.270 -0.7748  0.5480  0.0045
10712TIP3    H253552   3.363   1.490  16.204  0.6335  0.4784  0.2747
10713TIP3   OH253553   4.839   3.295  16.294  0.0018 -0.0159  0.1149
10713TIP3    H153554   4.850   3.356  16.367 -0.5975  1.1847 -0.7645
10713TIP3    H253555   4.754   3.254  16.309 -0.1648  0.3025  0.0435
10714TIP3   OH253556   6.123   1.390   5.334 -0.0915 -0.0382 -0.6969
10714TIP3    H153557   6.029   1.382   5.317  0.0335  0.1793 -1.5311
10714TIP3    H253558   6.142   1.320   5.397 -0.4673 -1.3085 -1.9359
10715TIP3   OH253559   0.341   3.198  15.772 -0.3044 -0.1514 -0.0005
10715TIP3    H153560   0.261   3.247  15.753  0.0961  0.5671  0.1092
10715TIP3    H253561   0.314   3.132  15.835 -0.9779 -0.4584 -0.5891
10716TIP3   OH253562   5.514   6.615   3.093  0.3262  0.0966 -0.0531
10716TIP3    H153563   5.572   6.657   3.030  0.5605  0.5841  0.4824
10716TIP3    H253564   5.557   6.531   3.113 -0.7562 -1.0048 -2.0502
10717TIP3   OH253565   4.494   5.016   3.747 -0.3432 -0.0406  0.0004
10717TIP3    H153566   4.467   4.987   3.660 -1.5848  1.7353 -0.2534
10717TIP3    H253567   4.590   5.017   3.743 -0.3673  1.4252 -1.8943
10718TIP3   OH253568   3.652   0.070   0.121 -0.0424 -0.1480  0.2352
10718TIP3    H153569   3.654   0.149   0.175  0.7028 -0.7094  1.0642
10718TIP3    H253570   3.594   0.010   0.167  1.5604 -1.0927  1.1353
10719TIP3   OH253571   3.119   6.800  11.781  0.4126  0.7096  0.5338
10719TIP3    H153572   3.031   6.764  11.769  1.5226 -1.8277 -0.7550
10719TIP3    H253573   3.107   6.895  11.772 -2.1950  0.4622  0.5607
10720TIP3   OH253574   1.860   2.278   0.594  0.7151  0.0639  0.2744
10720TIP3    H153575   1.859   2.298   0.500 -0.0494  0.1261  0.2920
10720TIP3    H253576   1.771   2.296   0.624  1.1104  0.6636  1.1459
10721TIP3   OH253577   0.444   0.638   3.220  0.8896 -0.3573 -0.0765
10721TIP3    H153578   0.395   0.623   3.139  2.6604  0.2617 -1.3164
10721TIP3    H253579   0.423   0.562   3.275 -0.8629 -0.4586 -0.8337
10722TIP3   OH253580   4.640   0.991   0.420 -0.6987  0.1275  0.2582
10722TIP3    H153581   4.689   1.013   0.341 -1.3853  2.6117  0.4644
10722TIP3    H253582   4.565   0.940   0.387 -0.3631  0.1218 -0.5346
10723TIP3   OH253583   5.795   2.396   5.784 -0.2419 -0.2941 -0.0506
10723TIP3    H153584   5.712   2.435   5.813  0.2652  0.3990  0.4954
10723TIP3    H253585   5.853   2.404   5.860  1.0758  1.4094 -1.1662
10724TIP3   OH253586   5.416   0.863   1.813  0.1807 -0.4912 -0.3314
10724TIP3    H153587   5.454   0.873   1.900  0.8028  1.5958 -0.7825
10724TIP3    H253588   5.488   0.830   1.759 -0.0257 -1.1642 -0.2061
10725TIP3   OH253589   4.335   6.045   4.888  0.1246 -1.1122  0.0350
10725TIP3    H153590   4.353   5.959   4.926  0.2381 -1.6492 -1.1837
10725TIP3    H253591   4.422   6.078   4.864  0.0553 -0.7861  0.2336
10726TIP3   OH253592   4.765   6.392  16.522 -0.6964  0.0356 -0.9951
10726TIP3    H153593   4.745   6.390  16.428 -1.0988 -2.5997 -0.9364
10726TIP3    H253594   4.711   6.322  16.559 -1.1788  1.5582  1.3850
10727TIP3   OH253595   1.511   3.972  16.640  0.2875 -0.3165  0.2479
10727TIP3    H153596   1.521   3.986  16.735 -1.0367 -1.9105  0.6687
10727TIP3    H253597   1.499   3.878  16.631  2.0725 -0.4189 -1.7169
10728TIP3   OH253598   3.765   6.408   3.310 -0.3117  0.4595  0.3157
10728TIP3    H153599   3.676   6.382   3.336 -0.6291 -0.4313 -1.4882
10728TIP3    H253600   3.820   6.378   3.383 -1.4008  0.4540  1.1800
10729TIP3   OH253601   1.222   3.844   6.961  0.1085  0.0861  0.0001
10729TIP3    H153602   1.273   3.912   6.917 -2.5032  1.8804 -0.4837
10729TIP3    H253603   1.181   3.795   6.890 -1.0381  0.4867  0.3702
10730TIP3   OH253604   2.229   6.255  14.884  0.4556 -0.2995  0.6690
10730TIP3    H153605   2.150   6.308  14.900 -0.2485 -1.2210  0.3305
10730TIP3    H253606   2.205   6.168  14.915  0.6984 -1.0242 -1.1248
10731TIP3   OH253607   1.215   0.558  15.352 -0.4323  0.6430 -0.0453
10731TIP3    H153608   1.146   0.586  15.292 -1.1131  1.0661  0.8943
10731TIP3    H253609   1.174   0.563  15.439  0.1739 -0.9878  0.3763
10732TIP3   OH253610   2.190   2.885  11.709  0.1973  0.0061  0.3219
10732TIP3    H153611   2.275   2.927  11.718  0.9736 -1.5068  0.3930
10732TIP3    H253612   2.180   2.871  11.615 -0.4026  0.9666  0.2221
10733TIP3   OH253613   3.944   0.730  13.248 -0.0963  0.4648  0.3214
10733TIP3    H153614   3.848   0.728  13.252 -0.1069 -0.5328 -0.0227
10733TIP3    H253615   3.967   0.823  13.248 -1.2046  0.8276 -2.4261
10734TIP3   OH253616   1.344   5.806  16.560 -0.0257 -0.1672 -0.0929
10734TIP3    H153617   1.309   5.893  16.579  0.0935 -0.3484  1.0207
10734TIP3    H253618   1.268   5.747  16.566  0.2060 -0.3797  1.0156
10735TIP3   OH253619   4.875   6.747  16.302  0.1930  0.0573  0.0602
10735TIP3    H153620   4.929   6.698  16.241  1.5059  0.4179  0.8960
10735TIP3    H253621   4.896   6.839  16.285  1.4735  0.1396  1.7910
10736TIP3   OH253622   4.414   4.062  13.925  0.3071  0.1146  0.0926
10736TIP3    H153623   4.344   4.117  13.960  0.2765  0.7079 -0.8702
10736TIP3    H253624   4.459   4.118  13.861  0.4557 -0.8831 -0.7063
10737TIP3   OH253625   0.151   1.465  14.861  0.0527 -0.0134 -0.2278
10737TIP3    H153626   0.231   1.439  14.814 -0.3083 -0.5605 -0.5574
10737TIP3    H253627   0.092   1.496  14.792 -0.0491  0.3181  0.0066
10738TIP3   OH253628   5.912   5.338   2.633  0.4626 -0.3085 -0.3350
10738TIP3    H153629   5.838   5.398   2.645  0.9514 -0.1938  2.8957
10738TIP3    H253630   5.985   5.395   2.610  0.1309 -0.1258 -0.9658
10739TIP3   OH253631   0.130   3.415  15.948 -0.6581 -0.2748  0.4615
10739TIP3    H153632   0.101   3.496  15.906 -0.4196 -0.4580 -0.0591
10739TIP3    H253633   0.050   3.376  15.984 -0.8083  0.0632  0.4911
10740TIP3   OH253634   3.973   3.416  16.952  0.2552 -0.2536 -0.2137
10740TIP3    H153635   3.910   3.353  16.917 -0.5444 -0.6157  1.7075
10740TIP3    H253636   3.947   3.427  17.044  2.5773  0.1336  0.4653
10741TIP3   OH253637   0.736   1.713   4.926  0.4166  0.7651  0.6296
10741TIP3    H153638   0.728   1.675   4.838 -0.3490 -1.6274  1.6385
10741TIP3    H253639   0.822   1.684   4.957  0.6183  1.4636  0.7255
10742TIP3   OH253640   5.881   1.792  15.837 -0.1515 -0.4102  0.0047
10742TIP3    H153641   5.817   1.863  15.829 -0.4808 -0.8115 -1.1410
10742TIP3    H253642   5.882   1.772  15.930  0.1025  1.2333  0.3891
10743TIP3   OH253643   1.114   2.108  15.396  0.4771 -0.2824  0.2789
10743TIP3    H153644   1.114   2.018  15.363  1.5398 -0.1414 -0.1228
10743TIP3    H253645   1.093   2.161  15.319 -0.1761 -0.1714  0.5222
10744TIP3   OH253646   0.804   2.936  17.105 -0.1214 -0.2717 -0.1902
10744TIP3    H153647   0.801   2.953  17.011  0.0337  2.3074  0.1762
10744TIP3    H253648   0.897   2.921  17.124 -0.1226 -0.5606 -0.4175
10745TIP3   OH253649   1.276   5.679   2.373  0.3023  0.3128 -0.4649
10745TIP3    H153650   1.354   5.626   2.353  1.6368  1.2803  1.7365
10745TIP3    H253651   1.257   5.725   2.291  1.9551 -0.0841 -1.1148
10746TIP3   OH253652   2.965   1.732  15.245 -0.5031  0.2906 -0.1793
10746TIP3    H153653   3.054   1.731  15.279 -1.0526 -1.5100  1.3803
10746TIP3    H253654   2.975   1.722  15.150  0.9418 -2.3076  0.1633
10747TIP3   OH253655   0.081   3.248  15.598 -0.4700  0.3758 -0.1609
10747TIP3    H153656   0.144   3.298  15.547 -0.9563  0.3354 -0.8165
10747TIP3    H253657   0.019   3.214  15.533 -0.9648  0.1222  0.4305
10748TIP3   OH253658   0.192   1.525  16.564  0.6614  0.4452 -0.4601
10748TIP3    H153659   0.269   1.580  16.583 -0.5257  2.4371 -1.1230
10748TIP3    H253660   0.118   1.578  16.592 -0.6671  0.0234 -2.9575
10749TIP3   OH253661   1.495   4.827  15.163  0.0753  0.0797 -0.3512
10749TIP3    H153662   1.515   4.809  15.071  0.1795  1.1123 -0.5405
10749TIP3    H253663   1.427   4.895  15.160 -0.2960 -0.2484  0.3321
10750TIP3   OH253664   1.421   1.186  16.441  1.0164  0.1712  0.0047
10750TIP3    H153665   1.434   1.179  16.346 -0.4190 -1.9841 -0.0997
10750TIP3    H253666   1.490   1.131  16.479  0.5148 -0.3983  0.1055
10751TIP3   OH253667   0.592   5.328   1.055 -0.1792 -0.0325 -0.3526
10751TIP3    H153668   0.639   5.275   1.119 -2.4859  0.7885  2.1798
10751TIP3    H253669   0.660   5.383   1.015  2.0198 -3.4805 -1.8746
10752TIP3   OH253670   6.266   5.782  11.113  0.1391 -0.2664 -0.7571
10752TIP3    H153671   6.293   5.701  11.156  1.1392  0.1086 -0.6587
10752TIP3    H253672   6.342   5.808  11.060  0.2592  1.2012  0.0750
10753TIP3   OH253673   5.491   5.543  14.433 -0.2048 -0.5083 -0.5362
10753TIP3    H153674   5.553   5.616  14.439 -0.9930  0.0635  1.5137
10753TIP3    H253675   5.515   5.485  14.505 -1.9341 -0.3366  0.2255
10754TIP3   OH253676   4.529   0.316  10.967 -0.3315 -0.4082 -0.0614
10754TIP3    H153677   4.456   0.304  10.907 -0.6438 -1.2112  0.4644
10754TIP3    H253678   4.551   0.228  10.997  3.4471 -0.7920 -3.1326
10755TIP3   OH253679   3.925   3.989  12.430  0.1965 -0.3200  0.3507
10755TIP3    H153680   3.877   4.053  12.378 -0.8941 -1.3600  0.0321
10755TIP3    H253681   3.948   3.920  12.369  1.7104 -0.0776  0.6102
10756TIP3   OH253682   0.945   4.630   3.476 -0.0326  0.4717  0.4440
10756TIP3    H153683   0.882   4.637   3.548  0.7887  1.2155  1.1193
10756TIP3    H253684   0.924   4.547   3.434  0.2562 -0.6048  2.3132
10757TIP3   OH253685   6.069   3.450   3.359 -0.1851 -0.3199 -0.4890
10757TIP3    H153686   6.153   3.445   3.405 -1.0819 -3.3436  1.1208
10757TIP3    H253687   6.009   3.487   3.423 -0.4293  0.2504 -1.0436
10758TIP3   OH253688   6.607   1.427   3.343  0.3108 -0.3810 -0.4435
10758TIP3    H153689   6.596   1.341   3.302 -0.9408 -0.6473  0.3906
10758TIP3    H253690   6.522   1.469   3.333  0.6328  0.3957 -0.0040
10759TIP3   OH253691   2.267   0.053  11.221 -0.1459 -0.0615 -0.1197
10759TIP3    H153692   2.199   0.057  11.154  0.8229 -0.8227 -1.1863
10759TIP3    H253693   2.283  -0.041  11.232  1.9572  0.1254 -1.1919
10760TIP3   OH253694   6.218   6.037  11.481 -0.1006 -0.5356 -0.2117
10760TIP3    H153695   6.245   6.023  11.571 -1.4895 -1.4946  0.0968
10760TIP3    H253696   6.153   5.968  11.465  0.0258 -0.3067 -1.8983
10761TIP3   OH253697   3.163   2.918  14.949  0.1939  0.0299 -0.3622
10761TIP3    H153698   3.226   2.851  14.977  1.9268  2.5636  2.3282
10761TIP3    H253699   3.078   2.874  14.954  1.2940 -2.1612  0.5650
10762TIP3   OH253700   1.195   3.518   1.216 -0.1403  0.0252 -0.5427
10762TIP3    H153701   1.261   3.457   1.185  0.7878  1.2718 -1.0950
10762TIP3    H253702   1.123   3.462   1.245  0.7903 -1.3317 -0.7364
10763TIP3   OH253703   2.054   4.532   4.593  0.1234 -0.1760 -0.3058
10763TIP3    H153704   1.993   4.575   4.654 -0.6364 -1.2917 -0.2437
10763TIP3    H253705   2.007   4.533   4.510  0.2211 -0.6205 -0.3652
10764TIP3   OH253706   0.107   1.366   6.343  0.1077 -0.6064 -0.2800
10764TIP3    H153707   0.088   1.318   6.424  2.5643 -0.7197  0.3289
10764TIP3    H253708   0.099   1.300   6.274  0.7506 -1.2515  0.2365
10765TIP3   OH253709   2.644   0.002  12.926 -0.0886  0.3088  0.1228
10765TIP3    H153710   2.658  -0.092  12.936 -0.5313  0.0966 -1.1471
10765TIP3    H253711   2.629   0.033  13.016 -2.1469 -1.2013  0.3787
10766TIP3   OH253712   3.164   1.544   3.370  0.3487  0.3096 -0.4828
10766TIP3    H153713   3.256   1.518   3.368  0.8423  2.0020 -1.5684
10766TIP3    H253714   3.130   1.519   3.283 -0.3264 -0.5730  0.0121
10767TIP3   OH253715   2.795   2.128  15.673  0.6458 -0.2336  0.0691
10767TIP3    H153716   2.813   2.206  15.725  1.4561 -0.2460 -0.1717
10767TIP3    H253717   2.719   2.088  15.714 -0.7284  1.4802 -0.7016
10768TIP3   OH253718   3.030   5.249   4.220  0.1708 -0.3668 -0.0459
10768TIP3    H153719   3.115   5.254   4.175 -0.2025 -0.9400 -0.8448
10768TIP3    H253720   3.004   5.157   4.210 -1.4118  0.1764 -1.4673
10769TIP3   OH253721   0.651   4.037   3.165 -0.4208  0.8140 -0.6274
10769TIP3    H153722   0.624   4.008   3.078 -0.6556  0.7548 -0.5339
10769TIP3    H253723   0.569   4.060   3.210 -0.3617  0.1160 -0.1538
10770TIP3   OH253724   0.929   6.090   5.708  0.0372 -0.0600 -0.2630
10770TIP3    H153725   0.873   6.060   5.780  0.7045 -0.4498  0.0987
10770TIP3    H253726   1.018   6.085   5.743  0.4077 -0.6597 -1.2554
10771TIP3   OH253727   6.009   4.007  16.147 -0.1358 -0.1216 -0.1314
10771TIP3    H153728   6.038   4.082  16.097 -0.6454  0.0978 -0.1071
10771TIP3    H253729   5.997   3.937  16.082 -0.9377  0.2041 -0.3404
10772TIP3   OH253730   1.162   4.519   4.119 -0.0844  0.4260 -0.4949
10772TIP3    H153731   1.137   4.595   4.170 -0.3206  0.5489 -0.7920
10772TIP3    H253732   1.091   4.508   4.055 -0.1132 -0.1125 -0.3754
10773TIP3   OH253733   1.441   0.701  12.270  0.1207 -0.1312 -0.4745
10773TIP3    H153734   1.433   0.612  12.236 -2.5644 -0.5670  1.0866
10773TIP3    H253735   1.392   0.755  12.208  1.3500  0.2560 -1.1589
10774TIP3   OH253736   1.812   6.577   3.604 -0.1691  0.0897  0.3688
10774TIP3    H153737   1.726   6.536   3.591 -0.2185 -0.0919  1.1837
10774TIP3    H253738   1.829   6.566   3.698 -0.2557  2.1091  0.6477
10775TIP3   OH253739   5.819   4.857   4.097 -0.1814  0.1762  0.3992
10775TIP3    H153740   5.900   4.850   4.148  0.1736  1.0258 -0.0260
10775TIP3    H253741   5.795   4.949   4.102 -1.6142 -0.2274  1.2320
10776TIP3   OH253742   1.058   5.420  16.435 -0.3012  0.5313 -0.0744
10776TIP3    H153743   0.982   5.367  16.458 -0.6746  1.4352  0.8444
10776TIP3    H253744   1.026   5.480  16.368  0.5217 -1.3939 -2.3249
10777TIP3   OH253745   4.125   2.177  14.395 -0.1028  0.4649  0.3806
10777TIP3    H153746   4.104   2.238  14.325  0.4956 -0.7007 -0.8541
10777TIP3    H253747   4.041   2.164  14.441 -0.4743  1.3287 -0.0349
10778TIP3   OH253748   4.756   0.478  16.378  0.0459 -0.3554 -0.7537
10778TIP3    H153749   4.847   0.482  16.348  1.2939  0.3156  2.6607
10778TIP3    H253750   4.749   0.548  16.443 -1.4299 -3.2701  2.5644
10779TIP3   OH253751   5.742   5.480  17.063 -0.3572  0.0391 -0.0258
10779TIP3    H153752   5.658   5.472  17.107 -0.4967  1.1804 -0.0646
10779TIP3    H253753   5.793   5.540  17.118 -0.0468  0.4081 -0.7052
10780TIP3   OH253754   2.450   3.511  11.247 -0.1166  0.1418 -0.0370
10780TIP3    H153755   2.376   3.511  11.307 -2.7185 -1.5633 -2.9217
10780TIP3    H253756   2.465   3.604  11.228 -1.2580  0.5578  0.9495
10781TIP3   OH253757   5.062   5.128   3.842 -0.3762 -0.1439  0.1297
10781TIP3    H153758   5.044   5.193   3.910  2.3739  0.2425  0.6150
10781TIP3    H253759   5.082   5.180   3.764 -3.8235 -0.5800 -1.2401
10782TIP3   OH253760   1.978   4.804   1.908  0.0384  0.3713 -0.8326
10782TIP3    H153761   1.970   4.727   1.965 -1.2761  1.3688  0.4299
10782TIP3    H253762   2.067   4.835   1.921  0.4187 -0.6362 -0.9652
10783TIP3   OH253763   4.575   3.108  15.266 -0.5914  0.1312  0.2241
10783TIP3    H153764   4.639   3.051  15.309 -1.3492 -0.5633  0.4493
10783TIP3    H253765   4.628   3.166  15.211  0.2427 -0.3324  0.5217
10784TIP3   OH253766   2.434   5.392   0.376 -0.2226  0.4252  0.4256
10784TIP3    H153767   2.498   5.446   0.330  0.0649 -0.2485  0.0151
10784TIP3    H253768   2.397   5.336   0.307  1.4086 -1.7878  1.2272
10785TIP3   OH253769   2.895   2.626  11.762 -0.4023 -0.0208  0.5631
10785TIP3    H153770   2.903   2.695  11.827  1.1784  0.0440  0.3233
10785TIP3    H253771   2.950   2.555  11.794 -2.2040 -1.3355  0.9489
10786TIP3   OH253772   1.889   1.648   5.473  0.2018  0.5916 -0.0225
10786TIP3    H153773   1.839   1.726   5.449 -0.7921 -0.2709 -0.8630
10786TIP3    H253774   1.841   1.576   5.433  1.8520 -0.3306 -0.4331
10787TIP3   OH253775   3.601   5.746   5.160  0.0956 -0.2768 -0.2207
10787TIP3    H153776   3.559   5.787   5.084  2.7154  1.5244 -0.8340
10787TIP3    H253777   3.643   5.818   5.206  0.4428 -1.6419  1.7207
10788TIP3   OH253778   3.755   6.304  11.066  0.4862  0.1031 -0.4840
10788TIP3    H153779   3.840   6.297  11.024 -0.0254  0.1558 -1.5651
10788TIP3    H253780   3.693   6.317  10.993 -0.3728  0.6412  0.3180
10789TIP3   OH253781   5.729   0.367   0.200 -0.1979 -0.4599 -0.1303
10789TIP3    H153782   5.789   0.308   0.245 -0.7729  0.1734  1.5502
10789TIP3    H253783   5.643   0.326   0.210 -0.2898 -0.5062 -1.0226
10790TIP3   OH253784   4.914   0.031  11.721 -0.0433 -0.4585 -0.5366
10790TIP3    H153785   4.907  -0.064  11.716  0.6343 -0.7468  2.3341
10790TIP3    H253786   4.834   0.059  11.765  1.2266 -0.1512  1.7346
10791TIP3   OH253787   0.229   2.045   1.453 -0.2933  0.3555  0.1843
10791TIP3    H153788   0.231   1.975   1.518 -2.0093 -0.4916 -0.5848
10791TIP3    H253789   0.269   2.006   1.375 -0.0916  0.6728  0.1297
10792TIP3   OH253790   5.833   6.583  14.262 -0.1027  0.2025  0.3716
10792TIP3    H153791   5.737   6.582  14.265 -0.1186 -1.3569  0.1832
10792TIP3    H253792   5.854   6.606  14.172 -0.3217 -0.4287  0.1555
10793TIP3   OH253793   5.987   5.912  13.205  0.3238  0.3909  0.2980
10793TIP3    H153794   6.013   5.903  13.297  2.5446 -0.0652 -0.3128
10793TIP3    H253795   6.001   6.005  13.185 -0.3247  0.5266  0.4447
10794TIP3   OH253796   4.489   3.329   5.851 -0.6150  0.0222  0.1363
10794TIP3    H153797   4.429   3.332   5.926  0.2656 -1.8722  0.9750
10794TIP3    H253798   4.497   3.421   5.823 -2.0251  0.6009  1.4910
10795TIP3   OH253799   5.357   0.303  15.500 -0.0068  0.3699 -0.2030
10795TIP3    H153800   5.371   0.209  15.486 -1.6334  0.0744  0.0016
10795TIP3    H253801   5.443   0.336  15.528 -0.0261 -1.5971  2.5497
10796TIP3   OH253802   2.476   2.595   2.722 -0.0358  0.6147  0.5012
10796TIP3    H153803   2.500   2.643   2.643 -0.6332  0.9081  0.4902
10796TIP3    H253804   2.441   2.662   2.781 -3.3943 -0.0758 -0.4814
10797TIP3   OH253805   1.032   4.637  11.797  0.6333  0.2273  0.3071
10797TIP3    H153806   1.026   4.656  11.890  0.6866 -0.6598  0.4930
10797TIP3    H253807   1.124   4.653  11.775  0.8600 -0.5846  0.6391
10798TIP3   OH253808   0.078   2.270  15.233 -0.0384 -0.3351 -0.0612
10798TIP3    H153809   0.050   2.268  15.324 -0.3425  2.2951 -0.0130
10798TIP3    H253810   0.172   2.287  15.236 -0.2137  0.7132 -0.2146
10799TIP3   OH253811   2.460   0.453   1.220 -0.2593 -0.1966 -0.1028
10799TIP3    H153812   2.405   0.502   1.159  0.2007  1.7983  1.0047
10799TIP3    H253813   2.550   0.471   1.191 -0.1039 -1.6357 -0.5762
10800TIP3   OH253814   0.268   3.725   1.420  0.2746  0.2334  0.0413
10800TIP3    H153815   0.350   3.774   1.411  0.0921  0.5749  0.2052
10800TIP3    H253816   0.201   3.787   1.390 -0.0153  0.2749  0.7513
10801TIP3   OH253817   0.353   0.416  15.235  0.1107  0.0768  0.2584
10801TIP3    H153818   0.404   0.372  15.167  1.5129  1.5999  0.2389
10801TIP3    H253819   0.306   0.346  15.280 -0.4665 -1.0365 -1.9215
10802TIP3   OH253820   4.014   4.353  12.842  0.1962 -0.1118  0.3501
10802TIP3    H153821   4.079   4.399  12.788 -0.0275 -0.3042 -0.0872
10802TIP3    H253822   4.042   4.371  12.932  2.3176 -2.2135  0.2188
10803TIP3   OH253823   1.876   4.043  15.207  0.0795 -0.0094  0.4870
10803TIP3    H153824   1.946   4.014  15.265 -0.2965 -0.5409  0.6814
10803TIP3    H253825   1.921   4.075  15.129  0.5242 -0.7190  0.4483
10804TIP3   OH253826   4.864   2.210   1.663  0.1359  0.2128 -0.1957
10804TIP3    H153827   4.871   2.186   1.756  0.9365  2.1358  0.2784
10804TIP3    H253828   4.888   2.130   1.616  0.1048 -0.6851  1.2515
10805TIP3   OH253829   4.626   6.465   1.288  0.0647 -0.0912  0.3335
10805TIP3    H153830   4.681   6.414   1.348 -0.2433 -0.2268  0.5005
10805TIP3    H253831   4.555   6.498   1.342 -0.9554 -1.3056 -0.1966
10806TIP3   OH253832   1.724   2.066  16.807 -0.6002 -0.0659 -0.1947
10806TIP3    H153833   1.636   2.100  16.824 -1.0198 -0.5778 -1.2771
10806TIP3    H253834   1.738   2.083  16.714  0.4702  0.0507 -0.0185
10807TIP3   OH253835   1.676   5.132   3.568 -0.3851 -0.0590 -0.0980
10807TIP3    H153836   1.653   5.224   3.581 -1.3739 -0.1904 -0.8174
10807TIP3    H253837   1.620   5.103   3.497  1.0449 -0.8014 -0.9677
10808TIP3   OH253838   5.814   0.901   2.618 -0.2857 -0.0303  0.2241
10808TIP3    H153839   5.878   0.849   2.666  0.3119  0.6467  0.1872
10808TIP3    H253840   5.866   0.949   2.553 -0.8115  0.5778  0.2397
10809TIP3   OH253841   4.495   4.495   0.659 -0.4353 -0.2681  0.1939
10809TIP3    H153842   4.469   4.450   0.578  0.0001  1.0003 -0.6933
10809TIP3    H253843   4.472   4.434   0.729 -0.4043 -1.5988 -0.9088
10810TIP3   OH253844   0.123   4.398  13.027 -0.0339 -0.1644  0.1323
10810TIP3    H153845   0.176   4.323  13.056  0.0217 -1.2420 -2.5081
10810TIP3    H253846   0.034   4.364  13.022  0.0137 -0.1393 -1.2166
10811TIP3   OH253847   4.211   5.517  11.394  0.3334  0.8220 -0.4994
10811TIP3    H153848   4.181   5.428  11.378 -0.8630  1.4604 -2.1291
10811TIP3    H253849   4.160   5.546  11.471  0.5775  0.1848 -0.0937
10812TIP3   OH253850   2.788   1.304  11.641 -0.4857 -0.2618 -0.8786
10812TIP3    H153851   2.831   1.302  11.727  0.3069 -1.1555 -1.2842
10812TIP3    H253852   2.720   1.236  11.647 -1.1566  0.4123 -0.6085
10813TIP3   OH253853   1.673   3.744  11.046 -0.1654 -0.0414 -0.7044
10813TIP3    H153854   1.694   3.674  11.108 -3.7216 -0.6865 -0.0254
10813TIP3    H253855   1.739   3.735  10.977  1.3793 -2.0041  0.9060
10814TIP3   OH253856   3.948   5.072  15.822  0.0693 -0.3305 -0.4019
10814TIP3    H153857   3.868   5.087  15.772  0.4950 -0.2694 -1.0761
10814TIP3    H253858   3.917   5.035  15.905 -0.6753 -0.0254 -0.5293
10815TIP3   OH253859   6.617   0.468   3.605 -0.5019 -0.9235 -0.1220
10815TIP3    H153860   6.541   0.526   3.610 -1.2719 -2.0108  1.3920
10815TIP3    H253861   6.691   0.523   3.630 -0.9965 -0.2506 -0.1025
10816TIP3   OH253862   4.908   6.297   4.598 -0.4637 -0.5033 -0.1934
10816TIP3    H153863   4.852   6.244   4.541  0.4303 -1.1945 -0.4520
10816TIP3    H253864   4.963   6.233   4.643 -0.4069  0.1137  0.6330
10817TIP3   OH253865   1.841   4.215  16.473  0.4367  0.2496  0.2590
10817TIP3    H153866   1.757   4.242  16.437  1.3256  1.3747 -1.1067
10817TIP3    H253867   1.819   4.165  16.551 -1.5110 -0.0691 -0.4357
10818TIP3   OH253868   3.767   0.499  17.096 -0.0342  0.6885  0.2160
10818TIP3    H153869   3.832   0.514  17.165  0.1230 -0.4718  0.3371
10818TIP3    H253870   3.784   0.568  17.032  0.3241  1.3153  0.9659
10819TIP3   OH253871   2.924   5.782   1.410  0.1772 -0.4508 -0.0429
10819TIP3    H153872   3.009   5.800   1.371  0.1244  2.6559  0.9986
10819TIP3    H253873   2.939   5.711   1.471  1.8840 -0.3613 -0.3247
10820TIP3   OH253874   2.645   2.724  13.376  0.3562  0.1487  0.2683
10820TIP3    H153875   2.626   2.630  13.382  1.0834  0.0252  0.8285
10820TIP3    H253876   2.622   2.759  13.462 -0.6430  0.6335 -0.1847
10821TIP3   OH253877   0.043   5.671  11.020 -0.8194 -0.2006  0.0921
10821TIP3    H153878  -0.037   5.723  11.026 -0.7858 -0.1294 -0.0983
10821TIP3    H253879   0.074   5.665  11.110 -0.2627  0.9712 -0.0051
10822TIP3   OH253880   3.297   2.127   5.813 -0.5436 -0.3856 -0.1994
10822TIP3    H153881   3.310   2.178   5.893  1.7797  0.0339 -0.7464
10822TIP3    H253882   3.225   2.171   5.768 -0.4645  0.6877  0.6688
10823TIP3   OH253883   4.209   2.273   2.553 -0.0476 -0.2712 -0.1520
10823TIP3    H153884   4.119   2.238   2.555 -0.6137  1.1201 -0.3981
10823TIP3    H253885   4.229   2.293   2.644 -1.1556  2.1751 -0.3548
10824TIP3   OH253886   1.874   1.240  16.344  0.2144 -0.4375 -0.6920
10824TIP3    H153887   1.934   1.293  16.291  0.9223  0.0401  0.5305
10824TIP3    H253888   1.869   1.287  16.428 -0.2124 -1.6012 -0.0463
10825TIP3   OH253889   6.013   2.817  15.740 -0.3665 -0.0013  0.3223
10825TIP3    H153890   6.050   2.814  15.652 -0.8865 -0.7141  0.1167
10825TIP3    H253891   6.086   2.797  15.798 -0.3678 -1.2820 -0.0750
10826TIP3   OH253892   2.945   6.159   4.062 -0.3117 -0.4734 -0.3243
10826TIP3    H153893   2.922   6.249   4.085  2.6644  0.3162 -0.0535
10826TIP3    H253894   2.922   6.151   3.969  1.5029  1.4328 -1.0253
10827TIP3   OH253895   3.298   1.502   2.277  0.0639 -0.0925 -0.1165
10827TIP3    H153896   3.226   1.445   2.303 -0.4262  0.8018  0.5481
10827TIP3    H253897   3.373   1.443   2.266 -0.8754 -1.1092 -1.3683
10828TIP3   OH253898   2.763   5.412  11.927  0.0203  0.6414  0.6898
10828TIP3    H153899   2.804   5.421  11.841 -0.9060 -0.5573  0.1042
10828TIP3    H253900   2.670   5.426  11.912 -0.2797 -0.5279  1.3069
10829TIP3   OH253901   3.942   3.786  16.396  0.3025 -0.7360 -0.0209
10829TIP3    H153902   3.850   3.810  16.400  0.3769 -0.2550 -0.7749
10829TIP3    H253903   3.969   3.812  16.307  1.1700 -0.8245  0.2079
10830TIP3   OH253904   5.714   3.967  13.706  0.1160  0.1444  0.2610
10830TIP3    H153905   5.636   3.917  13.727 -0.0056  0.4988  0.6775
10830TIP3    H253906   5.687   4.059  13.714  0.2741  0.2898 -0.7005
10831TIP3   OH253907   2.525   0.805  13.688 -0.2910  0.8183  0.7178
10831TIP3    H153908   2.507   0.711  13.694  0.7199  0.6214  0.8758
10831TIP3    H253909   2.513   0.826  13.595  0.6707  0.2681  0.4632
10832TIP3   OH253910   3.138   4.558   4.836 -0.0291  0.1183  0.5634
10832TIP3    H153911   3.157   4.615   4.762 -0.9797 -0.2873 -0.0105
10832TIP3    H253912   3.201   4.486   4.829 -0.8050 -0.4796 -0.4935
10833TIP3   OH253913   3.824   6.238   2.661  0.1489  0.9729  0.4653
10833TIP3    H153914   3.861   6.220   2.574 -2.8137  1.6091 -1.0729
10833TIP3    H253915   3.899   6.233   2.720  1.9782 -1.6858 -1.7708
10834TIP3   OH253916   1.829   6.072  11.736 -0.1289  0.4726  0.0819
10834TIP3    H153917   1.829   5.996  11.677 -2.0970  0.3895  0.1181
10834TIP3    H253918   1.819   6.147  11.677 -2.1248  0.3876  0.2392
10835TIP3   OH253919   2.714   2.578  16.899 -0.4600  0.0184  0.1442
10835TIP3    H153920   2.810   2.576  16.898 -0.4653 -0.3128 -0.1240
10835TIP3    H253921   2.691   2.579  16.991 -0.2018 -1.0269  0.2416
10836TIP3   OH253922   0.097   2.090   1.118  0.6664  0.2852  0.5810
10836TIP3    H153923   0.047   2.014   1.148  0.5298  0.8714  1.9222
10836TIP3    H253924   0.070   2.102   1.027 -0.0982 -0.6386  0.6672
10837TIP3   OH253925   0.758   1.178   5.788 -0.0129 -0.1307 -0.0873
10837TIP3    H153926   0.747   1.246   5.721  0.1660  0.7232  0.7144
10837TIP3    H253927   0.793   1.103   5.741 -2.5812 -0.5679 -1.4606
10838TIP3   OH253928   5.712   5.635  15.592 -0.2089 -0.5330 -0.3176
10838TIP3    H153929   5.694   5.649  15.685  1.6023  1.5860 -0.1973
10838TIP3    H253930   5.627   5.616  15.553 -1.2028 -0.1277  1.5526
10839TIP3   OH253931   1.839   1.369   3.008  0.0423  0.5867 -0.5850
10839TIP3    H153932   1.897   1.338   2.940  2.7359  2.2821  0.7649
10839TIP3    H253933   1.752   1.340   2.981  1.5559 -3.0216 -2.1805
10840TIP3   OH253934   4.954   6.145  12.241  0.4378 -0.0060  0.5409
10840TIP3    H153935   4.957   6.100  12.326 -2.3231 -0.1756  0.6507
10840TIP3    H253936   4.919   6.079  12.181  1.4132  0.4263 -0.5377
10841TIP3   OH253937   2.370   4.992  10.912  0.3666  0.0074 -0.2535
10841TIP3    H153938   2.279   4.977  10.940  0.7645 -1.4638  0.3309
10841TIP3    H253939   2.362   5.057  10.842 -0.8318  2.4089  1.9597
10842TIP3   OH253940   5.034   4.496   1.896 -0.3474 -0.0182  0.5698
10842TIP3    H153941   5.045   4.403   1.917  1.0379  0.0437  0.2189
10842TIP3    H253942   4.940   4.511   1.904 -0.5153 -1.2852  1.2983
10843TIP3   OH253943   5.029   1.170   6.396 -0.0108 -0.1564  0.2211
10843TIP3    H153944   4.963   1.101   6.398  0.5312 -0.7465 -0.8889
10843TIP3    H253945   5.067   1.169   6.483 -0.9984 -0.2721  0.6645
10844TIP3   OH253946   6.775   5.141  13.526 -0.1071  0.2291 -0.2585
10844TIP3    H153947   6.684   5.116  13.541 -0.1612  0.7052  0.2394
10844TIP3    H253948   6.774   5.182  13.439 -0.3328  0.0586 -0.3359
10845TIP3   OH253949   1.221   5.035   0.105 -0.1599  0.5974 -0.2097
10845TIP3    H153950   1.290   4.969   0.105 -0.5703  0.1361  1.0418
10845TIP3    H253951   1.188   5.036   0.015  1.6077  0.9869 -0.8871
10846TIP3   OH253952   4.255   3.608  16.615 -0.3255 -0.3626  0.4313
10846TIP3    H153953   4.273   3.525  16.570 -1.5196  0.2843 -1.3705
10846TIP3    H253954   4.198   3.585  16.688 -1.0791 -1.0765 -0.3669
10847TIP3   OH253955   4.287   6.132   3.808  0.4910  0.4471  0.5124
10847TIP3    H153956   4.337   6.211   3.790 -0.7664  1.5967  1.8035
10847TIP3    H253957   4.270   6.134   3.902 -2.0163  0.1903  0.1467
10848TIP3   OH253958   3.351   3.398  14.692  0.6638 -0.0065 -0.2099
10848TIP3    H153959   3.417   3.339  14.655  0.3203  0.0579 -0.9372
10848TIP3    H253960   3.338   3.367  14.782  0.0122 -1.4580 -0.7824
10849TIP3   OH253961   5.730   2.599   4.840  0.3090 -0.4511 -0.2260
10849TIP3    H153962   5.650   2.629   4.884  1.2938  1.7749  0.1703
10849TIP3    H253963   5.801   2.626   4.898  1.4430 -1.1841 -1.2285
10850TIP3   OH253964   4.160   3.274   3.835  0.1042 -0.0227 -0.1045
10850TIP3    H153965   4.118   3.278   3.749  1.0212 -0.7922 -0.5963
10850TIP3    H253966   4.209   3.192   3.835 -0.9470 -0.7105  1.6595
10851TIP3   OH253967   4.877   5.947  13.509  0.2650  0.4624  0.0837
10851TIP3    H153968   4.879   6.039  13.539 -0.3728  0.1046  1.2871
10851TIP3    H253969   4.969   5.926  13.494  0.5219  0.9993  0.8130
10852TIP3   OH253970   5.589   1.927   4.128 -0.3372  0.3192  0.2658
10852TIP3    H153971   5.526   1.987   4.167 -0.9767  1.4746 -2.3020
10852TIP3    H253972   5.669   1.979   4.118  0.0127 -0.1498  0.6098
10853TIP3   OH253973   3.960   0.061  13.237 -0.4615 -0.0197 -0.1650
10853TIP3    H153974   4.026   0.003  13.274 -0.5582 -1.3845 -2.0131
10853TIP3    H253975   3.876   0.019  13.257 -0.5470 -0.3992 -1.2286
10854TIP3   OH253976   4.432   3.942  13.619  0.3901 -0.2575 -0.4480
10854TIP3    H153977   4.469   3.944  13.707 -0.2185 -1.2814 -0.1528
10854TIP3    H253978   4.485   4.004  13.569  1.5429 -0.5977  0.3243
10855TIP3   OH253979   5.764   2.428   3.451  0.2673  0.1187  0.1231
10855TIP3    H153980   5.751   2.520   3.472 -0.1642  0.6755 -2.2819
10855TIP3    H253981   5.714   2.415   3.370  0.0769 -2.3114  0.5548
10856TIP3   OH253982   5.822   2.712  14.452 -0.0655 -0.1670 -0.3016
10856TIP3    H153983   5.917   2.720  14.449 -0.0014 -0.8534 -0.1769
10856TIP3    H253984   5.798   2.734  14.542  0.1873 -2.0568  0.2684
10857TIP3   OH253985   5.154   2.226  12.993  0.6062  0.8725  0.1253
10857TIP3    H153986   5.167   2.283  12.917  1.3118 -0.6622 -0.9697
10857TIP3    H253987   5.060   2.231  13.010  0.2347  0.4074 -1.5887
10858TIP3   OH253988   0.882   1.828   3.662 -0.3073 -0.2029 -0.3679
10858TIP3    H153989   0.798   1.798   3.629 -0.4723  0.7510 -0.8679
10858TIP3    H253990   0.861   1.884   3.736 -0.2907  1.5661 -1.6163
10859TIP3   OH253991   3.068   6.355  16.047  0.8029  0.6084  0.0513
10859TIP3    H153992   3.062   6.450  16.053  1.1403  0.5713  1.1517
10859TIP3    H253993   3.054   6.324  16.136  0.8016 -0.3733 -0.2732
10860TIP3   OH253994   0.176   3.203   2.963  0.3733  0.2046 -0.3831
10860TIP3    H153995   0.261   3.167   2.988  0.7615  0.3908 -1.3718
10860TIP3    H253996   0.113   3.134   2.986  0.5088  0.9106  2.3193
10861TIP3   OH253997   2.247   0.188   4.974 -0.2085  0.2671  0.3368
10861TIP3    H153998   2.270   0.182   4.881  0.3257  0.4995  0.4482
10861TIP3    H253999   2.190   0.112   4.990 -1.2104  0.8374 -0.4293
10862TIP3   OH254000   4.465   1.752   0.648  0.7867  0.0615 -0.3581
10862TIP3    H154001   4.526   1.702   0.702  0.6468  1.7465  1.4760
10862TIP3    H254002   4.481   1.843   0.673 -1.4918  0.6569 -0.8917
10863TIP3   OH254003   2.254   4.101  14.935  0.1490 -0.3993 -0.1822
10863TIP3    H154004   2.342   4.130  14.911  0.3579 -1.4558 -0.7303
10863TIP3    H254005   2.203   4.182  14.941  1.1368  0.2176  0.0816
10864TIP3   OH254006   6.720   3.305  16.135 -0.3517 -0.0691  0.5099
10864TIP3    H154007   6.642   3.323  16.082  0.3750 -1.4009 -1.1120
10864TIP3    H254008   6.703   3.219  16.175 -0.0521  0.0056  0.8027
10865TIP3   OH254009   6.485   0.542  16.356 -0.5897  0.1800  0.1467
10865TIP3    H154010   6.450   0.529  16.444  0.8591  0.0183  0.7378
10865TIP3    H254011   6.505   0.454  16.325 -0.0981  0.3081  0.0941
10866TIP3   OH254012   2.103   4.384  13.026 -0.0498  0.0028 -0.3426
10866TIP3    H154013   2.146   4.320  12.968 -0.3889 -1.6402  1.1226
10866TIP3    H254014   2.024   4.410  12.979 -0.2069 -1.1233 -0.7303
10867TIP3   OH254015   5.643   1.472  15.686 -0.3213  0.3262 -0.2575
10867TIP3    H154016   5.567   1.474  15.744  1.6613 -0.1334  2.5253
10867TIP3    H254017   5.680   1.384  15.696  1.3134  0.9401 -0.5125
10868TIP3   OH254018   0.678   0.025   2.081  0.8201  1.2200 -0.1871
10868TIP3    H154019   0.628  -0.054   2.104 -0.0539  1.8231  0.0295
10868TIP3    H254020   0.767  -0.007   2.066  0.2921  0.0474 -0.9885
10869TIP3   OH254021   1.497   4.640   0.985 -0.5057  0.2502  0.5762
10869TIP3    H154022   1.530   4.723   1.018 -0.8712  0.1733  1.1382
10869TIP3    H254023   1.524   4.575   1.050  1.3956 -0.3806 -0.7393
10870TIP3   OH254024   0.679   4.011   5.584 -0.2396 -0.5557  0.0370
10870TIP3    H154025   0.601   3.967   5.618 -2.1012  1.0668 -1.8852
10870TIP3    H254026   0.674   3.998   5.489  2.1617 -0.8496 -0.1059
10871TIP3   OH254027   6.524   3.515   0.853  0.3210 -0.8387  0.0362
10871TIP3    H154028   6.552   3.478   0.769  0.5009  0.5436 -0.5415
10871TIP3    H254029   6.573   3.465   0.918  3.8048  1.0478 -0.8821
10872TIP3   OH254030   3.203   1.155   5.865  0.8001  0.5722  0.1047
10872TIP3    H154031   3.228   1.125   5.778  0.2802  0.3200  0.0361
10872TIP3    H254032   3.271   1.217   5.890  0.4900  1.3235 -0.8567
10873TIP3   OH254033   4.368   5.643  12.581 -0.3588 -0.0739 -0.2700
10873TIP3    H154034   4.458   5.632  12.611 -0.0772  1.6675 -0.3517
10873TIP3    H254035   4.320   5.570  12.619  0.5484  0.4949  2.1253
10874TIP3   OH254036   2.728   2.337   5.651 -0.1658 -1.0188 -0.2306
10874TIP3    H154037   2.714   2.431   5.639  0.8746 -0.8849 -0.4461
10874TIP3    H254038   2.715   2.299   5.565 -1.2362 -1.1718 -0.0177
10875TIP3   OH254039   5.235   0.393   2.230 -0.4435  0.1046  0.0567
10875TIP3    H154040   5.214   0.400   2.323 -1.0310 -0.3293 -0.0369
10875TIP3    H254041   5.202   0.307   2.205 -0.0295  0.0984 -0.4908
10876TIP3   OH254042   4.154   3.551  15.156 -0.5147 -0.5892  0.0427
10876TIP3    H154043   4.117   3.639  15.146  0.4773 -0.2086 -0.5003
10876TIP3    H254044   4.079   3.492  15.149 -0.8350  0.0013 -3.5910
10877TIP3   OH254045   3.155   6.456  13.031  0.2309  0.0573  0.1609
10877TIP3    H154046   3.093   6.498  13.091  0.5787  0.2206  0.4156
10877TIP3    H254047   3.224   6.522  13.019  0.3095 -0.0879 -0.1871
10878TIP3   OH254048   2.355   0.204   3.867  0.3592 -0.2956 -0.8901
10878TIP3    H154049   2.428   0.233   3.813  0.4501  0.2151 -0.5093
10878TIP3    H254050   2.277   0.235   3.821  0.4521  0.4991 -0.5356
10879TIP3   OH254051   5.977   5.252  13.713 -0.2535 -0.4208 -0.1738
10879TIP3    H154052   5.969   5.312  13.638  0.1168 -1.2266 -0.8762
10879TIP3    H254053   6.059   5.276  13.754  0.3036 -0.9625 -0.9398
10880TIP3   OH254054   0.344   3.963   1.146  0.1915  0.2228  0.4207
10880TIP3    H154055   0.348   3.882   1.094 -0.3736  1.4025 -1.5664
10880TIP3    H254056   0.378   3.938   1.232 -0.2570 -2.1923 -0.0359
10881TIP3   OH254057   1.508   4.332  12.717 -0.5961  0.1741 -0.0229
10881TIP3    H154058   1.552   4.249  12.698  1.4464  1.1898  0.0100
10881TIP3    H254059   1.417   4.318  12.690  0.2916 -1.1805 -2.5792
10882TIP3   OH254060   1.289   0.332  11.828 -0.2123  0.3433  0.4557
10882TIP3    H154061   1.328   0.251  11.859  0.8630  0.5398 -0.3132
10882TIP3    H254062   1.232   0.306  11.756 -1.2502  0.0949  1.3454
10883TIP3   OH254063   3.019   3.615   0.524  0.5696 -0.0125 -0.0541
10883TIP3    H154064   2.980   3.689   0.570  0.6467 -0.1302  0.2062
10883TIP3    H254065   3.015   3.543   0.588 -3.8591 -1.6310 -1.7138
10884TIP3   OH254066   0.152   6.365   4.082  0.8491 -0.0049 -0.3960
10884TIP3    H154067   0.186   6.443   4.039  0.4113  0.8711  0.8116
10884TIP3    H254068   0.142   6.390   4.173  0.1907 -1.3127 -0.0880
10885TIP3   OH254069   4.730   4.232   3.279  0.3890  0.6907 -0.4071
10885TIP3    H154070   4.757   4.141   3.285  0.2817  0.6256 -0.8737
10885TIP3    H254071   4.722   4.261   3.370 -3.3887 -0.8863 -0.0438
10886TIP3   OH254072   3.449   2.771   0.698  0.3643 -0.0862 -0.5573
10886TIP3    H154073   3.531   2.727   0.720 -0.2974 -0.2562  1.8490
10886TIP3    H254074   3.381   2.705   0.714 -0.3049  0.2088 -2.0339
10887TIP3   OH254075   2.189   4.977   0.117 -0.4691  0.6401 -0.1648
10887TIP3    H154076   2.189   5.043   0.047  1.2176 -0.7553 -1.5878
10887TIP3    H254077   2.097   4.958   0.132 -0.8859  1.1222 -1.9166
10888TIP3   OH254078   6.235   4.710  11.656 -0.1147 -0.4203 -0.3969
10888TIP3    H154079   6.273   4.641  11.709 -0.3652 -0.1721  0.1059
10888TIP3    H254080   6.151   4.674  11.627  0.6457 -1.1285 -1.8417
10889TIP3   OH254081   6.555   5.139   5.183  0.2550 -0.2248 -0.5926
10889TIP3    H154082   6.583   5.083   5.111 -0.4343 -0.1843 -0.9055
10889TIP3    H254083   6.459   5.134   5.181  0.1104  2.0001 -1.4765
10890TIP3   OH254084   5.745   6.426   2.934 -0.2979 -0.2845 -0.6713
10890TIP3    H154085   5.771   6.504   2.885 -0.6314  1.5131  1.8443
10890TIP3    H254086   5.820   6.406   2.990 -1.8304  1.1909  2.1145
10891TIP3   OH254087   1.378   2.543   0.205 -0.0409 -0.1174  0.0959
10891TIP3    H154088   1.375   2.632   0.170 -0.1708 -1.2980 -3.3341
10891TIP3    H254089   1.466   2.512   0.184 -0.1654 -0.9671  0.7977
10892TIP3   OH254090   4.511   1.049   3.891 -0.5100  0.0041  0.7706
10892TIP3    H154091   4.605   1.062   3.903  0.0982 -1.0716 -1.9889
10892TIP3    H254092   4.476   1.137   3.879  0.0518  0.4442  2.1163
10893TIP3   OH254093   2.343   3.760   1.359 -0.1386  0.0766  0.4978
10893TIP3    H154094   2.300   3.761   1.273  0.3166  1.2139  0.2655
10893TIP3    H254095   2.311   3.679   1.401 -1.2988  0.1109 -0.2644
10894TIP3   OH254096   2.934   4.711   1.885  0.1824  0.2525 -0.0714
10894TIP3    H154097   3.000   4.670   1.942 -0.4830  0.2897  0.7471
10894TIP3    H254098   2.851   4.695   1.930 -0.3282  0.5387 -0.9006
10895TIP3   OH254099   0.584   6.351  14.883 -0.1387  0.0069  0.0251
10895TIP3    H154100   0.581   6.428  14.939  2.1498 -0.8656  1.4746
10895TIP3    H254101   0.660   6.366  14.826  2.6274 -2.5372  2.6802
10896TIP3   OH254102   1.403   0.065  11.561  0.3507 -0.5162 -0.0176
10896TIP3    H154103   1.434  -0.012  11.609 -0.0458 -0.1484  0.8544
10896TIP3    H254104   1.310   0.047  11.546  0.6966 -1.1216 -1.6511
10897TIP3   OH254105   3.589   3.724  16.265 -0.2063  0.0733 -0.1531
10897TIP3    H154106   3.624   3.779  16.335  3.6997 -0.9341 -1.0758
10897TIP3    H254107   3.578   3.638  16.305  0.0043 -0.0180 -0.2930
10898TIP3   OH254108   0.076   2.044   5.482 -0.1076 -0.0522  0.4732
10898TIP3    H154109   0.127   2.124   5.493  1.2605 -0.1827 -3.5368
10898TIP3    H254110   0.139   1.974   5.496  0.2342 -0.2517 -1.7418
10899TIP3   OH254111   3.542   5.406  16.180 -0.7463 -0.0006 -0.6402
10899TIP3    H154112   3.467   5.446  16.135  0.6427  0.1695 -2.9534
10899TIP3    H254113   3.510   5.319  16.206 -1.7287 -0.0041 -1.7415
10900TIP3   OH254114   4.954   5.984   2.983  0.2662 -0.3193  0.2019
10900TIP3    H154115   4.998   5.907   3.019 -0.0485 -0.9432 -0.7108
10900TIP3    H254116   4.994   5.996   2.897 -0.5193 -0.1709 -0.1442
10901TIP3   OH254117   2.964   3.030   5.031  0.4242  0.0020  0.1177
10901TIP3    H154118   2.923   2.948   5.002  0.8580  0.3701 -1.5982
10901TIP3    H254119   2.898   3.097   5.012  0.7562  0.2656 -0.0976
10902TIP3   OH254120   5.815   6.162  17.012 -0.2845  0.5198 -0.2711
10902TIP3    H154121   5.740   6.177  17.068  0.2604  0.9739  0.3514
10902TIP3    H254122   5.814   6.233  16.948  0.4174  1.3610  0.6271
10903TIP3   OH254123   4.108   0.125  16.810 -0.1722 -0.1178  0.0208
10903TIP3    H154124   4.078   0.200  16.861 -1.4368 -1.0790  0.7593
10903TIP3    H254125   4.059   0.130  16.728 -0.5470 -0.3443  0.2295
10904TIP3   OH254126   3.303   5.802  13.167 -0.0818 -0.2761  0.4834
10904TIP3    H154127   3.288   5.820  13.260 -2.4603 -0.1306  0.1350
10904TIP3    H254128   3.350   5.718  13.166  1.6947  0.6421  1.8255
10905TIP3   OH254129   6.613   6.066   1.064  0.1377 -0.1180  0.7846
10905TIP3    H154130   6.653   6.021   0.990 -0.8106 -1.3840  1.0188
10905TIP3    H254131   6.547   6.123   1.025 -1.3362 -1.8051  0.6879
10906TIP3   OH254132   5.601   3.692   4.952  0.1745 -0.1692 -0.2714
10906TIP3    H154133   5.526   3.641   4.920 -1.8502  1.3990  1.6559
10906TIP3    H254134   5.665   3.686   4.881 -1.6957 -1.6945 -1.9893
10907TIP3   OH254135   0.337   3.255   0.155  0.3323  0.4218  0.2477
10907TIP3    H154136   0.374   3.175   0.119 -0.1091  0.5558 -0.5248
10907TIP3    H254137   0.393   3.325   0.121 -0.3072  0.5803 -0.5144
10908TIP3   OH254138   5.534   3.950   0.336 -0.2089 -0.3168 -0.2021
10908TIP3    H154139   5.486   4.018   0.290 -0.5894 -0.4973 -0.0798
10908TIP3    H254140   5.519   3.871   0.285  0.5673 -0.2334 -0.5692
10909TIP3   OH254141   3.977   0.506  12.386  0.5377  0.3052  0.3832
10909TIP3    H154142   3.981   0.541  12.297  2.0012 -3.1931 -1.1223
10909TIP3    H254143   3.884   0.485  12.399  0.1686  1.6653  0.0507
10910TIP3   OH254144   3.230   3.522   3.242  0.2148  0.4094  0.4508
10910TIP3    H154145   3.308   3.574   3.260  0.8438  0.6321 -2.3519
10910TIP3    H254146   3.255   3.432   3.262  0.0684  0.7932  2.5900
10911TIP3   OH254147   3.093   5.535  13.858  0.1882 -0.1298  0.5311
10911TIP3    H154148   3.043   5.587  13.920 -0.1471 -1.7208  1.6767
10911TIP3    H254149   3.176   5.517  13.903  1.2507  1.2767 -0.7636
10912TIP3   OH254150   0.621   2.498  11.295  0.1196 -0.3020 -0.0542
10912TIP3    H154151   0.643   2.589  11.274 -0.2094 -0.3536 -0.6646
10912TIP3    H254152   0.610   2.497  11.390 -0.6871  0.4821 -0.1196
10913TIP3   OH254153   1.731   4.337  14.575 -0.1526  0.4450  0.0710
10913TIP3    H154154   1.812   4.292  14.551 -0.2510  1.0263 -1.4440
10913TIP3    H254155   1.679   4.271  14.621  0.8279 -0.1614  0.3346
10914TIP3   OH254156   5.212   3.642  14.822  0.6906 -0.6373  0.3911
10914TIP3    H154157   5.285   3.691  14.858  0.6249 -0.6250  0.5097
10914TIP3    H254158   5.216   3.658  14.728  1.1505 -1.0606  0.3370
10915TIP3   OH254159   0.931   6.269   0.071  0.3817 -0.3224  0.3788
10915TIP3    H154160   0.950   6.180   0.043 -1.0686 -0.2870 -0.8219
10915TIP3    H254161   0.890   6.311  -0.005  0.0587  1.0419  1.2570
10916TIP3   OH254162   5.184   3.572  16.137  0.2409  0.9156  0.4325
10916TIP3    H154163   5.097   3.601  16.165 -0.1714  0.3247 -0.2176
10916TIP3    H254164   5.243   3.609  16.203 -0.3219  2.6232  0.0204
10917TIP3   OH254165   5.795   0.096   5.584  0.3005 -0.6888 -0.2044
10917TIP3    H154166   5.779   0.004   5.607  1.1925 -0.4955  1.4154
10917TIP3    H254167   5.718   0.123   5.535 -0.0861 -2.2342 -0.4976
10918TIP3   OH254168   0.560   4.635   3.027 -0.4444 -0.0066  0.6445
10918TIP3    H154169   0.516   4.683   3.098  0.1492  1.8239 -0.1722
10918TIP3    H254170   0.651   4.664   3.031 -0.1033 -0.9496 -0.0087
10919TIP3   OH254171   3.764   0.533  14.234  0.8113  0.4074 -0.3066
10919TIP3    H154172   3.827   0.605  14.240  0.9087  0.3198 -0.2654
10919TIP3    H254173   3.763   0.495  14.321  0.6835  0.4216 -0.3015
10920TIP3   OH254174   3.829   5.774  15.279  0.1237  0.7032 -0.2668
10920TIP3    H154175   3.739   5.767  15.247 -0.0914 -1.1177  0.6520
10920TIP3    H254176   3.822   5.778  15.374  0.9763  1.7177 -0.2237
10921TIP3   OH254177   1.621   5.670   0.618  0.5808  0.0658  0.1394
10921TIP3    H154178   1.584   5.748   0.660 -0.3951 -0.1232 -0.3229
10921TIP3    H254179   1.571   5.597   0.655  2.3248 -0.4963  1.4998
10922TIP3   OH254180   2.368   2.299  12.365  0.4854  0.4093 -0.6182
10922TIP3    H154181   2.331   2.334  12.446  2.1750  0.4860  0.1723
10922TIP3    H254182   2.293   2.287  12.307 -1.6172 -4.2506  2.4913
10923TIP3   OH254183   4.432   1.230   2.376 -0.0769 -0.0956  0.3219
10923TIP3    H154184   4.428   1.196   2.287 -0.9780 -2.7332  1.2898
10923TIP3    H254185   4.414   1.324   2.367 -2.0569 -0.6375 -2.0804
10924TIP3   OH254186   3.127   3.894  13.325 -0.0316 -0.5206  0.6464
10924TIP3    H154187   3.198   3.854  13.275 -0.9359 -0.3175 -0.8435
10924TIP3    H254188   3.134   3.853  13.412  0.2581 -2.4978 -0.2559
10925TIP3   OH254189   6.792   2.543  14.363  0.5964 -0.5032  0.2884
10925TIP3    H154190   6.785   2.537  14.268 -0.5810 -0.3834  0.3454
10925TIP3    H254191   6.872   2.495  14.384  0.9651 -0.3878 -0.7694
10926TIP3   OH254192   2.345   1.196   0.878 -0.7240 -0.2112 -0.3806
10926TIP3    H154193   2.420   1.247   0.908 -1.0338  0.3117 -0.4891
10926TIP3    H254194   2.307   1.249   0.807 -0.9570 -0.6622 -0.5958
10927TIP3   OH254195   6.195   5.667  16.519  0.1330 -0.2161  0.1817
10927TIP3    H154196   6.226   5.664  16.429  2.1185  3.5702  0.5506
10927TIP3    H254197   6.262   5.619  16.569  1.0906  0.9017  0.0136
10928TIP3   OH254198   4.927   0.740   4.017 -0.2809  0.1967  0.1496
10928TIP3    H154199   4.960   0.796   4.087  0.2754 -0.9039  0.8001
10928TIP3    H254200   4.985   0.758   3.942 -1.6191  2.2729 -0.4703
10929TIP3   OH254201   4.191   0.086   1.324 -0.1228  0.0592  0.4093
10929TIP3    H154202   4.167   0.179   1.322 -1.9109 -0.3966 -0.6517
10929TIP3    H254203   4.268   0.081   1.267  0.6402  1.0200  1.2912
10930TIP3   OH254204   3.184   6.448   3.843  0.2470  0.0512 -0.0314
10930TIP3    H154205   3.137   6.521   3.801  0.9620  0.6292  0.1355
10930TIP3    H254206   3.116   6.386   3.867 -0.2702  0.1351 -1.2221
10931TIP3   OH254207   3.680   5.216  12.550  0.1035 -0.3442  0.8372
10931TIP3    H154208   3.727   5.220  12.633  0.0542  1.7241  0.8017
10931TIP3    H254209   3.745   5.238  12.484  0.0170 -1.4726  0.3545
10932TIP3   OH254210   1.497   5.405   2.363  0.2361 -0.9196  0.0096
10932TIP3    H154211   1.424   5.411   2.424  0.3293 -1.1480  0.1461
10932TIP3    H254212   1.574   5.389   2.419  0.4487 -0.3060 -0.0999
10933TIP3   OH254213   0.572   4.167   5.117 -0.0152  0.9558 -0.1800
10933TIP3    H154214   0.656   4.146   5.158 -0.2718 -0.0760 -0.1580
10933TIP3    H254215   0.521   4.208   5.187  0.4426  1.5328 -0.1769
10934TIP3   OH254216   4.497   2.942  11.132  0.0423  0.2839  0.0672
10934TIP3    H154217   4.572   2.986  11.094 -0.6243  0.9395 -0.5216
10934TIP3    H254218   4.491   2.858  11.085  0.3734  0.2500  0.0881
10935TIP3   OH254219   0.943   2.373  13.347  0.1963  0.3823  0.5894
10935TIP3    H154220   0.856   2.407  13.365  0.6909  1.4918  0.9752
10935TIP3    H254221   0.930   2.310  13.276 -0.9872  0.1133  1.0248
10936TIP3   OH254222   1.929   5.245  15.687  0.2174 -0.6064  0.0810
10936TIP3    H154223   1.862   5.199  15.737 -0.8667  1.7558  0.9392
10936TIP3    H254224   1.883   5.275  15.608  0.2789  0.8553  0.5773
10937TIP3   OH254225   4.210   4.574   1.564 -1.0003  0.0856 -0.0730
10937TIP3    H154226   4.183   4.594   1.474  0.2227  0.2045 -0.4255
10937TIP3    H254227   4.291   4.623   1.576  0.7811 -2.6451 -0.1257
10938TIP3   OH254228   4.252   4.497  16.481 -0.8434 -1.0341  0.0605
10938TIP3    H154229   4.157   4.498  16.468 -1.0288 -0.4849  1.3077
10938TIP3    H254230   4.276   4.590  16.487 -0.6374 -1.1808  2.3153
10939TIP3   OH254231   2.610   4.497  13.570  0.7063  0.6413  0.7451
10939TIP3    H154232   2.535   4.438  13.576  0.8623  0.3847  0.2499
10939TIP3    H254233   2.680   4.444  13.533  0.8715  1.1105  0.3637
10940TIP3   OH254234   3.490   5.033   5.374  0.5386 -0.2362 -0.2791
10940TIP3    H154235   3.439   4.996   5.302 -0.1944 -1.0551  0.6244
10940TIP3    H254236   3.477   4.971   5.446  1.5580  0.3683  0.4444
10941TIP3   OH254237   5.190   0.590  12.747 -0.0976 -0.7319 -0.1466
10941TIP3    H154238   5.279   0.625  12.749 -0.2667 -0.3074  1.5565
10941TIP3    H254239   5.150   0.621  12.828 -2.1250 -0.1270 -1.3122
10942TIP3   OH254240   4.646   1.893  16.062 -0.0382  0.2384  0.4451
10942TIP3    H154241   4.624   1.935  15.978  0.1671  0.4874  0.5135
10942TIP3    H254242   4.563   1.860  16.095 -0.1276  0.1813  0.1629
10943TIP3   OH254243   4.116   4.042   5.124 -0.2387  0.4458  0.0801
10943TIP3    H154244   4.056   3.974   5.154  0.7217 -0.2129  0.5378
10943TIP3    H254245   4.058   4.111   5.090 -1.2305 -1.0892 -1.5159
10944TIP3   OH254246   0.953   6.002   2.396 -0.3107 -0.2287 -0.4546
10944TIP3    H154247   0.925   5.993   2.487 -0.2080 -1.4190 -0.5295
10944TIP3    H254248   1.008   6.081   2.396  1.1434 -1.1781  0.8880
10945TIP3   OH254249   6.282   3.829   5.210 -0.8109 -0.1689 -0.8370
10945TIP3    H154250   6.233   3.844   5.291  0.1661  1.8250 -0.5586
10945TIP3    H254251   6.361   3.783   5.239 -0.1666  1.0956 -0.5387
10946TIP3   OH254252   5.959   5.340   5.678 -1.0587  0.2923  0.3837
10946TIP3    H154253   5.961   5.399   5.602  0.1388  1.5980  1.3750
10946TIP3    H254254   6.015   5.267   5.654  0.7071  1.5115  0.5904
10947TIP3   OH254255   2.812   1.908   4.968 -0.1985  0.7365  0.1046
10947TIP3    H154256   2.875   1.903   5.040 -1.7342 -0.6822  1.4345
10947TIP3    H254257   2.744   1.845   4.992 -2.5398  2.7358 -0.8752
10948TIP3   OH254258   3.859   6.066   4.018  0.2867  0.6844 -0.2302
10948TIP3    H154259   3.828   6.131   3.954  1.6810  1.8543  0.2209
10948TIP3    H254260   3.907   6.002   3.965 -0.9679  0.0809 -0.6626
10949TIP3   OH254261   3.612   3.958   2.176  0.7217  0.2856 -0.2953
10949TIP3    H154262   3.602   3.943   2.082  0.8124  0.4290 -0.3298
10949TIP3    H254263   3.604   4.053   2.186 -0.9165  0.1371  0.0545
10950TIP3   OH254264   3.689   0.491   0.916  0.2351  0.2358 -0.2120
10950TIP3    H154265   3.694   0.585   0.930 -1.2572  0.5334 -1.4209
10950TIP3    H254266   3.766   0.470   0.863  1.4408  0.4698  1.3896
10951TIP3   OH254267   1.961   1.720  13.472 -0.3239 -0.4272 -0.2653
10951TIP3    H154268   1.980   1.812  13.451 -1.5180 -0.3361 -1.0951
10951TIP3    H254269   2.034   1.692  13.526 -0.3560  1.2773  0.7433
10952TIP3   OH254270   0.476   5.595   1.364  0.3468  0.2716 -0.2826
10952TIP3    H154271   0.496   5.600   1.271  1.5204 -2.0495 -0.2507
10952TIP3    H254272   0.552   5.550   1.402 -0.0141  1.3229  1.8318
10953TIP3   OH254273   5.322   0.941   6.386  0.8378 -0.2814  0.0603
10953TIP3    H154274   5.242   0.899   6.417  0.3629 -0.3517 -1.1989
10953TIP3    H254275   5.380   0.869   6.363  0.1696 -0.3004 -1.7267
10954TIP3   OH254276   0.386   3.826  14.312 -0.3016  0.0843 -0.1036
10954TIP3    H154277   0.454   3.881  14.274 -1.1552  0.7097 -0.7567
10954TIP3    H254278   0.323   3.813  14.241 -1.2201  0.1133  0.6905
10955TIP3   OH254279   6.102   4.804  12.632  0.2285 -0.1466 -0.3450
10955TIP3    H154280   6.075   4.783  12.722  1.3770  0.0624  0.0575
10955TIP3    H254281   6.046   4.749  12.578  0.1072 -0.9198  0.5327
10956TIP3   OH254282   4.958   5.167  16.658  0.1422  0.0098  0.1495
10956TIP3    H154283   4.928   5.156  16.748  2.0212  0.4289  0.8893
10956TIP3    H254284   5.019   5.095  16.644  1.0240  0.8081 -0.2366
10957TIP3   OH254285   4.780   2.532  16.467 -0.2172  0.2931 -0.5511
10957TIP3    H154286   4.738   2.485  16.395  0.2513 -0.7460 -0.1703
10957TIP3    H254287   4.849   2.473  16.498  1.5229  1.9262 -1.1131
10958TIP3   OH254288   0.267   5.967  14.943 -0.0933  0.3817 -0.1091
10958TIP3    H154289   0.316   5.885  14.937  1.8005  1.3220  1.2752
10958TIP3    H254290   0.218   5.960  15.025 -0.5147  0.3375 -0.3646
10959TIP3   OH254291   3.591   0.569  15.475  0.3663 -0.5313 -0.2168
10959TIP3    H154292   3.564   0.544  15.563  0.0911  0.8217  0.0964
10959TIP3    H254293   3.652   0.641  15.487  1.6664 -1.4362 -1.0830
10960TIP3   OH254294   4.017   2.554   2.629  0.0557 -0.3403  0.3840
10960TIP3    H154295   4.061   2.585   2.549 -1.0206  0.2946  0.0122
10960TIP3    H254296   4.068   2.591   2.700  0.3464  0.0675 -0.0293
10961TIP3   OH254297   5.583   4.498  10.671  0.9676  0.4460  0.0513
10961TIP3    H154298   5.521   4.520  10.601  2.1226  1.7556 -0.6184
10961TIP3    H254299   5.544   4.423  10.716 -1.1455  1.3012 -0.2646
10962TIP3   OH254300   4.588   3.622   4.826 -0.1172 -0.0427 -0.3567
10962TIP3    H154301   4.514   3.562   4.828 -0.3390  0.2380  0.4165
10962TIP3    H254302   4.561   3.692   4.767 -0.2967 -0.1478 -0.3987
10963TIP3   OH254303   6.243   1.036   5.124 -0.1204  0.2652  0.6859
10963TIP3    H154304   6.153   1.022   5.095  0.1747 -0.0362 -0.1335
10963TIP3    H254305   6.247   1.129   5.145 -0.4581  0.4260  0.0789
10964TIP3   OH254306   2.547   2.076  12.302 -0.0378  0.6108  0.2204
10964TIP3    H154307   2.516   1.992  12.268  0.5695  0.6180 -0.3810
10964TIP3    H254308   2.496   2.141  12.255  0.6159  0.6133 -0.5016
10965TIP3   OH254309   2.794   3.196  13.587  0.2290 -0.1209 -0.0561
10965TIP3    H154310   2.784   3.228  13.677  1.3837 -0.4964  0.2174
10965TIP3    H254311   2.714   3.145  13.571  0.4560 -0.9023  1.1388
10966TIP3   OH254312   4.604   3.666   4.356 -0.0922  0.0902 -0.1346
10966TIP3    H154313   4.673   3.635   4.414 -0.3521 -1.2862 -0.5265
10966TIP3    H254314   4.631   3.755   4.331  2.5925 -1.0917 -1.8717
10967TIP3   OH254315   1.276   5.900  15.163 -0.2082 -0.0109 -0.4642
10967TIP3    H154316   1.275   5.979  15.217 -1.4784 -0.0485 -0.3836
10967TIP3    H254317   1.324   5.836  15.215 -0.2315  0.3504  0.0145
10968TIP3   OH254318   0.996   2.518   3.273  0.0829 -1.1005  0.5001
10968TIP3    H154319   1.031   2.493   3.188  0.2736  1.8775 -0.4086
10968TIP3    H254320   1.062   2.486   3.336  3.1525  1.7799 -0.9465
10969TIP3   OH254321   4.048   0.502  16.881  0.1892 -0.2919 -0.7387
10969TIP3    H154322   3.954   0.511  16.868  0.1952  0.0944 -0.5235
10969TIP3    H254323   4.065   0.542  16.967  0.7377  0.8352 -1.3392
10970TIP3   OH254324   0.431   2.528  11.083  0.0797  0.0123 -0.2087
10970TIP3    H154325   0.488   2.468  11.035  1.3892  2.3196 -1.7235
10970TIP3    H254326   0.486   2.565  11.152  0.3293  1.7773 -1.2829
10971TIP3   OH254327   2.292   4.146  15.428 -0.2727  0.3702 -0.0083
10971TIP3    H154328   2.264   4.095  15.352  0.9401 -3.2442  1.7393
10971TIP3    H254329   2.284   4.085  15.502  1.6273  2.6640  2.2778
10972TIP3   OH254330   1.636   1.601   5.746 -0.1319  0.1750  0.3011
10972TIP3    H154331   1.662   1.528   5.690 -0.8789 -0.2914  0.5563
10972TIP3    H254332   1.545   1.584   5.769 -0.5311  1.5288 -0.1644
10973TIP3   OH254333   1.418   6.336  12.686 -0.1955  0.3348 -0.6356
10973TIP3    H154334   1.369   6.353  12.605  0.7844  1.0761 -1.0961
10973TIP3    H254335   1.492   6.396  12.681 -0.6851  1.1677  1.3273
10974TIP3   OH254336   5.675   5.285   4.238 -0.1645 -0.0417  0.0321
10974TIP3    H154337   5.648   5.236   4.160  0.1575 -0.1367 -0.0225
10974TIP3    H254338   5.649   5.375   4.220  2.6475  0.5618 -1.5620
10975TIP3   OH254339   1.813   1.777  11.260 -0.3026  0.2228 -0.2714
10975TIP3    H154340   1.732   1.780  11.310 -0.6436 -0.2919 -0.7791
10975TIP3    H254341   1.876   1.826  11.313 -0.6387 -0.3490  0.6764
10976TIP3   OH254342   6.765   4.479   4.367  0.2853 -0.0899 -0.5340
10976TIP3    H154343   6.815   4.464   4.287  1.1730  0.2791 -0.0606
10976TIP3    H254344   6.749   4.392   4.403 -0.5491 -0.2939 -1.3545
10977TIP3   OH254345   5.741   3.605  14.631 -0.1295 -0.1636 -0.1952
10977TIP3    H154346   5.692   3.643  14.704  1.2345 -2.0565  1.8413
10977TIP3    H254347   5.828   3.645  14.637  0.0133 -0.3838 -0.7338
10978TIP3   OH254348   0.806   4.336  12.919  0.0445  0.3575  1.2339
10978TIP3    H154349   0.779   4.428  12.925  0.4301  0.5860 -0.1202
10978TIP3    H254350   0.885   4.330  12.972  1.7545  1.5564 -1.0125
10979TIP3   OH254351   1.447   0.170  14.687  0.0587  0.9141  0.0436
10979TIP3    H154352   1.440   0.087  14.640  1.2007  0.8457 -0.0441
10979TIP3    H254353   1.399   0.233  14.633 -2.0020  0.0750  0.7987
10980TIP3   OH254354   5.038   5.676   6.111 -0.4481  0.7769 -0.5662
10980TIP3    H154355   5.091   5.634   6.179  0.1363  0.1457 -1.3919
10980TIP3    H254356   4.998   5.751   6.156 -0.8426 -0.1606  0.7181
10981TIP3   OH254357   5.043   2.532  17.045  0.4819  0.2010 -0.2216
10981TIP3    H154358   4.995   2.599  16.997  0.9308  0.0727 -0.8635
10981TIP3    H254359   5.023   2.450  16.999  1.2244  0.1321 -0.4497
10982TIP3   OH254360   1.402   0.148  12.197  0.0378 -0.0603 -0.2574
10982TIP3    H154361   1.431   0.239  12.205  0.9950 -0.4147  0.4310
10982TIP3    H254362   1.405   0.131  12.103  1.3257  0.1644 -0.2793
10983TIP3   OH254363   5.324   5.804  12.640 -0.1706 -0.2285  0.2523
10983TIP3    H154364   5.285   5.748  12.573  0.4350  1.2152 -1.3872
10983TIP3    H254365   5.256   5.867  12.662 -0.0247 -0.0574  0.2196
10984TIP3   OH254366   2.336   4.859   0.870 -0.3660 -0.0814 -0.3890
10984TIP3    H154367   2.371   4.770   0.864 -0.4269 -0.0108 -2.1228
10984TIP3    H254368   2.409   4.912   0.901  0.3984 -0.3285 -1.7188
10985TIP3   OH254369   5.634   1.911   3.782  0.7017 -0.0352  0.0016
10985TIP3    H154370   5.653   1.900   3.875 -0.4258  0.2370  0.2692
10985TIP3    H254371   5.584   1.833   3.757  1.5952 -0.4508 -0.5580
10986TIP3   OH254372   4.852   1.826   0.956  0.0450 -0.3288  0.2599
10986TIP3    H154373   4.914   1.788   1.018  0.8581  1.6318  0.7353
10986TIP3    H254374   4.854   1.920   0.976  0.1804  0.3604 -2.5912
10987TIP3   OH254375   0.508   0.972   3.238  0.6536  0.6105 -0.1647
10987TIP3    H154376   0.486   1.048   3.291 -0.0284  1.6750 -1.8698
10987TIP3    H254377   0.437   0.967   3.173  0.8586 -1.2884 -0.2952
10988TIP3   OH254378   0.900   4.208   1.427  0.1703  0.1822  0.4634
10988TIP3    H154379   0.943   4.294   1.417  2.1640 -0.8634 -0.5632
10988TIP3    H254380   0.903   4.191   1.521 -2.9480  2.4690  1.1302
10989TIP3   OH254381   6.071   5.159  16.638  0.5574  0.1901  0.0200
10989TIP3    H154382   5.989   5.207  16.651 -0.7749 -1.4481 -1.8154
10989TIP3    H254383   6.051   5.069  16.661  1.7058 -0.3322 -0.8925
10990TIP3   OH254384   2.837   4.059   5.887  0.4610 -0.0349  0.6883
10990TIP3    H154385   2.860   4.104   5.969  0.2056  0.5551  0.4392
10990TIP3    H254386   2.797   4.127   5.833  1.5062 -0.1869 -0.3042
10991TIP3   OH254387   2.578   6.121   4.046 -0.3561 -1.1200 -0.1565
10991TIP3    H154388   2.602   6.154   4.133 -3.8547  1.7678 -0.0377
10991TIP3    H254389   2.544   6.034   4.063 -2.2156 -0.1256  1.7166
10992TIP3   OH254390   1.916   6.463   1.814 -0.2948 -0.5817  0.0586
10992TIP3    H154391   1.955   6.431   1.733  1.3360 -0.5886  0.8056
10992TIP3    H254392   1.967   6.542   1.835  0.3565 -1.4204  1.8400
10993TIP3   OH254393   3.657   4.805  14.799 -0.4921  0.4124  0.5895
10993TIP3    H154394   3.682   4.742  14.731  0.3047 -0.3797  1.5816
10993TIP3    H254395   3.689   4.889  14.766 -0.3714  0.0942 -0.1357
10994TIP3   OH254396   3.488   6.711   3.038  0.0555 -0.4951  0.1026
10994TIP3    H154397   3.404   6.679   3.072  0.1116  1.0185  1.8198
10994TIP3    H254398   3.548   6.701   3.111  0.6129  1.2653 -0.0616
10995TIP3   OH254399   6.421   2.892  15.959  0.3232 -0.2633 -0.2686
10995TIP3    H154400   6.411   2.982  15.989  0.7750 -0.5094  0.6471
10995TIP3    H254401   6.371   2.839  16.021 -0.0569 -0.6345 -0.8842
10996TIP3   OH254402   3.556   2.493   1.088 -0.4246 -0.3632 -0.4387
10996TIP3    H154403   3.599   2.510   1.004  1.4758 -0.1235  0.5367
10996TIP3    H254404   3.544   2.398   1.089  0.0507 -0.4313 -0.7618
10997TIP3   OH254405   5.964   3.432   4.549 -0.5117  0.2060 -0.2783
10997TIP3    H154406   6.040   3.491   4.552 -0.6920  0.4145  0.9978
10997TIP3    H254407   5.999   3.350   4.515 -0.1076  0.8369 -1.4130
10998TIP3   OH254408   5.496   1.884   4.943  0.5085  0.6820  0.0341
10998TIP3    H154409   5.580   1.920   4.971 -0.0258  1.0169  1.3028
10998TIP3    H254410   5.456   1.954   4.891  0.8798  0.6304 -0.3271
10999TIP3   OH254411   5.304   0.942   0.221  0.1427  0.3623  0.3013
10999TIP3    H154412   5.381   0.928   0.276  0.1736 -0.8598 -0.0201
10999TIP3    H254413   5.229   0.932   0.281  0.2107  0.2456  0.3682
11000TIP3   OH254414   1.479   6.655  14.206 -0.6661 -0.2016  0.2288
11000TIP3    H154415   1.395   6.668  14.164 -0.6450 -0.7093  0.0242
11000TIP3    H254416   1.465   6.581  14.266 -1.0394  1.2888  2.0701
11001TIP3   OH254417   5.654   5.742   0.914  0.3568  0.7453  0.1202
11001TIP3    H154418   5.593   5.680   0.954 -1.8634  2.9426  0.3942
11001TIP3    H254419   5.640   5.732   0.820  0.5290  0.3562  0.1338
11002TIP3   OH254420   5.043   2.682  14.490  0.2287  0.2369  0.1206
11002TIP3    H154421   5.035   2.715  14.401 -0.7685 -0.7956 -0.1978
11002TIP3    H254422   5.047   2.760  14.545  1.1549  0.8900 -0.8312
11003TIP3   OH254423   4.012   3.979   3.185 -0.0271 -0.0549  0.6418
11003TIP3    H154424   4.051   4.063   3.208 -1.3971  0.2671  2.0028
11003TIP3    H254425   3.918   3.993   3.196 -0.3476 -1.4940 -0.0694
11004TIP3   OH254426   5.662   5.675   5.160 -0.4750 -0.3126 -1.0378
11004TIP3    H154427   5.650   5.754   5.213  1.2922 -0.3914 -0.4429
11004TIP3    H254428   5.612   5.607   5.207 -1.7320  0.3369 -1.3795
11005TIP3   OH254429   4.452   0.585  13.461 -0.3488  0.0192 -0.0632
11005TIP3    H154430   4.436   0.619  13.548 -0.8176  1.2057 -0.5912
11005TIP3    H254431   4.540   0.613  13.439  1.0616 -2.9710  1.2110
11006TIP3   OH254432   5.370   3.956   3.962  0.6786  0.4655  0.1770
11006TIP3    H154433   5.284   3.932   3.996  0.3615 -0.5068 -1.2519
11006TIP3    H254434   5.410   4.006   4.034 -1.3442  1.6174  0.6000
11007TIP3   OH254435   2.788   6.210   5.875  0.2030  0.7576  0.3253
11007TIP3    H154436   2.862   6.160   5.910 -0.5063  0.1101  0.9466
11007TIP3    H254437   2.767   6.273   5.944 -0.2210  0.5101  0.4296
11008TIP3   OH254438   2.437   1.881  11.857  0.0785 -0.2463  0.1209
11008TIP3    H154439   2.448   1.900  11.764 -1.0432 -0.1705 -0.0115
11008TIP3    H254440   2.514   1.829  11.880 -0.3904 -1.6163 -1.2289
11009TIP3   OH254441   1.944   4.060  15.928 -0.7894  0.5150  0.2777
11009TIP3    H154442   1.980   4.148  15.915  0.0232  0.1590  0.0737
11009TIP3    H254443   2.011   4.014  15.978 -1.2796  0.0521  0.5155
11010TIP3   OH254444   2.821   0.751   1.290 -0.3233 -0.7339 -0.1854
11010TIP3    H154445   2.914   0.770   1.304 -0.2396 -0.4295 -1.1036
11010TIP3    H254446   2.793   0.815   1.224 -1.4459 -0.1395  0.8196
11011TIP3   OH254447   3.023   6.099  11.326  0.6865  0.1358  0.1173
11011TIP3    H154448   3.006   6.193  11.329  0.8912  0.3427 -2.7346
11011TIP3    H254449   3.119   6.092  11.332  0.6142 -0.0096  1.4211
11012TIP3   OH254450   3.849   3.574  15.819  0.1455 -0.4195 -0.4507
11012TIP3    H154451   3.906   3.552  15.745 -0.4512 -1.7897 -0.5352
11012TIP3    H254452   3.828   3.489  15.859  0.5342  0.3107  1.3548
11013TIP3   OH254453   2.395   3.204  12.741 -0.5656  0.7556 -0.0920
11013TIP3    H154454   2.454   3.276  12.721  0.5114 -0.0042  0.2154
11013TIP3    H254455   2.452   3.136  12.778 -1.6884  0.1177  0.5297
11014TIP3   OH254456   5.228   5.458   6.702  0.3003 -0.2948 -0.4814
11014TIP3    H154457   5.187   5.530   6.654 -0.8600 -1.1915 -0.9042
11014TIP3    H254458   5.196   5.379   6.657 -1.3659 -1.2071  2.0926
11015TIP3   OH254459   3.413   5.806   4.381  0.0212  0.8523 -0.0969
11015TIP3    H154460   3.371   5.852   4.454  0.6360  1.4509 -0.1189
11015TIP3    H254461   3.462   5.735   4.423  0.6746  1.4181  0.1124
11016TIP3   OH254462   2.190   3.921   0.393  0.0774 -0.6075  0.3127
11016TIP3    H154463   2.113   3.872   0.363  0.3096 -1.1283  0.5412
11016TIP3    H254464   2.251   3.853   0.423  0.5264 -0.1875  0.3670
11017TIP3   OH254465   1.289   1.541   4.613  0.4379  0.1396 -0.1918
11017TIP3    H154466   1.303   1.616   4.670  0.1846 -0.7633  1.1100
11017TIP3    H254467   1.209   1.500   4.646  0.4360 -0.5678 -1.0268
11018TIP3   OH254468   5.985   5.339  15.428 -0.1898  0.1975  1.2828
11018TIP3    H154469   5.891   5.325  15.416 -0.1890  1.2702 -0.3316
11018TIP3    H254470   5.992   5.388  15.510 -1.0637  0.3846  1.2516
11019TIP3   OH254471   6.532   2.894  17.107 -0.0503  0.0935  0.0867
11019TIP3    H154472   6.560   2.974  17.151  0.1705  0.2707 -0.3735
11019TIP3    H254473   6.500   2.838  17.178  0.8730  0.1301  0.5394
11020TIP3   OH254474   5.028   1.338  12.322 -0.5990  0.2621 -0.1670
11020TIP3    H154475   4.956   1.401  12.317  0.5541  1.6029 -0.5210
11020TIP3    H254476   5.068   1.354  12.408 -1.1517 -0.9956  0.3474
11021TIP3   OH254477   1.402   0.079  16.155 -0.2243  0.1266 -0.0972
11021TIP3    H154478   1.425   0.100  16.246  0.5284 -0.4043 -0.1489
11021TIP3    H254479   1.470   0.122  16.103  0.4015 -1.0386 -0.2897
11022TIP3   OH254480   0.641   3.626   5.463  0.2659 -0.0885  0.1047
11022TIP3    H154481   0.552   3.599   5.483  0.3237 -1.7139 -1.5504
11022TIP3    H254482   0.697   3.561   5.505  0.6169  0.1859  0.0675
11023TIP3   OH254483   3.807   2.409   3.963  0.2404  0.6196 -0.2859
11023TIP3    H154484   3.739   2.347   3.990  1.6065 -0.5474  0.6002
11023TIP3    H254485   3.796   2.417   3.868 -0.6154 -0.1696 -0.2632
11024TIP3   OH254486   6.651   1.821   4.110 -0.5806 -0.6460  0.3075
11024TIP3    H154487   6.705   1.864   4.177 -0.0063 -1.2602  0.2575
11024TIP3    H254488   6.583   1.885   4.089 -0.2939 -0.1314  0.8966
11025TIP3   OH254489   1.148   5.113   0.860  0.2549  0.2688 -0.3583
11025TIP3    H154490   1.220   5.050   0.866  3.4092  3.4384 -0.9648
11025TIP3    H254491   1.145   5.137   0.767  1.3254  3.0664  0.2180
11026TIP3   OH254492   4.008   0.994   2.162 -0.7484  0.2283 -0.3066
11026TIP3    H154493   4.056   1.030   2.087 -0.3923 -0.7110 -0.5473
11026TIP3    H254494   4.071   0.993   2.233 -0.3296 -1.1387 -0.6603
11027TIP3   OH254495   1.109   0.111  10.756 -0.2610  1.0538  0.2667
11027TIP3    H154496   1.103   0.172  10.682 -0.9563 -0.9639 -1.4325
11027TIP3    H254497   1.032   0.056  10.748  0.2678  0.0108  1.8353
11028TIP3   OH254498   0.436   1.463   2.115 -0.0827  0.1905 -0.1229
11028TIP3    H154499   0.409   1.402   2.046  1.0028 -1.3425  0.7377
11028TIP3    H254500   0.354   1.504   2.144 -0.8346 -0.7637 -0.8259
11029TIP3   OH254501   3.637   3.346   1.319 -0.0255  0.3610  0.5375
11029TIP3    H154502   3.711   3.309   1.272 -0.4982 -3.2281  2.3062
11029TIP3    H254503   3.561   3.298   1.287 -1.0703  1.4504  1.2971
11030TIP3   OH254504   2.425   0.538   3.460  0.9107 -0.6647 -0.5601
11030TIP3    H154505   2.478   0.615   3.479  1.2741 -0.8368 -0.8631
11030TIP3    H254506   2.469   0.495   3.387  0.1224 -0.5894 -1.0898
11031TIP3   OH254507   2.824   4.265  14.892 -0.3205  0.5472 -0.0518
11031TIP3    H154508   2.906   4.236  14.851 -0.0079 -0.6768  1.3587
11031TIP3    H254509   2.757   4.251  14.825  0.7554  2.9508 -1.7736
11032TIP3   OH254510   3.565   6.391  13.524  0.2313  0.4810  0.3633
11032TIP3    H154511   3.658   6.409  13.507  0.4160 -0.6960  0.0700
11032TIP3    H254512   3.537   6.336  13.451 -0.4728  0.1162  0.8962
11033TIP3   OH254513   2.870   3.341  16.286  0.5541  0.1474 -0.2953
11033TIP3    H154514   2.913   3.324  16.202  1.7120  2.3866 -0.2178
11033TIP3    H254515   2.942   3.369  16.344 -0.2497 -1.1379  1.4089
11034TIP3   OH254516   2.422   0.379   5.063  0.5499 -0.2155  0.0271
11034TIP3    H154517   2.370   0.321   5.007 -1.4242  1.4157  0.0064
11034TIP3    H254518   2.512   0.370   5.031  0.0271 -1.9223 -1.0793
11035TIP3   OH254519   0.904   5.724  15.740 -0.2076 -0.6688 -0.0684
11035TIP3    H154520   0.835   5.789  15.728  0.0207 -0.0875  1.5179
11035TIP3    H254521   0.985   5.773  15.730 -0.0360 -0.8809  0.2532
11036TIP3   OH254522   4.324   1.271  13.248 -0.1121  0.4091  0.3895
11036TIP3    H154523   4.260   1.206  13.276 -1.2770  0.5220 -1.7439
11036TIP3    H254524   4.277   1.354  13.252 -0.3309  0.4339 -1.6301
11037TIP3   OH254525   2.082   4.770   0.929 -0.4491  0.0653  0.4800
11037TIP3    H154526   2.146   4.835   0.901 -0.5366  0.2391  0.6833
11037TIP3    H254527   2.019   4.820   0.982 -0.9190 -0.0417  0.0284
11038TIP3   OH254528   2.143   1.054  16.601 -0.2857  0.2265 -0.6367
11038TIP3    H154529   2.113   1.140  16.572 -1.5737 -0.7433 -2.3658
11038TIP3    H254530   2.071   1.022  16.655 -0.0641 -0.0091 -0.4827
11039TIP3   OH254531   3.703   4.468   0.418  0.5576 -0.0763  0.0578
11039TIP3    H154532   3.720   4.477   0.325  1.0176 -0.3854  0.1078
11039TIP3    H254533   3.752   4.390   0.444  0.9417  0.3560  0.6741
11040TIP3   OH254534   4.918   4.102   2.382 -0.5014 -0.0514  0.4459
11040TIP3    H154535   4.865   4.024   2.403  2.1421 -2.4074 -1.0226
11040TIP3    H254536   4.985   4.104   2.450  0.1862  0.1953 -0.2319
11041TIP3   OH254537   0.020   3.757   4.314 -0.6057 -0.2027 -0.3358
11041TIP3    H154538   0.090   3.819   4.330 -0.6615 -0.2680  0.1619
11041TIP3    H254539  -0.059   3.799   4.349 -0.4516 -1.0396  1.0760
11042TIP3   OH254540   3.716   1.073  12.358  0.4283 -0.5072  0.9729
11042TIP3    H154541   3.796   1.121  12.337  0.7476 -0.7271  1.6381
11042TIP3    H254542   3.729   0.987  12.319 -0.5268  0.1972 -0.9909
11043TIP3   OH254543   3.501   2.221   3.231 -0.2370  0.1579  0.1504
11043TIP3    H154544   3.552   2.140   3.230 -2.1053 -1.1771  2.7808
11043TIP3    H254545   3.462   2.226   3.144  0.3433 -1.4838 -0.2271
11044TIP3   OH254546   3.440   5.416   0.076  0.2441  0.2112  0.5626
11044TIP3    H154547   3.374   5.455   0.134  1.1571  0.3074  1.5688
11044TIP3    H254548   3.428   5.461  -0.008 -0.2940  0.9490  1.0232
11045TIP3   OH254549   3.336   2.735   3.264  0.5863  0.1705 -0.3871
11045TIP3    H154550   3.382   2.654   3.240 -0.4766 -1.4206  2.3653
11045TIP3    H254551   3.350   2.742   3.359 -2.7719  0.8634  0.1859
11046TIP3   OH254552   5.941   0.267   3.861 -0.0182 -0.0626  0.6425
11046TIP3    H154553   5.930   0.240   3.952  0.1096 -1.0260  0.3784
11046TIP3    H254554   5.865   0.322   3.842 -0.2554 -0.1993  1.2028
11047TIP3   OH254555   3.814   4.025  11.153 -0.3012  0.0888 -0.3397
11047TIP3    H154556   3.726   3.992  11.137  0.7816 -2.2292 -2.2936
11047TIP3    H254557   3.844   4.056  11.067  0.6039  1.3947  0.4151
11048TIP3   OH254558   5.621   5.719   3.945  0.0845 -0.1390  0.0989
11048TIP3    H154559   5.715   5.707   3.962 -0.0551 -1.2061  0.1683
11048TIP3    H254560   5.613   5.812   3.924  1.2427 -0.1367 -0.4462
11049TIP3   OH254561   5.799   0.157  16.057 -0.1284  0.7373  0.6011
11049TIP3    H154562   5.762   0.222  16.117  2.0810  4.4933 -1.6825
11049TIP3    H254563   5.893   0.163  16.069  0.3052  0.4275 -1.9907
11050TIP3   OH254564   6.709   1.978  14.144  0.1531  0.4356 -0.2494
11050TIP3    H154565   6.672   1.989  14.056  2.9572  3.1418 -1.2666
11050TIP3    H254566   6.654   2.031  14.201  0.0848  1.1088 -0.9389
11051TIP3   OH254567   4.361   4.374  15.431  0.2127 -0.2537 -0.2489
11051TIP3    H154568   4.289   4.437  15.433 -0.1885 -0.5236 -2.7832
11051TIP3    H254569   4.330   4.301  15.486 -1.4875 -0.3410 -1.2500
11052TIP3   OH254570   6.024   3.623  14.596 -0.3562  0.2271 -0.2877
11052TIP3    H154571   5.994   3.565  14.526  1.7441 -0.8062 -0.3961
11052TIP3    H254572   6.070   3.694  14.550 -0.4197  0.4446 -0.0223
11053TIP3   OH254573   6.706   6.503  15.394  0.6867  0.0815 -0.6020
11053TIP3    H154574   6.666   6.462  15.471 -0.1804  1.0555 -0.5121
11053TIP3    H254575   6.797   6.519  15.419 -0.3320  3.5533  1.6374
11054TIP3   OH254576   3.105   2.669   2.290 -0.2181 -0.2121  0.1880
11054TIP3    H154577   3.013   2.644   2.289 -0.1533 -0.4808 -1.0348
11054TIP3    H254578   3.124   2.693   2.199  1.5473 -2.6161 -0.1947
11055TIP3   OH254579   0.609   5.980   5.734  0.2762 -0.3286  0.0030
11055TIP3    H154580   0.634   5.910   5.674  2.3452 -0.1552  0.5986
11055TIP3    H254581   0.606   5.939   5.820 -1.8220 -0.3811 -0.0388
11056TIP3   OH254582   0.185   5.594   3.989 -0.2421 -0.5436  0.3268
11056TIP3    H154583   0.157   5.556   4.072 -1.1049  1.0787  0.8405
11056TIP3    H254584   0.181   5.689   4.004 -0.5049 -0.2078 -1.5857
11057TIP3   OH254585   6.473   4.856  12.529 -0.0773 -0.0108  0.4093
11057TIP3    H154586   6.532   4.893  12.594 -1.5092 -0.9691  2.3627
11057TIP3    H254587   6.424   4.789  12.576 -3.6906  1.6226 -0.6774
11058TIP3   OH254588   0.647   2.410   2.916 -0.2692  0.9021 -0.2538
11058TIP3    H154589   0.737   2.436   2.897 -0.2726  0.6160 -0.6722
11058TIP3    H254590   0.646   2.315   2.903 -0.7433  0.9673 -0.7125
11059TIP3   OH254591   2.797   3.854  14.956  0.0376  0.0102 -0.3436
11059TIP3    H154592   2.847   3.797  15.014 -0.0446  0.3224  0.0375
11059TIP3    H254593   2.788   3.936  15.005  0.9260  0.6656 -1.2408
11060TIP3   OH254594   0.884   0.315  15.571  0.3398  0.3044  0.4348
11060TIP3    H154595   0.962   0.372  15.578  0.2795  0.1889  2.5629
11060TIP3    H254596   0.918   0.226  15.582  0.2767 -0.0526 -1.7699
11061TIP3   OH254597   4.879   4.145   0.392  0.2158 -0.5701  0.4596
11061TIP3    H154598   4.798   4.189   0.365  0.0684 -0.7746  0.5632
11061TIP3    H254599   4.939   4.217   0.415  0.5679 -0.3681 -1.0053
11062TIP3   OH254600   5.583   2.823   2.744  0.5068 -0.3578  0.3370
11062TIP3    H154601   5.548   2.865   2.665 -0.0654 -1.7765 -0.1942
11062TIP3    H254602   5.601   2.896   2.803 -3.2094  0.5699  0.6059
11063TIP3   OH254603   1.865   1.638  16.792 -0.1497  0.2560  0.3254
11063TIP3    H154604   1.780   1.656  16.752 -0.9408  0.1508  1.8867
11063TIP3    H254605   1.880   1.711  16.852  0.1450 -0.4533  1.1456
11064TIP3   OH254606   5.706   2.500  11.763 -0.0867  0.5786  0.0024
11064TIP3    H154607   5.706   2.473  11.855  0.4381  2.7184  0.6896
11064TIP3    H254608   5.796   2.527  11.746 -0.4519  1.3779 -0.7552
11065TIP3   OH254609   2.774   0.814   5.519  0.2076  0.1850  0.2227
11065TIP3    H154610   2.738   0.870   5.450 -0.6230 -0.2878  0.2583
11065TIP3    H254611   2.850   0.773   5.478  0.9873  1.5195  0.2848
11066TIP3   OH254612   0.077   1.267  13.758  0.2778 -0.2464  0.1658
11066TIP3    H154613   0.139   1.195  13.758 -0.5048 -0.9649 -1.4485
11066TIP3    H254614   0.021   1.251  13.682  0.5644  2.4801 -0.7270
11067TIP3   OH254615   2.652   3.316   0.197  0.0639 -0.0149 -0.2447
11067TIP3    H154616   2.665   3.222   0.192  0.4105 -0.1009  1.7305
11067TIP3    H254617   2.740   3.353   0.195 -0.0952  0.4243 -2.5090
11068TIP3   OH254618   3.204   3.251   5.989  0.8229  0.0161  0.1281
11068TIP3    H154619   3.268   3.315   5.957 -0.3749  0.9272 -0.5262
11068TIP3    H254620   3.179   3.200   5.912  2.0716 -1.5615  0.7211
11069TIP3   OH254621   0.950   2.765  10.800 -0.4266  0.5423  0.4898
11069TIP3    H154622   0.956   2.815  10.882 -1.5072 -1.9004  2.1783
11069TIP3    H254623   0.875   2.803  10.754 -0.1653  1.5696  0.8836
11070TIP3   OH254624   5.394   2.241   4.554  0.7836 -0.6695  0.1693
11070TIP3    H154625   5.456   2.285   4.612  1.5504 -1.9575  0.3789
11070TIP3    H254626   5.315   2.229   4.607 -0.2997  2.3504 -0.5676
11071TIP3   OH254627   0.380   5.278   0.092  0.5861 -0.6663  0.0763
11071TIP3    H154628   0.429   5.344   0.141 -1.1427  0.3771  0.4757
11071TIP3    H254629   0.380   5.201   0.149  0.7941 -0.3153  0.5623
11072TIP3   OH254630   6.704   4.934   3.459  0.1652  0.0840 -0.2445
11072TIP3    H154631   6.666   4.940   3.546 -2.3705 -2.2218 -1.0645
11072TIP3    H254632   6.794   4.906   3.473  0.6250  2.2155  1.6463
11073TIP3   OH254633   2.094   5.275   4.500  0.3485 -0.5177 -0.0548
11073TIP3    H154634   2.012   5.242   4.535  0.2028 -2.2548 -1.8895
11073TIP3    H254635   2.068   5.334   4.429  0.6791 -0.6299 -0.2709
11074TIP3   OH254636   2.214   0.373  16.595  0.0226 -0.3670  0.2778
11074TIP3    H154637   2.303   0.354  16.564 -1.1944 -1.9694 -2.5873
11074TIP3    H254638   2.198   0.463  16.566 -0.1859 -0.9850 -1.6441
11075TIP3   OH254639   6.707   1.481   5.423 -0.2208  0.1502  0.5250
11075TIP3    H154640   6.638   1.435   5.374  1.7133 -0.0361 -2.2677
11075TIP3    H254641   6.758   1.412   5.464 -0.7889  0.2090  1.3581
11076TIP3   OH254642   3.637   6.044  14.957  0.1518  0.3618 -0.1841
11076TIP3    H154643   3.583   6.019  14.881 -0.4404 -1.8942  0.8818
11076TIP3    H254644   3.726   6.051  14.923 -0.3151  0.8535 -1.3492
11077TIP3   OH254645   1.729   6.395   5.673 -0.1363  0.0078  0.0082
11077TIP3    H154646   1.736   6.328   5.604 -0.7925  0.6010 -0.6614
11077TIP3    H254647   1.656   6.365   5.728  2.0451 -1.8609  2.0843
11078TIP3   OH254648   5.293   5.409  13.268 -0.1759 -0.1929  0.5178
11078TIP3    H154649   5.362   5.383  13.207  2.2197  0.8934  2.5381
11078TIP3    H254650   5.271   5.329  13.316  0.9392 -0.2611  0.9544
11079TIP3   OH254651   1.685   2.829  12.132 -0.2071  0.0858 -0.3993
11079TIP3    H154652   1.599   2.871  12.139 -0.2246 -0.1532  1.3155
11079TIP3    H254653   1.706   2.803  12.221  0.5278 -2.1361 -1.1526
11080TIP3   OH254654   2.051   3.108   5.369  0.5009 -0.3287  0.0212
11080TIP3    H154655   2.145   3.095   5.357  0.7854  1.6589 -0.1906
11080TIP3    H254656   2.014   3.020   5.360  2.1520 -0.9350 -1.6245
11081TIP3   OH254657   4.892   4.653  11.516 -0.5260 -0.1391 -0.3876
11081TIP3    H154658   4.825   4.586  11.500 -1.4094  0.6321 -0.0231
11081TIP3    H254659   4.867   4.726  11.460 -0.6886  0.6056  0.6182
11082TIP3   OH254660   2.219   5.273   4.917 -0.0485 -0.3663 -0.1964
11082TIP3    H154661   2.230   5.351   4.863  0.6129 -0.6425 -0.4727
11082TIP3    H254662   2.229   5.304   5.007 -3.0022  0.4370 -0.0508
11083TIP3   OH254663   0.989   5.331   0.521  0.2219 -0.4285 -0.1006
11083TIP3    H154664   0.937   5.273   0.466  0.0284 -1.9419  1.5738
11083TIP3    H254665   0.960   5.419   0.498 -1.8606 -1.1413 -0.4236
11084TIP3   OH254666   3.691   0.497  11.344  0.2056 -0.1944 -0.3764
11084TIP3    H154667   3.734   0.437  11.405  0.3030  0.4871  0.2352
11084TIP3    H254668   3.626   0.443  11.299  0.9350 -0.9793 -0.5275
11085TIP3   OH254669   3.848   5.811   4.512 -0.0621 -0.3889 -0.3017
11085TIP3    H154670   3.914   5.879   4.503 -1.1759  0.7673  0.0714
11085TIP3    H254671   3.898   5.732   4.535  1.2497  0.2599 -0.8367
11086TIP3   OH254672   3.828   6.386   0.483 -0.9553  0.6877 -0.1106
11086TIP3    H154673   3.897   6.351   0.539 -0.3842  1.1846 -0.4950
11086TIP3    H254674   3.780   6.447   0.539  0.4250  2.1891 -0.4932
11087TIP3   OH254675   1.636   5.181   3.168  0.4157  0.5627 -0.0685
11087TIP3    H154676   1.695   5.256   3.179  1.1180 -0.1465  1.2486
11087TIP3    H254677   1.549   5.217   3.186  0.6037  1.2860 -0.5268
11088TIP3   OH254678   4.722   5.780  17.010 -0.0343 -0.0270 -0.0103
11088TIP3    H154679   4.660   5.707  17.008 -0.7225  0.4766  1.6380
11088TIP3    H254680   4.722   5.814  16.920 -2.0653 -0.1300 -0.0959
11089TIP3   OH254681   6.501   6.802   1.349 -1.1553  0.1690  0.4263
11089TIP3    H154682   6.431   6.769   1.405 -0.2739 -2.5180  0.1183
11089TIP3    H254683   6.458   6.860   1.287 -2.8741 -0.3545  1.0819
11090TIP3   OH254684   1.140   1.846  14.698 -0.1509  0.1389 -0.1540
11090TIP3    H154685   1.174   1.833  14.609  0.3673  2.0398 -0.2726
11090TIP3    H254686   1.060   1.793  14.700 -1.7093  2.0996 -2.7468
11091TIP3   OH254687   4.162   1.399   4.412 -0.0095  0.6993  0.4038
11091TIP3    H154688   4.185   1.321   4.361 -0.8162  1.0173 -0.4841
11091TIP3    H254689   4.149   1.366   4.501 -0.9360 -0.3147 -0.0726
11092TIP3   OH254690   4.448   6.267  14.453 -0.1865 -0.3964  0.8961
11092TIP3    H154691   4.495   6.260  14.370 -1.1738  0.6393  0.2152
11092TIP3    H254692   4.374   6.324  14.434 -0.6636 -0.4599  2.4028
11093TIP3   OH254693   6.308   0.958   4.461  0.3546 -0.1052 -0.4929
11093TIP3    H154694   6.401   0.972   4.448  0.3073  0.1215 -0.6065
11093TIP3    H254695   6.300   0.866   4.486  0.4803 -0.5223 -1.8922
11094TIP3   OH254696   6.077   0.752   4.291 -0.1645  0.0691  0.7277
11094TIP3    H154697   6.160   0.797   4.277  0.2206 -0.8900 -0.1939
11094TIP3    H254698   6.013   0.804   4.242 -0.2100  1.0541  1.7912
11095TIP3   OH254699   5.203   5.548   1.223  0.5657 -0.1988  0.7474
11095TIP3    H154700   5.113   5.520   1.202  0.5105 -0.1865  0.9661
11095TIP3    H254701   5.255   5.468   1.216  0.6605 -0.0747 -0.0718
11096TIP3   OH254702   6.414   1.889   2.945 -0.6433 -0.3834  0.5097
11096TIP3    H154703   6.477   1.960   2.929 -1.0407 -0.2596 -0.6411
11096TIP3    H254704   6.437   1.822   2.880 -1.4684 -0.4783  0.3010
11097TIP3   OH254705   1.836   2.824  11.629  0.1837  0.4386  0.0631
11097TIP3    H154706   1.905   2.876  11.671  0.9403  0.0696 -0.6815
11097TIP3    H254707   1.802   2.881  11.560  0.5993  0.1742 -0.3648
11098TIP3   OH254708   5.621   5.636   3.621 -0.4541  0.9650 -0.1366
11098TIP3    H154709   5.599   5.693   3.695  2.2442  0.6844  0.9888
11098TIP3    H254710   5.711   5.658   3.599  0.2917 -1.9467 -0.4547
11099TIP3   OH254711   3.358   5.955   0.692  0.1447 -0.1093 -0.6277
11099TIP3    H154712   3.318   5.998   0.768  1.0595 -2.3455  1.2356
11099TIP3    H254713   3.435   6.009   0.672  0.9831 -0.5203  1.3085
11100TIP3   OH254714   0.630   6.621  15.475  0.2066 -0.1387  0.1479
11100TIP3    H154715   0.542   6.608  15.440  0.0823  0.7769  0.1027
11100TIP3    H254716   0.688   6.584  15.409 -0.1688 -2.0426  0.8029
11101TIP3   OH254717   4.508   5.701  16.651  0.5432 -0.4009  0.5144
11101TIP3    H154718   4.546   5.714  16.564 -1.5995 -0.4539 -0.4743
11101TIP3    H254719   4.565   5.752  16.709  0.9495  1.1660 -1.1756
11102TIP3   OH254720   5.129   1.903  13.050  0.0176  0.1017 -0.1673
11102TIP3    H154721   5.044   1.873  13.083 -0.0598  0.5533  0.0417
11102TIP3    H254722   5.111   1.935  12.962  0.2842 -1.4246 -0.8126
11103TIP3   OH254723   2.400   1.367   0.363  0.1707  0.3763 -0.4682
11103TIP3    H154724   2.488   1.336   0.339  1.4230  2.9423  0.3670
11103TIP3    H254725   2.415   1.423   0.439 -2.5075 -0.6000  0.9253
11104TIP3   OH254726   2.596   6.667   1.489  0.1063 -1.0408 -0.3404
11104TIP3    H154727   2.504   6.672   1.461  0.0973 -1.6392 -0.4374
11104TIP3    H254728   2.646   6.686   1.409  0.0718  0.0856 -0.1099
11105TIP3   OH254729   5.316   4.992  12.218 -0.7766  0.1302  0.4496
11105TIP3    H154730   5.389   5.019  12.164  0.3443 -0.5394  1.5680
11105TIP3    H254731   5.305   5.063  12.282 -1.6807  0.6264 -0.2394
11106TIP3   OH254732   2.572   0.478   0.522 -0.4553 -0.4369 -0.3047
11106TIP3    H154733   2.656   0.432   0.519 -0.1405  0.0496  0.7708
11106TIP3    H254734   2.575   0.538   0.447  1.4696  1.7549  1.3628
11107TIP3   OH254735   6.762   6.186  13.486 -0.4004 -0.4094  0.0931
11107TIP3    H154736   6.729   6.249  13.551 -2.0497 -0.5590 -0.5560
11107TIP3    H254737   6.692   6.121  13.478 -1.2065  0.6701 -3.2788
11108TIP3   OH254738   2.015   6.099  14.664 -0.3389 -0.0470  1.3299
11108TIP3    H154739   2.072   6.038  14.711  0.5552 -0.8024 -0.6074
11108TIP3    H254740   2.073   6.139  14.598 -1.8952 -0.3655 -0.3034
11109TIP3   OH254741   3.578   3.223  12.315  0.2965  0.8139  0.2542
11109TIP3    H154742   3.571   3.271  12.233 -0.7683  1.0434  0.4605
11109TIP3    H254743   3.528   3.275  12.378 -0.0068 -0.0243  0.7339
11110TIP3   OH254744   4.064   0.495  13.328 -0.4194  0.0169  0.4137
11110TIP3    H154745   4.150   0.524  13.296 -0.9644  0.7175 -0.4288
11110TIP3    H254746   4.002   0.559  13.295 -1.2648 -0.3644  1.1935
11111TIP3   OH254747   5.557   4.581   4.870 -0.4904  0.6217 -0.1736
11111TIP3    H154748   5.616   4.643   4.828  2.3017 -1.6125  0.1565
11111TIP3    H254749   5.556   4.607   4.962  1.8483 -0.5417  0.2500
11112TIP3   OH254750   5.379   6.772  12.357 -0.3864  0.5611  0.1844
11112TIP3    H154751   5.297   6.734  12.388 -0.6409 -0.2393 -1.3749
11112TIP3    H254752   5.353   6.841  12.296  0.1046  1.2823  0.7663
11113TIP3   OH254753   5.419   0.316   1.372 -0.2486  0.6126 -0.5165
11113TIP3    H154754   5.428   0.401   1.415  1.6775  0.8161 -1.1855
11113TIP3    H254755   5.348   0.273   1.418  0.3364  1.6309  1.4638
11114TIP3   OH254756   3.657   0.245  10.259  0.0973  0.5435  0.1671
11114TIP3    H154757   3.734   0.291  10.291  0.4371 -0.0735  0.2592
11114TIP3    H254758   3.689   0.193  10.185  0.6286 -2.5078  2.3339
11115TIP3   OH254759   6.079   4.651  13.117  0.0785 -0.8397  0.1444
11115TIP3    H154760   6.167   4.624  13.142  0.2084 -0.7401 -0.2132
11115TIP3    H254761   6.061   4.726  13.174 -0.6790 -2.2693  1.8667
11116TIP3   OH254762   5.325   5.304   3.769 -0.2672  0.0964  0.1422
11116TIP3    H154763   5.351   5.380   3.717  1.3893 -0.8251 -0.4707
11116TIP3    H254764   5.304   5.339   3.855 -0.5654  1.3592 -0.4322
11117TIP3   OH254765   6.285   2.480   0.717  0.3587  0.5484 -0.0296
11117TIP3    H154766   6.278   2.530   0.636 -1.6796  1.6009  0.7169
11117TIP3    H254767   6.348   2.528   0.771  0.9568  0.3966 -0.5797
11118TIP3   OH254768   0.596   4.007  11.354 -0.3245  0.1836 -0.1628
11118TIP3    H154769   0.505   4.025  11.375 -0.6636  0.1709 -1.5103
11118TIP3    H254770   0.644   4.082  11.389 -0.9679  0.6368 -0.2328
11119TIP3   OH254771   0.274   4.938   5.139 -0.4441  0.3280 -0.3124
11119TIP3    H154772   0.203   4.933   5.076 -1.1984 -0.8307  0.5696
11119TIP3    H254773   0.236   4.983   5.215  0.4870  1.8362 -0.7028
11120TIP3   OH254774   0.937   6.760  16.705 -0.1477 -0.1178  0.2490
11120TIP3    H154775   0.952   6.700  16.632  1.6562 -1.2789  1.4728
11120TIP3    H254776   0.848   6.742  16.733  0.2764 -2.1957  0.4552
11121TIP3   OH254777   2.215   1.702   0.418  0.9620  0.2107 -0.1648
11121TIP3    H154778   2.203   1.607   0.408  2.0777  0.0789 -0.4497
11121TIP3    H254779   2.281   1.724   0.352 -0.9056  1.5986 -1.6684
11122TIP3   OH254780   3.223   2.628   0.752 -0.1975  0.2379  0.0818
11122TIP3    H154781   3.189   2.539   0.756 -0.1267  0.1272 -1.4176
11122TIP3    H254782   3.145   2.684   0.748 -0.2473  0.0665 -1.8685
11123TIP3   OH254783   2.736   4.579  14.509 -0.0508 -0.2903  0.0029
11123TIP3    H154784   2.728   4.649  14.444 -2.3001  0.3969  0.9583
11123TIP3    H254785   2.774   4.621  14.586 -0.4214 -0.3727  0.2300
11124TIP3   OH254786   4.033   0.147  14.519 -0.4326  0.4070  0.0823
11124TIP3    H154787   4.083   0.066  14.507 -1.2744 -0.1217  0.0491
11124TIP3    H254788   3.947   0.127  14.482 -0.5164  1.4606 -0.3063
11125TIP3   OH254789   4.386   5.438  16.685  0.0922 -0.0400  0.5687
11125TIP3    H154790   4.463   5.495  16.686  2.0476 -2.5158  0.8736
11125TIP3    H254791   4.348   5.449  16.772  0.8744  0.2261  0.8895
11126TIP3   OH254792   2.617   3.397   4.683 -0.3017 -0.4392 -0.5479
11126TIP3    H154793   2.578   3.438   4.606  0.3015 -0.2197 -0.7440
11126TIP3    H254794   2.607   3.462   4.753  1.0671  0.2750 -0.9676
11127TIP3   OH254795   2.817   0.635   2.837  0.4137 -0.1555 -0.3740
11127TIP3    H154796   2.876   0.661   2.907 -0.7693 -0.5253  0.8003
11127TIP3    H254797   2.864   0.565   2.790  0.9801 -0.3028  0.4000
11128TIP3   OH254798   1.512   0.964   4.296 -0.2099  0.7127  0.0152
11128TIP3    H154799   1.453   0.909   4.246  1.2091 -2.2830  1.3831
11128TIP3    H254800   1.455   1.027   4.340 -2.1721 -0.8305 -0.1802
11129TIP3   OH254801   3.480   5.299   0.854 -1.0048 -0.2312 -0.1714
11129TIP3    H154802   3.472   5.223   0.796 -1.9901 -1.1565  1.1128
11129TIP3    H254803   3.394   5.340   0.852 -0.3542  1.1546 -1.1997
11130TIP3   OH254804   2.591   2.208  11.515  0.2220 -0.4041  0.5107
11130TIP3    H154805   2.600   2.241  11.426  1.2191 -0.7812  0.4634
11130TIP3    H254806   2.507   2.162  11.515 -0.0132  0.0110 -0.0919
11131TIP3   OH254807   1.995   4.508   3.976  0.0289 -0.5686 -0.3357
11131TIP3    H154808   1.904   4.535   3.964  0.0878 -0.2382 -0.0606
11131TIP3    H254809   1.991   4.414   3.993 -0.2978 -0.4785  0.1031
11132TIP3   OH254810   4.588   0.145   2.921  0.4924 -0.2197 -0.3227
11132TIP3    H154811   4.666   0.198   2.935  0.8412 -0.8366  0.1662
11132TIP3    H254812   4.517   0.208   2.907  0.7227  0.4133  1.1438
11133TIP3   OH254813   0.245   5.714   6.316  0.2396  0.3838  0.0914
11133TIP3    H154814   0.268   5.804   6.340  0.7736  0.0271  0.9592
11133TIP3    H254815   0.316   5.687   6.258  0.8919  0.0275  1.0276
11134TIP3   OH254816   3.433   2.277   3.495 -0.3613  0.8353  0.1430
11134TIP3    H154817   3.440   2.372   3.504  0.0061  0.9143 -0.8551
11134TIP3    H254818   3.440   2.262   3.401 -1.4021 -0.1064  0.2026
11135TIP3   OH254819   4.737   4.959  12.263 -0.0029 -0.4043  0.2030
11135TIP3    H154820   4.806   5.001  12.213  0.1610 -0.5063  0.3408
11135TIP3    H254821   4.712   5.023  12.329  0.3366 -0.5671  0.4955
11136TIP3   OH254822   4.524   3.619  11.527  0.3228 -0.1552  0.2746
11136TIP3    H154823   4.574   3.684  11.576  1.7913 -0.0840 -1.2524
11136TIP3    H254824   4.460   3.586  11.590 -0.4503  2.6851  1.1232
11137TIP3   OH254825   3.696   0.172   0.391  0.4265  0.0326  0.3991
11137TIP3    H154826   3.725   0.081   0.386  0.6793 -0.0286  2.2947
11137TIP3    H254827   3.699   0.193   0.484  0.0765  1.8975  0.0245
11138TIP3   OH254828   3.706   5.176   5.432 -0.3355 -0.2635 -0.4546
11138TIP3    H154829   3.645   5.102   5.433 -0.2897 -0.2955  0.3966
11138TIP3    H254830   3.786   5.140   5.394 -0.4363 -0.5543 -0.3976
11139TIP3   OH254831   5.262   4.737  13.537  0.8559  0.0675 -0.4944
11139TIP3    H154832   5.307   4.684  13.603  0.4947 -0.1072 -0.3860
11139TIP3    H254833   5.296   4.705  13.454 -1.3652 -2.3141 -0.6137
11140TIP3   OH254834   4.770   2.846   5.023  0.0216 -0.3061 -0.3068
11140TIP3    H154835   4.727   2.790   4.959 -0.6875 -0.0616 -0.0605
11140TIP3    H254836   4.702   2.909   5.049  0.9256  1.0042 -0.9693
11141TIP3   OH254837   1.403   5.211  14.569  0.4258  0.1818  0.4854
11141TIP3    H154838   1.403   5.173  14.481 -1.0345  0.2866  0.4187
11141TIP3    H254839   1.446   5.145  14.624 -0.4635 -0.7870  0.0471
11142TIP3   OH254840   4.374   5.382  13.075 -0.2056  0.3715 -0.0491
11142TIP3    H154841   4.398   5.427  13.156  0.0413  0.8736 -0.3953
11142TIP3    H254842   4.391   5.447  13.006  0.3557 -0.3272 -0.5748
11143TIP3   OH254843   2.058   0.811  16.219 -0.1824 -0.1680 -0.6596
11143TIP3    H154844   2.143   0.824  16.263 -1.0907  1.4789  0.7690
11143TIP3    H254845   2.037   0.719  16.233  1.4010 -0.6319 -1.1328
11144TIP3   OH254846   4.015   0.167  16.545 -0.0976 -0.1493 -0.1943
11144TIP3    H154847   4.040   0.188  16.455 -1.0505  0.3766 -0.3495
11144TIP3    H254848   3.928   0.207  16.556 -0.6052 -1.3912  0.5076
11145TIP3   OH254849   3.339   0.335   1.086  0.2191  0.7201 -0.0031
11145TIP3    H154850   3.329   0.301   1.175 -0.1223  1.1687  0.1319
11145TIP3    H254851   3.319   0.428   1.093  1.6471  1.0739 -0.2708
11146TIP3   OH254852   0.853   3.859   2.769 -0.8025 -0.4534  0.3549
11146TIP3    H154853   0.839   3.786   2.828  0.4827 -0.1396  1.0730
11146TIP3    H254854   0.885   3.819   2.688  0.3073 -0.6821  0.8871
11147TIP3   OH254855   3.655   2.374   1.600 -0.2535  0.1390  0.4934
11147TIP3    H154856   3.714   2.449   1.607 -0.1163  0.2874 -1.5921
11147TIP3    H254857   3.570   2.412   1.580 -0.2727 -0.2166 -0.1480
11148TIP3   OH254858   4.782   3.057   3.313 -0.3310  0.0974  0.4642
11148TIP3    H154859   4.740   3.009   3.384  0.5820 -1.2636  0.1286
11148TIP3    H254860   4.711   3.077   3.252 -1.3376  2.2933  2.2164
11149TIP3   OH254861   4.886   4.697   6.280  0.3564  0.2219  0.3264
11149TIP3    H154862   4.864   4.606   6.300  0.1188  0.2801  0.3358
11149TIP3    H254863   4.802   4.739   6.263  0.5346  0.2276 -0.5808
11150TIP3   OH254864   2.640   5.263  15.878 -0.7382 -0.3734 -0.2085
11150TIP3    H154865   2.693   5.270  15.799 -0.2466 -0.0788  0.1432
11150TIP3    H254866   2.551   5.280  15.849 -0.3447  1.5902 -0.3895
11151TIP3   OH254867   5.522   5.388   4.902  0.5614 -0.0110  0.3054
11151TIP3    H154868   5.434   5.352   4.888  0.7023 -0.5535  0.7523
11151TIP3    H254869   5.510   5.482   4.905  0.2566  0.0423 -1.5029
11152TIP3   OH254870   0.481   0.901   2.060 -0.0243 -0.6181  0.3109
11152TIP3    H154871   0.541   0.857   2.120  0.6135 -0.4250 -0.1778
11152TIP3    H254872   0.450   0.832   2.001  1.2527 -0.3752 -0.6834
11153TIP3   OH254873   6.284   2.240  13.022 -0.1113  0.4482  0.1855
11153TIP3    H154874   6.253   2.158  13.060  0.1584  0.0016 -0.5391
11153TIP3    H254875   6.379   2.236  13.030 -0.0098  0.1157 -0.9553
11154TIP3   OH254876   3.859   0.268   3.840  0.2358 -0.2185  0.3738
11154TIP3    H154877   3.867   0.174   3.858  0.4783 -0.8196 -2.3668
11154TIP3    H254878   3.948   0.302   3.850  0.9205 -1.0703 -1.9686
11155TIP3   OH254879   4.725   3.565   2.866 -0.4702  0.2874  0.0433
11155TIP3    H154880   4.668   3.506   2.914 -1.2624  0.9974  0.0018
11155TIP3    H254881   4.669   3.604   2.798  0.9060 -1.6280 -2.3568
11156TIP3   OH254882   6.736   6.769   6.284  0.1501 -0.6889 -0.1391
11156TIP3    H154883   6.810   6.755   6.344 -0.6231  1.5388  1.4816
11156TIP3    H254884   6.662   6.788   6.342 -0.5347  2.1277 -1.7471
11157TIP3   OH254885   6.402   6.159   2.801 -0.2670  0.0658  0.5226
11157TIP3    H154886   6.466   6.182   2.734 -1.9601  0.7840 -0.9272
11157TIP3    H254887   6.417   6.222   2.871 -0.0163  0.8443 -0.2190
11158TIP3   OH254888   0.381   3.406   2.663 -0.2097 -0.1634 -0.2617
11158TIP3    H154889   0.438   3.432   2.591  0.9596 -2.1321 -0.1168
11158TIP3    H254890   0.374   3.311   2.656 -2.6206 -0.1088  0.4037
11159TIP3   OH254891   2.679   3.421  16.841 -0.2228  0.0362 -0.7034
11159TIP3    H154892   2.644   3.499  16.798 -1.9324 -0.0873  0.3638
11159TIP3    H254893   2.603   3.363  16.850  0.5008 -0.7411  0.6627
11160TIP3   OH254894   3.571   5.136   1.991  0.2758  0.1320 -0.1706
11160TIP3    H154895   3.544   5.128   1.900  1.4650  1.4426 -0.6900
11160TIP3    H254896   3.666   5.128   1.989  0.3780  0.7742  0.8552
11161TIP3   OH254897   6.536   1.781   3.328  0.1933  0.3825  0.1741
11161TIP3    H154898   6.612   1.814   3.280  0.1658 -2.0365 -1.7167
11161TIP3    H254899   6.472   1.852   3.323  0.9841  1.0231 -1.5681
11162TIP3   OH254900   3.183   1.750   3.688  0.0777 -0.3219 -0.0844
11162TIP3    H154901   3.099   1.797   3.688  1.2310  1.8978 -0.2161
11162TIP3    H254902   3.240   1.805   3.633  1.3606 -2.2999 -0.8294
11163TIP3   OH254903   5.332   6.719  11.720  0.1468 -0.3532  0.3498
11163TIP3    H154904   5.315   6.809  11.691  0.6228  0.2405  1.8246
11163TIP3    H254905   5.275   6.665  11.665  0.1193  0.8082 -0.8136
11164TIP3   OH254906   5.121   2.872   2.133 -0.3379  0.0130 -0.6049
11164TIP3    H154907   5.078   2.786   2.131 -1.0623  0.3722 -1.2580
11164TIP3    H254908   5.214   2.852   2.147 -0.6603 -0.7992  0.5736
11165TIP3   OH254909   0.037   0.799  11.353  0.5115 -0.1217 -0.9725
11165TIP3    H154910   0.069   0.848  11.277 -0.2648 -0.1616 -1.3359
11165TIP3    H254911   0.108   0.805  11.417  0.9878  0.3057 -1.5278
11166TIP3   OH254912   1.764   1.663  13.883 -0.2010 -0.0233 -0.0390
11166TIP3    H154913   1.727   1.609  13.953  0.1905  0.1893  0.3390
11166TIP3    H254914   1.856   1.672  13.907 -0.2316  0.6915 -0.1710
11167TIP3   OH254915   5.274   5.933   2.942 -0.0658  0.3827 -0.0839
11167TIP3    H154916   5.301   5.850   2.982  1.1228  1.3891  1.3470
11167TIP3    H254917   5.273   5.916   2.848 -3.1515 -2.1621  0.2216
11168TIP3   OH254918   5.199   4.508  10.767 -0.2990 -0.4922 -0.3232
11168TIP3    H154919   5.104   4.513  10.777 -0.2677  0.7569 -0.4263
11168TIP3    H254920   5.230   4.467  10.847 -0.7394  1.3653  0.8573
11169TIP3   OH254921   2.252   1.708  13.190 -0.5835  0.1883  0.2724
11169TIP3    H154922   2.251   1.647  13.263 -1.8219  0.3429  0.3961
11169TIP3    H254923   2.345   1.728  13.177 -0.3420  0.1107  1.7469
11170TIP3   OH254924   1.949   5.514  13.721  0.0611 -0.6947 -0.0785
11170TIP3    H154925   1.943   5.589  13.662  2.4802 -0.4326 -0.0915
11170TIP3    H254926   1.919   5.439  13.669  0.0842 -0.1322 -0.9078
11171TIP3   OH254927   4.854   2.081   1.311  0.0463  0.4793 -1.1401
11171TIP3    H154928   4.814   2.159   1.350 -0.0602  0.2047 -0.6916
11171TIP3    H254929   4.872   2.024   1.385 -0.6882 -0.2940 -1.5445
11172TIP3   OH254930   5.180   0.480  11.320  0.2492 -0.0145  0.1472
11172TIP3    H154931   5.087   0.455  11.317 -0.3416  2.0238 -2.2774
11172TIP3    H254932   5.191   0.523  11.404 -0.9565 -0.4279  0.5398
11173TIP3   OH254933   2.547   6.387   6.279  0.0907  0.0135 -0.1507
11173TIP3    H154934   2.483   6.442   6.233 -0.8054 -0.4229  0.5591
11173TIP3    H254935   2.573   6.439   6.355  0.2890  0.0189 -0.2204
11174TIP3   OH254936   3.563   2.266   2.418  0.0319 -0.0848  0.2373
11174TIP3    H154937   3.607   2.181   2.413  0.8431  0.3646 -0.5878
11174TIP3    H254938   3.479   2.247   2.459  0.1725 -1.3009  0.0095
11175TIP3   OH254939   3.529   2.406  10.959 -0.5201  0.1610  0.1799
11175TIP3    H154940   3.553   2.399  10.866 -1.5300  0.2125 -0.0927
11175TIP3    H254941   3.434   2.396  10.960 -0.4280 -0.8129  1.3210
11176TIP3   OH254942   1.333   5.569   1.692 -0.7110 -0.0300  0.9573
11176TIP3    H154943   1.294   5.532   1.771 -1.6288  0.2470  0.6454
11176TIP3    H254944   1.368   5.654   1.719  0.3741 -0.5986  1.4090
11177TIP3   OH254945   5.269   2.399   0.608 -0.4967 -0.3228  0.4210
11177TIP3    H154946   5.296   2.307   0.597 -1.3187 -0.7593  1.7507
11177TIP3    H254947   5.262   2.410   0.703 -0.1717  1.2054  0.2871
11178TIP3   OH254948   6.258   1.792  12.040  0.1015 -0.6576 -0.1468
11178TIP3    H154949   6.234   1.861  11.979  0.5336 -0.8777 -0.5676
11178TIP3    H254950   6.288   1.720  11.985 -0.3117 -1.1671  0.2909
11179TIP3   OH254951   1.763   1.705  12.840  0.7068 -0.9004  0.9488
11179TIP3    H154952   1.838   1.764  12.849  0.7177 -0.6031 -0.8780
11179TIP3    H254953   1.687   1.762  12.833  0.0566 -1.1980  3.9841
11180TIP3   OH254954   3.065   3.983   2.408 -0.6263 -0.1221 -0.4271
11180TIP3    H154955   3.144   3.942   2.373 -0.3334  1.0146 -1.1324
11180TIP3    H254956   3.061   3.952   2.498  2.8091  2.7284  0.9602
11181TIP3   OH254957   3.728   3.534   3.688  0.2058  0.3111  0.1174
11181TIP3    H154958   3.737   3.611   3.745  0.1001  0.4584 -0.0615
11181TIP3    H254959   3.716   3.461   3.749 -0.4953  0.5484  0.2820
11182TIP3   OH254960   5.168   5.138  14.947  0.5393 -0.1303 -0.4793
11182TIP3    H154961   5.114   5.087  14.886 -1.0466  0.8916  0.0136
11182TIP3    H254962   5.182   5.079  15.022  1.7125 -1.0549 -1.3833
11183TIP3   OH254963   6.015   4.524   3.284 -0.6016  0.5508  0.3803
11183TIP3    H154964   6.056   4.595   3.333 -0.6440  0.1659  0.9755
11183TIP3    H254965   5.933   4.561   3.251 -0.7721  0.6853  0.9530
11184TIP3   OH254966   6.514   4.380   3.987 -0.2551  0.8563  0.0452
11184TIP3    H154967   6.497   4.461   3.938 -0.2745  0.6277 -0.3312
11184TIP3    H254968   6.463   4.390   4.067  1.8639  2.4334  1.2965
11185TIP3   OH254969   2.819   0.172  14.027 -0.0541  0.0030 -0.1456
11185TIP3    H154970   2.859   0.235  14.087 -2.7399  0.4691  1.3126
11185TIP3    H254971   2.838   0.086  14.067 -1.2502  0.2704  1.0821
11186TIP3   OH254972   4.867   0.960   3.728  0.0637  0.1333  0.3008
11186TIP3    H154973   4.829   1.006   3.803 -0.3696 -0.3580  0.3873
11186TIP3    H254974   4.793   0.915   3.687 -0.1255  2.1036 -1.7057
11187TIP3   OH254975   2.149   4.049  13.449 -0.0541  0.2956 -0.1501
11187TIP3    H154976   2.189   4.044  13.363 -0.2160 -0.4431 -0.1820
11187TIP3    H254977   2.160   4.141  13.475 -2.1512  1.1615 -1.9839
11188TIP3   OH254978   4.901   1.592  17.121  0.4905  0.1891 -0.1825
11188TIP3    H154979   4.861   1.538  17.052 -1.1862 -0.6213  1.3342
11188TIP3    H254980   4.873   1.681  17.101  1.3509  0.1985 -1.4193
11189TIP3   OH254981   6.520   4.089  12.619 -0.2569 -0.0624  0.5770
11189TIP3    H154982   6.462   4.040  12.678 -2.0211  0.9763 -0.1988
11189TIP3    H254983   6.538   4.027  12.547 -1.7619  0.0965  0.0279
11190TIP3   OH254984   3.400   5.494  15.078  0.2139  0.9781 -0.7162
11190TIP3    H154985   3.352   5.418  15.112  2.1510  0.3484  0.8245
11190TIP3    H254986   3.351   5.569  15.109 -0.0618  0.3573  0.3994
11191TIP3   OH254987   2.788   4.840   3.121  0.2387 -0.3454 -0.1419
11191TIP3    H154988   2.761   4.916   3.069 -0.6402 -0.1746  0.5397
11191TIP3    H254989   2.728   4.770   3.095  1.5609 -1.0673 -1.3650
11192TIP3   OH254990   4.663   3.947   5.772 -0.6067 -0.0692  0.4573
11192TIP3    H154991   4.716   4.006   5.718 -2.9796  2.2278  0.4429
11192TIP3    H254992   4.574   3.981   5.764 -1.6883 -2.1436  2.5702
11193TIP3   OH254993   0.067   6.289  11.398 -0.1908  0.4305  0.2128
11193TIP3    H154994   0.157   6.321  11.400 -1.3339  4.0330  1.2873
11193TIP3    H254995   0.059   6.237  11.478  0.6987  0.7456  0.5221
11194TIP3   OH254996   2.936   1.515   0.996  0.4842  0.1815  0.1648
11194TIP3    H154997   3.024   1.495   1.028  0.0435  0.0634  1.3497
11194TIP3    H254998   2.888   1.546   1.073 -0.4063  0.6311 -0.5378
11195TIP3   OH254999   1.083   4.735   4.278  0.8260  0.0399 -0.1974
11195TIP3    H155000   1.118   4.715   4.364  2.1913 -0.9980 -0.9474
11195TIP3    H255001   0.990   4.753   4.293  1.2909  1.0886  1.6175
11196TIP3   OH255002   5.227   3.573  15.420 -0.5908  0.0114 -0.4442
11196TIP3    H155003   5.322   3.579  15.432 -0.7745  1.2258  0.7025
11196TIP3    H255004   5.215   3.555  15.327  0.7584 -0.1669 -0.5983
11197TIP3   OH255005   1.902   0.317   0.086 -0.2025  0.0465 -0.0494
11197TIP3    H155006   1.888   0.231   0.045 -1.7244 -0.8770  2.1812
11197TIP3    H255007   1.829   0.370   0.054 -0.8660 -0.3854  0.7209
11198TIP3   OH255008   5.461   5.479  11.596  0.7725 -0.1902 -0.0150
11198TIP3    H155009   5.446   5.545  11.529  0.2510 -1.1826 -0.9079
11198TIP3    H255010   5.556   5.465  11.595  0.8601  0.3906  0.0352
11199TIP3   OH255011   5.007   2.387  15.401 -0.1187 -0.2857  0.0823
11199TIP3    H155012   5.090   2.365  15.443  0.2103  0.9536  0.1220
11199TIP3    H255013   4.957   2.432  15.469 -0.6399 -0.6336 -0.0725
11200TIP3   OH255014   0.313   3.393   3.419  0.2072  0.3198 -0.8786
11200TIP3    H155015   0.294   3.466   3.478  1.4439 -1.3231  1.7449
11200TIP3    H255016   0.402   3.411   3.386 -0.1809  0.8481 -1.6650
11201TIP3   OH255017   1.908   6.207  11.120  0.2790 -0.1204 -0.3371
11201TIP3    H155018   1.861   6.250  11.191  0.1267 -0.3753 -0.2812
11201TIP3    H255019   1.842   6.152  11.078  0.2735  0.3293 -0.9227
11202TIP3   OH255020   6.455   1.263   1.429  0.4635  0.3794  0.6002
11202TIP3    H155021   6.416   1.292   1.346  0.7142  1.7955  0.9386
11202TIP3    H255022   6.429   1.172   1.438 -1.1594  0.7397 -0.1179
11203TIP3   OH255023   1.275   6.286   0.844  0.1686  0.2591  0.2377
11203TIP3    H155024   1.319   6.370   0.854  2.6792 -0.7844 -1.0467
11203TIP3    H255025   1.215   6.298   0.771  1.9670  0.5004 -1.2885
11204TIP3   OH255026   2.241   5.747   2.804  0.5146  0.1733 -0.0377
11204TIP3    H155027   2.293   5.718   2.879 -0.0619 -1.3908 -0.2018
11204TIP3    H255028   2.164   5.789   2.843  0.6239  0.1261  0.2313
11205TIP3   OH255029   3.748   3.264  10.760  0.0448  0.3814 -0.3030
11205TIP3    H155030   3.694   3.342  10.773  0.8079  1.1490 -1.5984
11205TIP3    H255031   3.824   3.277  10.817  0.2015  0.6122 -0.5653
11206TIP3   OH255032   4.651   4.819  15.073  0.2820 -0.2059  0.3009
11206TIP3    H155033   4.743   4.831  15.096  1.3591  0.7929 -3.7583
11206TIP3    H255034   4.643   4.726  15.052 -0.4394 -0.8812  3.1157
11207TIP3   OH255035   1.746   2.664   0.200  0.2228  0.4894 -0.3070
11207TIP3    H155036   1.733   2.578   0.161  0.8277 -0.5150  1.5552
11207TIP3    H255037   1.729   2.650   0.294  0.6528  2.3182  0.0769
11208TIP3   OH255038   1.259   6.417  12.936 -0.2633  0.0961 -0.9564
11208TIP3    H155039   1.275   6.510  12.952  0.7219 -0.5836  2.9975
11208TIP3    H255040   1.330   6.390  12.877  0.2788  1.5763 -1.0131
11209TIP3   OH255041   0.652   4.215  13.171  0.0808  0.6866  0.3082
11209TIP3    H155042   0.690   4.128  13.157 -2.3825 -0.3623 -0.4180
11209TIP3    H255043   0.719   4.276  13.140  0.7486 -1.0839 -1.9771
11210TIP3   OH255044   5.616   1.754  15.603 -0.0141  0.4767 -0.1228
11210TIP3    H155045   5.694   1.736  15.656  1.0401 -0.0521 -1.7771
11210TIP3    H255046   5.590   1.669  15.568  0.9099  1.1117 -2.5260
11211TIP3   OH255047   6.190   4.720  13.413 -0.4384 -0.2325  0.0635
11211TIP3    H155048   6.102   4.758  13.406 -0.6172 -0.7924 -0.9905
11211TIP3    H255049   6.219   4.744  13.501 -0.8707  1.6192 -0.2479
11212TIP3   OH255050   4.505   0.817  16.294 -0.1400  0.0009 -0.1320
11212TIP3    H155051   4.439   0.886  16.296 -0.0320  0.5771 -5.1163
11212TIP3    H255052   4.587   0.863  16.276  0.2598 -1.2115 -1.6114
11213TIP3   OH255053   2.917   5.168  11.770 -0.3143  0.4588 -0.1290
11213TIP3    H155054   2.840   5.111  11.773 -1.0621  1.4675  0.4800
11213TIP3    H255055   2.895   5.236  11.706  0.1875  0.5836 -0.1749
11214TIP3   OH255056   5.582   6.405  11.510 -0.2222 -0.6685 -0.2244
11214TIP3    H155057   5.618   6.493  11.496  1.1769 -1.3293 -0.9003
11214TIP3    H255058   5.610   6.355  11.433 -0.6329 -1.8389  0.3678
11215TIP3   OH255059   6.608   3.115  14.847  0.2460 -0.1809 -0.1117
11215TIP3    H155060   6.526   3.148  14.884 -0.6050 -2.2502  0.0335
11215TIP3    H255061   6.643   3.058  14.916  0.3466 -1.4912 -1.2037
11216TIP3   OH255062   2.167   3.440  11.874 -0.0348  0.4539  0.3475
11216TIP3    H155063   2.093   3.452  11.815 -0.3501  1.2871  0.8944
11216TIP3    H255064   2.238   3.490  11.834  0.0645  0.1278  0.1172
11217TIP3   OH255065   5.024   5.825  12.940  0.3919 -0.2077 -0.8796
11217TIP3    H155066   5.080   5.894  12.976 -0.0088  0.1094 -0.8510
11217TIP3    H255067   5.085   5.759  12.907  0.8144 -0.9896  1.2604
11218TIP3   OH255068   2.145   6.381   4.736 -0.2535  0.5495  0.4001
11218TIP3    H155069   2.151   6.288   4.761 -0.5210  0.2418 -0.6038
11218TIP3    H255070   2.109   6.424   4.813 -2.4582 -0.5975  0.1240
11219TIP3   OH255071   5.994   4.585   1.491 -0.2282  0.2059  0.5303
11219TIP3    H155072   5.937   4.516   1.523  0.1804 -0.7893 -0.7943
11219TIP3    H255073   5.962   4.664   1.534 -2.6265 -0.3039 -0.1522
11220TIP3   OH255074   4.268   4.334  13.243 -0.1662  0.1021 -0.4585
11220TIP3    H155075   4.343   4.289  13.205  0.1008 -0.1055  0.3052
11220TIP3    H255076   4.280   4.327  13.337 -1.4900 -0.5152 -0.3106
11221TIP3   OH255077   3.952   0.579   3.172  0.4816  0.2135 -0.1203
11221TIP3    H155078   4.033   0.578   3.223  0.9850  0.2843 -0.9005
11221TIP3    H255079   3.950   0.495   3.128  0.1165  0.2092 -0.1044
11222TIP3   OH255080   1.171   6.129   0.389  0.5103  0.1085  0.0640
11222TIP3    H155081   1.238   6.139   0.321 -2.8233  0.7922 -3.4092
11222TIP3    H255082   1.131   6.215   0.396 -0.0726 -0.2793  2.0584
11223TIP3   OH255083   3.599   5.261  14.925  0.5721 -0.4616  0.3556
11223TIP3    H155084   3.511   5.290  14.904  0.6562  1.7361  2.5647
11223TIP3    H255085   3.586   5.175  14.967 -0.4682 -0.3252  0.3434
11224TIP3   OH255086   1.816   6.288  15.678 -0.1299  0.7912 -0.4614
11224TIP3    H155087   1.870   6.287  15.757 -0.5153  0.2456 -0.1983
11224TIP3    H255088   1.824   6.377  15.644 -1.3410  1.5535  1.1527
11225TIP3   OH255089   6.297   3.420  15.655 -0.0173 -0.1949  0.0643
11225TIP3    H155090   6.385   3.402  15.687  0.6845 -0.0601 -1.6509
11225TIP3    H255091   6.243   3.351  15.692  1.0525 -1.0151  0.1585
11226TIP3   OH255092   4.353   3.194   4.451  0.0180  0.0982  0.2428
11226TIP3    H155093   4.423   3.238   4.499  0.7822 -0.6461 -0.1496
11226TIP3    H255094   4.359   3.229   4.362  0.5227 -0.6422 -0.0287
11227TIP3   OH255095   0.637   3.607   2.848 -0.3678  0.5233  0.2672
11227TIP3    H155096   0.610   3.542   2.784  1.6566  0.7815 -0.9320
11227TIP3    H255097   0.674   3.556   2.920  1.3471  0.2703 -0.7304
11228TIP3   OH255098   6.010   2.925   3.635  0.9054  0.4457  0.2784
11228TIP3    H155099   6.096   2.940   3.595  0.9571 -0.6753 -0.0635
11228TIP3    H255100   6.013   2.974   3.717  1.2065  1.8887 -0.5552
11229TIP3   OH255101   4.282   1.326  10.842 -0.4105  0.3078  0.2846
11229TIP3    H155102   4.313   1.375  10.766 -0.5841  1.0671  0.6937
11229TIP3    H255103   4.189   1.349  10.849 -1.1013 -1.8583 -0.8607
11230TIP3   OH255104   1.453   0.146   2.664  0.6249  0.2631  0.1431
11230TIP3    H155105   1.438   0.089   2.740  0.6219  3.6491  2.9698
11230TIP3    H255106   1.365   0.168   2.634  0.5136  0.9918  0.9501
11231TIP3   OH255107   6.387   2.663  10.615  0.3194  0.2999 -0.0577
11231TIP3    H155108   6.328   2.639  10.543  1.4487  1.1080 -1.3011
11231TIP3    H255109   6.448   2.589  10.621  0.9423  0.7404 -0.7504
11232TIP3   OH255110   1.696   1.495  14.802  0.4624  0.4000  0.3565
11232TIP3    H155111   1.645   1.429  14.849  1.6392 -0.8570 -0.0565
11232TIP3    H255112   1.722   1.558  14.870 -0.3855  0.2673  0.8164
11233TIP3   OH255113   1.164   1.348   3.615 -0.0300  0.6096 -0.3995
11233TIP3    H155114   1.106   1.316   3.683 -0.8037 -0.4827 -1.5373
11233TIP3    H255115   1.169   1.443   3.631 -2.3665  0.7940 -0.4404
11234TIP3   OH255116   2.056   1.748   3.392  0.4737  0.4287  0.1166
11234TIP3    H155117   2.150   1.731   3.385  1.2393  3.2784  1.9777
11234TIP3    H255118   2.036   1.805   3.318 -0.6565 -2.6273 -2.1898
11235TIP3   OH255119   0.624   3.057   4.831  0.7298  0.2612  1.1198
11235TIP3    H155120   0.628   3.048   4.736  0.7827  0.5530  1.0914
11235TIP3    H255121   0.535   3.033   4.855  0.2937  1.5311  0.8398
11236TIP3   OH255122   0.831   3.319  12.183 -0.6501  0.1697 -0.1908
11236TIP3    H155123   0.927   3.320  12.181 -0.6219 -1.3390 -0.3155
11236TIP3    H255124   0.806   3.286  12.097 -1.3284  1.3770 -0.4811
11237TIP3   OH255125   6.286   5.995   2.979 -0.3147  0.0638 -0.3109
11237TIP3    H155126   6.347   5.997   3.053 -0.2721  0.9660 -0.3496
11237TIP3    H255127   6.331   6.044   2.910 -1.5005  1.7219  0.0281
11238TIP3   OH255128   5.288   1.201  14.681 -0.1247 -0.7762  0.1161
11238TIP3    H155129   5.308   1.109  14.698  1.9972 -0.4546 -0.3668
11238TIP3    H255130   5.373   1.244  14.681 -0.9060  0.8851 -1.4653
11239TIP3   OH255131   2.715   4.813   1.056 -0.3960  0.4030  0.6943
11239TIP3    H155132   2.640   4.840   1.002 -0.4310  1.4111  1.2336
11239TIP3    H255133   2.686   4.829   1.146  0.0055 -0.4049  0.9757
11240TIP3   OH255134   6.741   3.508  14.676 -0.8802  0.7968 -0.5580
11240TIP3    H155135   6.692   3.556  14.743 -0.6133  0.2598  0.0321
11240TIP3    H255136   6.829   3.545  14.679 -1.2781  1.9767 -1.8297
11241TIP3   OH255137   2.033   2.539   3.536 -0.5074  0.7201  0.0391
11241TIP3    H155138   1.951   2.541   3.584 -0.5833  1.4394 -0.1123
11241TIP3    H255139   2.020   2.601   3.464  0.0055  0.5046 -0.2442
11242TIP3   OH255140   2.016   0.483  10.567  0.0035 -0.2025  0.3738
11242TIP3    H155141   2.066   0.457  10.490 -0.3936 -1.0192  0.3781
11242TIP3    H255142   1.996   0.401  10.611 -0.7004  0.1728  0.7717
11243TIP3   OH255143   4.697   6.413  12.886  0.0074  0.3250  0.8084
11243TIP3    H155144   4.788   6.433  12.865 -0.2287  0.7030  0.1064
11243TIP3    H255145   4.646   6.475  12.834 -0.7563 -1.9534 -1.3580
11244TIP3   OH255146   3.489   5.580   2.170 -0.0808  0.1339 -0.0944
11244TIP3    H155147   3.476   5.486   2.158 -0.6414  0.1656  0.1906
11244TIP3    H255148   3.440   5.600   2.250 -0.9744  0.8850 -0.8160
11245TIP3   OH255149   0.501   0.756  15.552 -0.0354 -0.3848  0.3210
11245TIP3    H155150   0.533   0.827  15.497 -0.8614  1.1749  1.7825
11245TIP3    H255151   0.428   0.719  15.503  1.6790 -1.7022 -1.4284
11246TIP3   OH255152   3.521   2.086   4.857 -0.1186 -0.0173  0.3441
11246TIP3    H155153   3.440   2.131   4.882 -1.6990 -3.0010  1.0511
11246TIP3    H255154   3.494   2.023   4.791  1.8253 -0.5146 -0.0441
11247TIP3   OH255155   0.537   0.874   4.659 -0.1012  0.1103 -0.1334
11247TIP3    H155156   0.524   0.963   4.627 -0.8586  0.0960  0.1217
11247TIP3    H255157   0.568   0.825   4.582  0.7642  0.6861 -0.1648
11248TIP3   OH255158   6.670   6.572  13.230  0.0469 -0.0069  0.4110
11248TIP3    H155159   6.595   6.542  13.281  0.2279  0.9150  1.2275
11248TIP3    H255160   6.644   6.658  13.198  0.7468  0.2979  0.6630
11249TIP3   OH255161   6.343   5.260  14.820 -0.1760  0.1894 -0.6160
11249TIP3    H155162   6.371   5.169  14.808  0.6071  0.2960  0.3437
11249TIP3    H255163   6.248   5.255  14.827 -0.0320 -0.7955  1.2707
11250TIP3   OH255164   2.040   6.155  13.108  0.1570  0.7485 -0.4618
11250TIP3    H155165   2.102   6.104  13.160 -0.7020 -0.0328 -0.1744
11250TIP3    H255166   2.059   6.246  13.130  0.5540  0.4722  0.3625
11251TIP3   OH255167   1.415   0.585  14.459  0.3400 -0.2774  0.0314
11251TIP3    H155168   1.489   0.631  14.419 -0.0755 -0.0714 -0.5229
11251TIP3    H255169   1.451   0.500  14.485  1.1942  0.4519  1.3573
11252TIP3   OH255170   1.890   0.028   3.654  0.1888 -0.5719  0.1961
11252TIP3    H155171   1.945   0.062   3.582 -1.3330  1.4511 -0.1105
11252TIP3    H255172   1.858  -0.056   3.622 -1.0051  0.5698 -1.8954
11253TIP3   OH255173   5.193   6.438  14.494 -0.0684  0.3281 -0.2534
11253TIP3    H155174   5.133   6.368  14.519 -0.4981  0.5398 -0.6939
11253TIP3    H255175   5.262   6.434  14.561 -1.5343  1.3252  1.4304
11254TIP3   OH255176   2.216   0.882  16.850  0.3710  1.0666 -0.4548
11254TIP3    H155177   2.199   0.950  16.784 -2.0263 -1.0429 -2.2304
11254TIP3    H255178   2.272   0.819  16.804  1.2778  1.0602  0.6352
11255TIP3   OH255179   6.407   5.481  12.531 -0.4825  0.0918  0.1308
11255TIP3    H155180   6.457   5.429  12.594  0.2387  0.5749 -0.0359
11255TIP3    H255181   6.430   5.443  12.446 -0.9421 -0.1311  0.1035
11256TIP3   OH255182   4.537   3.528  15.039  0.1937 -0.0079  0.2443
11256TIP3    H155183   4.522   3.587  15.112 -1.3451 -0.2774  0.1801
11256TIP3    H255184   4.449   3.507  15.007  0.7765 -1.1193 -0.6899
11257TIP3   OH255185   0.446   0.299  14.719 -0.3098  0.0505  0.4864
11257TIP3    H155186   0.375   0.343  14.672  1.0527  0.2890 -1.4789
11257TIP3    H255187   0.522   0.355  14.703  0.7620 -1.3136  0.7089
11258TIP3   OH255188   5.949   4.834  13.299 -0.0729  0.2867  0.3866
11258TIP3    H155189   5.891   4.759  13.286  0.0849  0.4934 -1.7018
11258TIP3    H255190   5.890   4.907  13.317 -0.3987  0.2158 -0.3630
11259TIP3   OH255191   4.834   0.462   3.656  0.1048  0.4756  0.1244
11259TIP3    H155192   4.857   0.478   3.564 -0.6429 -2.8748 -0.7850
11259TIP3    H255193   4.918   0.458   3.701  0.6530 -0.1192 -0.9056
11260TIP3   OH255194   5.660   0.493  15.373  0.1928 -0.0032 -0.2767
11260TIP3    H155195   5.751   0.493  15.403  0.1402 -0.9282 -0.0836
11260TIP3    H255196   5.609   0.514  15.451  0.0443 -2.5675  0.3950
11261TIP3   OH255197   2.526   2.462  15.760  0.2375 -0.4345 -0.1382
11261TIP3    H155198   2.602   2.512  15.732 -1.3660  1.7351 -0.8729
11261TIP3    H255199   2.535   2.457  15.855  0.8699  0.5070 -0.1334
11262TIP3   OH255200   0.887   0.040  14.384 -0.1521 -0.3181  0.2751
11262TIP3    H155201   0.851  -0.024  14.323 -0.1750  0.5106 -0.6118
11262TIP3    H255202   0.835   0.119  14.368  1.4187  0.6325 -0.3858
11263TIP3   OH255203   4.586   4.379   4.768 -0.1371  0.1273 -0.0363
11263TIP3    H155204   4.590   4.292   4.806  1.0190 -0.2547 -0.9837
11263TIP3    H255205   4.677   4.410   4.769 -0.4913  1.2043  0.0132
11264TIP3   OH255206   0.358   3.250   4.742 -0.4851  0.5472 -0.3592
11264TIP3    H155207   0.393   3.328   4.785 -0.9539  0.9865 -0.7732
11264TIP3    H255208   0.268   3.243   4.774 -0.3207 -0.0663 -0.0020
11265TIP3   OH255209   3.167   6.011   3.288 -0.5721  0.0516  0.0048
11265TIP3    H155210   3.219   5.938   3.257 -0.1980  0.0769  0.5574
11265TIP3    H255211   3.133   5.982   3.373  1.1527  1.2123  1.1556
11266TIP3   OH255212   0.538   1.117  11.816 -0.4102  0.1789 -0.0099
11266TIP3    H155213   0.495   1.155  11.740  1.8282 -2.7001 -3.0236
11266TIP3    H255214   0.521   1.023  11.809  1.3209 -0.3736  2.0788
11267TIP3   OH255215   5.205   6.548  15.935 -0.2744  0.0472 -0.1187
11267TIP3    H155216   5.277   6.513  15.988 -1.9805 -1.1804  1.5495
11267TIP3    H255217   5.221   6.514  15.847  0.1470 -1.8921  0.6478
11268TIP3   OH255218   0.609   5.891  12.952 -0.8718  0.4239  0.1391
11268TIP3    H155219   0.702   5.870  12.959 -0.7855  0.0162 -1.7817
11268TIP3    H255220   0.604   5.985  12.969 -0.4906  0.0553  2.8170
11269TIP3   OH255221   2.820   5.678  17.044  0.0686 -0.3170 -0.1050
11269TIP3    H155222   2.770   5.723  16.976 -2.3378  0.3575  1.9616
11269TIP3    H255223   2.857   5.749  17.097  3.8704 -0.7599 -1.8245
11270TIP3   OH255224   4.323   3.371   0.715  0.1030  0.1571 -0.5263
11270TIP3    H155225   4.325   3.464   0.693 -0.6321  0.0230 -1.1962
11270TIP3    H255226   4.287   3.329   0.637 -0.2254 -0.6153  0.0355
11271TIP3   OH255227   5.469   4.501  16.944 -0.0194  0.0529 -0.6306
11271TIP3    H155228   5.478   4.572  16.881  0.7065 -0.5351 -1.2133
11271TIP3    H255229   5.472   4.421  16.890  0.8946 -0.4738  0.1684
11272TIP3   OH255230   3.230   0.375  12.088  0.0525  0.0428 -0.1054
11272TIP3    H155231   3.227   0.450  12.029  1.3889  0.6245  0.5142
11272TIP3    H255232   3.281   0.309  12.041 -1.0574 -0.4708 -0.6184
11273TIP3   OH255233   5.136   1.987   5.567 -0.0903  0.2427 -0.0897
11273TIP3    H155234   5.094   2.046   5.630  0.8308  0.2405  0.5530
11273TIP3    H255235   5.160   1.910   5.619  0.2028  0.0080 -0.5621
11274TIP3   OH255236   5.980   6.439  16.705  0.3860 -0.4799 -0.0498
11274TIP3    H155237   5.955   6.504  16.640 -1.4651 -1.4042 -0.3555
11274TIP3    H255238   6.055   6.393  16.667  0.9249  0.6371 -0.3692
11275TIP3   OH255239   6.767   0.966  14.598 -0.2598 -0.3506 -0.0271
11275TIP3    H155240   6.711   0.891  14.577 -0.1199 -0.0917 -1.4674
11275TIP3    H255241   6.732   1.038  14.545  0.2266  0.3372  0.5590
11276TIP3   OH255242   2.193   3.814  14.971 -0.9001  0.1948 -0.0565
11276TIP3    H155243   2.111   3.864  14.977 -1.0649 -0.2481  3.0642
11276TIP3    H255244   2.166   3.723  14.984  0.2060  0.2751  3.9524
11277TIP3   OH255245   1.038   5.343   4.489  0.4011 -0.7537 -0.1157
11277TIP3    H155246   1.002   5.430   4.506  0.9816 -0.5454  0.0880
11277TIP3    H255247   0.966   5.293   4.451 -0.6868 -0.9778  2.1192
11278TIP3   OH255248   1.667   1.530  14.115 -0.2488 -0.3445  0.1223
11278TIP3    H155249   1.580   1.555  14.144 -0.6837 -2.2878  0.6251
11278TIP3    H255250   1.699   1.469  14.182  0.5535 -1.4178 -1.1717
11279TIP3   OH255251   1.523   5.141  16.451  0.2778 -0.2590 -0.2975
11279TIP3    H155252   1.592   5.166  16.390  1.0800  1.6183  1.2454
11279TIP3    H255253   1.445   5.132  16.397  1.3101 -0.4505 -1.8125
11280TIP3   OH255254   4.633   6.013   0.418 -0.0237  0.0010  0.4999
11280TIP3    H155255   4.614   6.104   0.397  0.2292  0.0290  0.3793
11280TIP3    H255256   4.687   5.983   0.345  0.7778  0.0616  1.0593
11281TIP3   OH255257   5.339   2.566  12.554  0.1744  0.1746  0.3560
11281TIP3    H155258   5.383   2.572  12.639  0.8628  0.5475 -0.0204
11281TIP3    H255259   5.374   2.639  12.503 -1.0453  0.6150  0.1112
11282TIP3   OH255260   0.876   1.238  13.323  0.0606 -0.3659 -0.0784
11282TIP3    H155261   0.805   1.302  13.318 -1.4730 -1.7667  2.1849
11282TIP3    H255262   0.884   1.216  13.415  3.7606 -0.0555 -0.1541
11283TIP3   OH255263   0.808   1.345  15.629 -0.4394 -0.3839 -0.0732
11283TIP3    H155264   0.787   1.305  15.713  0.1361 -0.6352 -0.0501
11283TIP3    H255265   0.870   1.285  15.588  0.2226  0.3348 -0.1539
11284TIP3   OH255266   3.192   3.790   0.380  0.0946 -0.2917  0.3828
11284TIP3    H155267   3.124   3.725   0.395  1.0647 -1.8957 -1.5381
11284TIP3    H255268   3.145   3.873   0.369 -1.6361 -1.3996 -1.2566
11285TIP3   OH255269   4.129   4.906   2.652 -0.5337 -0.0872 -0.0054
11285TIP3    H155270   4.117   4.976   2.716  1.9719  0.3472  0.1014
11285TIP3    H255271   4.190   4.846   2.693  0.0751 -0.5021 -1.4418
11286TIP3   OH255272   1.209   6.254  10.610  0.5154 -0.4493  0.6228
11286TIP3    H155273   1.239   6.337  10.647 -0.6163  0.4152 -0.2858
11286TIP3    H255274   1.141   6.280  10.547 -2.4594 -2.2079  2.8213
11287TIP3   OH255275   3.228   0.516  14.056 -0.6336 -0.0728  0.0053
11287TIP3    H155276   3.171   0.571  14.110 -0.5703 -1.8689  2.0579
11287TIP3    H255277   3.312   0.515  14.102  0.4058  0.6587 -1.7466
11288TIP3   OH255278   0.615   0.069  16.829 -0.2278 -0.2608 -0.0169
11288TIP3    H155279   0.521   0.054  16.835  0.0184 -1.5669  1.0203
11288TIP3    H255280   0.645   0.076  16.920  0.9627 -1.9546 -0.2281
11289TIP3   OH255281   0.648   3.674   1.287  0.0844 -0.2018 -0.6097
11289TIP3    H155282   0.625   3.673   1.194  1.6185 -2.0294 -1.0196
11289TIP3    H255283   0.743   3.675   1.289  0.0817  0.5801  0.9795
11290TIP3   OH255284   4.225   1.710   3.134 -0.3643 -0.1316  0.2098
11290TIP3    H155285   4.261   1.643   3.075  2.6733  1.5020 -0.0122
11290TIP3    H255286   4.290   1.781   3.131 -1.1472  0.9222  3.9280
11291TIP3   OH255287   0.583   0.393   0.964  0.0403  0.4801 -0.0009
11291TIP3    H155288   0.489   0.404   0.950 -0.3161 -1.0925  0.9352
11291TIP3    H255289   0.618   0.375   0.877 -0.8866 -1.1488 -0.0727
11292TIP3   OH255290   6.424   5.153  14.044 -1.3007 -0.3806 -0.6067
11292TIP3    H155291   6.383   5.171  14.129 -0.9460 -0.3853 -0.4346
11292TIP3    H255292   6.466   5.236  14.020 -0.9698 -0.5270 -0.5366
11293TIP3   OH255293   0.959   1.477  12.457  0.2180  0.0170  0.6043
11293TIP3    H155294   0.891   1.526  12.506 -1.5401 -0.5648 -1.1311
11293TIP3    H255295   1.040   1.498  12.503 -0.8756  2.1668  1.7388
11294TIP3   OH255296   6.613   2.490   4.980 -0.2887  0.2959  0.0426
11294TIP3    H155297   6.571   2.408   5.003 -1.7092  0.2236 -2.4818
11294TIP3    H255298   6.663   2.471   4.900  2.9224  0.9223  1.7067
11295TIP3   OH255299   4.165   3.593   0.322 -0.3236  0.7243 -0.3180
11295TIP3    H155300   4.149   3.687   0.326 -1.2746  0.6656 -1.8692
11295TIP3    H255301   4.198   3.578   0.233  2.3430 -0.0906  0.7129
11296TIP3   OH255302   0.535   1.778   5.842 -0.6077 -0.0417  0.3711
11296TIP3    H155303   0.547   1.704   5.901 -0.2331 -0.3751 -0.1161
11296TIP3    H255304   0.567   1.747   5.757  0.0207  0.8437  0.2733
11297TIP3   OH255305   4.777   1.139  13.728  0.1492 -0.4737  0.3661
11297TIP3    H155306   4.738   1.192  13.798  0.2972 -0.4932  0.4638
11297TIP3    H255307   4.819   1.067  13.774 -1.5977 -1.6971  0.1577
11298TIP3   OH255308   0.623   6.663  12.657  0.1352  0.4571  0.1699
11298TIP3    H155309   0.701   6.679  12.604  0.2067  0.3235  0.2334
11298TIP3    H255310   0.655   6.609  12.730  0.0449  0.6669  0.3653
11299TIP3   OH255311   5.714   2.929   3.717  0.2942 -0.5932 -0.3014
11299TIP3    H155312   5.645   2.865   3.699  0.6077 -1.1787  0.4890
11299TIP3    H255313   5.795   2.879   3.711  0.6141 -0.0556 -0.5778
11300TIP3   OH255314   4.349   1.991  15.791  0.1536  0.4058  0.2351
11300TIP3    H155315   4.298   1.909  15.796  1.0727 -0.1060  2.0661
11300TIP3    H255316   4.405   1.979  15.715 -1.4780  0.4214 -1.0320
11301TIP3   OH255317   6.478   5.007  14.407 -0.0889 -0.2882  0.4132
11301TIP3    H155318   6.404   5.002  14.468  0.5749 -1.9076  1.1424
11301TIP3    H255319   6.541   4.943  14.440  1.8972  1.4139  0.1111
11302TIP3   OH255320   1.488   3.299  12.712 -0.1490  0.4117 -0.0102
11302TIP3    H155321   1.545   3.358  12.663 -1.6271  0.3929 -1.8395
11302TIP3    H255322   1.405   3.346  12.720 -0.7464 -0.6397  0.1920
11303TIP3   OH255323   0.472   1.881   5.029  1.0551  0.1749  0.2508
11303TIP3    H155324   0.400   1.820   5.045  0.4132  1.5385  3.4074
11303TIP3    H255325   0.546   1.825   5.005 -0.4646 -1.4368 -0.8992
11304TIP3   OH255326   0.352   0.929   5.222  0.3046 -0.0014 -0.3868
11304TIP3    H155327   0.351   0.834   5.206  0.9749 -0.1527  0.3802
11304TIP3    H255328   0.311   0.939   5.307 -0.2078  0.4536 -0.6854
11305TIP3   OH255329   5.032   2.699  16.188  0.2049  0.2120 -0.6379
11305TIP3    H155330   5.088   2.622  16.177  0.3994  0.3813 -0.8445
11305TIP3    H255331   4.945   2.663  16.207  0.5820 -0.0548  0.7542
11306TIP3   OH255332   0.484   3.510  14.032 -0.3852 -0.5089  0.5544
11306TIP3    H155333   0.544   3.489  13.960  1.2327  2.2192  0.9516
11306TIP3    H255334   0.471   3.427  14.077 -1.9153 -2.5024 -3.0657
11307TIP3   OH255335   1.366   2.318  10.986 -0.0263  0.1339  0.1160
11307TIP3    H155336   1.449   2.273  10.980 -0.1336 -0.3035  1.4621
11307TIP3    H255337   1.300   2.251  10.967 -0.1484 -0.1336  1.3489
11308TIP3   OH255338   2.081   5.791  14.240 -0.2037 -0.4311 -0.0809
11308TIP3    H155339   2.104   5.827  14.325 -1.2845 -0.0351  0.0541
11308TIP3    H255340   2.128   5.708  14.236  1.2026  0.3276  0.1822
11309TIP3   OH255341   6.034   1.965   1.561 -0.2770  0.2124  0.0678
11309TIP3    H155342   6.101   2.027   1.532  0.2337  0.0673  0.9217
11309TIP3    H255343   5.954   2.017   1.566 -0.3670  0.2783 -1.4469
11310TIP3   OH255344   0.036   6.341   2.557  0.7766  0.3099 -0.1021
11310TIP3    H155345   0.002   6.423   2.521  1.1357  0.1132 -0.8967
11310TIP3    H255346   0.009   6.343   2.649  2.3015  2.1662  0.3635
11311TIP3   OH255347   5.663   2.306   0.909 -0.0226 -1.4208 -0.5204
11311TIP3    H155348   5.754   2.334   0.922 -0.5550  1.6035 -2.2915
11311TIP3    H255349   5.652   2.306   0.814 -1.7273 -2.3143 -0.3526
11312TIP3   OH255350   2.912   0.942  15.711 -0.5177 -0.4844  0.1403
11312TIP3    H155351   2.962   0.980  15.783 -1.4226  2.2150 -0.5581
11312TIP3    H255352   2.978   0.911  15.649  0.3751  2.0551 -0.2881
11313TIP3   OH255353   5.991   6.596  11.892  0.1047 -0.1376  0.0560
11313TIP3    H155354   5.931   6.577  11.965  0.6362 -1.2782  0.2176
11313TIP3    H255355   6.012   6.689  11.902  0.0708 -0.2452  1.2978
11314TIP3   OH255356   5.705   6.375  15.372  0.2278  0.0343 -0.1250
11314TIP3    H155357   5.666   6.288  15.370 -0.3057  0.1647  2.1995
11314TIP3    H255358   5.766   6.376  15.297  1.7703 -3.0549  0.9158
11315TIP3   OH255359   1.142   5.845   0.386  0.2401  0.2251  0.0128
11315TIP3    H155360   1.123   5.939   0.390  0.3552  0.3444 -1.3926
11315TIP3    H255361   1.236   5.839   0.404  0.7215  0.6697 -2.0195
11316TIP3   OH255362   5.993   0.526  17.016  0.5727  1.2867  0.3530
11316TIP3    H155363   5.918   0.555  17.067  0.7255 -0.0521  1.3962
11316TIP3    H255364   5.963   0.532  16.925 -0.1010  2.6281  0.6427
11317TIP3   OH255365   3.707   2.305  16.023 -0.4722 -0.1654  0.5174
11317TIP3    H155366   3.775   2.347  15.970  1.0028 -1.3755  1.3707
11317TIP3    H255367   3.723   2.337  16.112 -0.3094 -1.2855  0.9075
11318TIP3   OH255368   5.937   5.840   0.890 -0.0281 -0.5782 -0.5039
11318TIP3    H155369   5.847   5.854   0.863  0.3591  0.9899 -1.0778
11318TIP3    H255370   5.956   5.912   0.950  1.1953 -0.1781 -1.3242
11319TIP3   OH255371   1.084   6.658   0.735  0.0388  0.5218 -0.2904
11319TIP3    H155372   1.006   6.673   0.788  0.9435  2.0455  0.6629
11319TIP3    H255373   1.149   6.720   0.768  2.1380 -1.6326 -0.1133
11320TIP3   OH255374   1.275   0.633  15.751  0.2180 -0.2283  0.2366
11320TIP3    H155375   1.352   0.606  15.801  0.8407  1.8681  0.4835
11320TIP3    H255376   1.311   0.675  15.673 -0.6763  0.2943  0.0957
11321TIP3   OH255377   5.832   3.328  16.392 -0.4969 -0.1364 -0.4659
11321TIP3    H155378   5.908   3.376  16.423  0.0946 -0.7876 -0.8860
11321TIP3    H255379   5.759   3.362  16.444  0.0719  0.5125 -0.0828
11322TIP3   OH255380   5.613   0.425   0.786 -0.3327 -0.0355  0.6834
11322TIP3    H155381   5.579   0.337   0.768 -2.4386  1.0332 -0.9439
11322TIP3    H255382   5.677   0.441   0.717 -1.7514  0.5954 -0.5301
11323TIP3   OH255383   5.199   6.451  15.144  0.0846  0.4233  0.1137
11323TIP3    H155384   5.201   6.514  15.216  1.6069  2.0763 -1.2663
11323TIP3    H255385   5.248   6.376  15.176 -1.6785 -0.0976  1.7615
11324TIP3   OH255386   4.585   1.576  14.990  0.5330  0.3082  0.3890
11324TIP3    H155387   4.582   1.595  14.896  0.4036  1.0829  0.5444
11324TIP3    H255388   4.640   1.645  15.027 -1.6326  1.6949  1.2561
11325TIP3   OH255389   5.801   4.414   1.971 -0.0046  0.1392 -0.2681
11325TIP3    H155390   5.863   4.356   1.927 -1.5008 -1.3440 -0.5376
11325TIP3    H255391   5.779   4.481   1.905  1.6910  1.0235  0.0237
11326TIP3   OH255392   6.795   4.013  17.022  0.4127 -0.2104  0.7290
11326TIP3    H155393   6.797   3.937  17.081 -1.5730 -1.7956 -1.0591
11326TIP3    H255394   6.726   4.068  17.058  1.4628  0.5158  1.7004
11327TIP3   OH255395   6.527   5.043  15.997  0.4471 -0.1158  0.0635
11327TIP3    H155396   6.572   4.958  15.994  1.0239  0.1351  0.9407
11327TIP3    H255397   6.598   5.107  16.004  0.1702  0.6847 -3.0929
11328TIP3   OH255398   6.519   6.709   1.878  0.1845  0.0246  0.4499
11328TIP3    H155399   6.490   6.618   1.874  0.6656 -0.0900 -0.4513
11328TIP3    H255400   6.438   6.760   1.874 -0.0447 -0.3432  0.3791
11329TIP3   OH255401   5.322   0.715  14.543  0.2996 -0.4807 -0.5348
11329TIP3    H155402   5.417   0.721  14.556  0.4160  1.1407 -1.8585
11329TIP3    H255403   5.308   0.625  14.515  1.4613 -0.6949 -0.4822
11330TIP3   OH255404   5.892   0.570  10.822 -0.4922  0.0686 -0.0789
11330TIP3    H155405   5.973   0.530  10.790  1.2032  2.8479  0.3675
11330TIP3    H255406   5.866   0.516  10.897 -0.2492 -2.0593 -1.4690
11331TIP3   OH255407   0.562   1.280  12.444 -0.2784  0.2528  0.7496
11331TIP3    H155408   0.495   1.214  12.460  0.0873 -0.0363  1.1113
11331TIP3    H255409   0.630   1.235  12.395 -0.2986  0.5172  0.4749
11332TIP3   OH255410   3.129   0.965  11.458  0.4819 -0.4380  0.0795
11332TIP3    H155411   3.154   0.969  11.366  0.6521 -1.0175  0.0978
11332TIP3    H255412   3.200   0.917  11.500 -0.0873 -1.0859  0.3274
11333TIP3   OH255413   5.581   1.236   2.457  0.1242  0.8917 -0.1275
11333TIP3    H155414   5.625   1.289   2.524  1.3314  1.3366 -1.2186
11333TIP3    H255415   5.488   1.244   2.478  0.4952  0.1838  2.0728
11334TIP3   OH255416   1.662   5.748   5.753  0.0412 -0.0805  0.3053
11334TIP3    H155417   1.707   5.712   5.829  0.2217  2.1485  1.3349
11334TIP3    H255418   1.584   5.790   5.789 -1.1761 -1.0334 -1.0669
11335TIP3   OH255419   0.882   4.282   3.822 -0.1092 -0.5623 -0.1284
11335TIP3    H155420   0.803   4.272   3.770 -0.7440  1.5950  0.2929
11335TIP3    H255421   0.939   4.211   3.794 -1.8504 -1.6533 -1.0711
11336TIP3   OH255422   1.837   2.027  12.326 -0.0993  0.3861 -0.1164
11336TIP3    H155423   1.902   1.970  12.366  0.1663  1.2152  0.6616
11336TIP3    H255424   1.888   2.095  12.281 -0.4121  0.3123 -0.5904
11337TIP3   OH255425   1.637   2.660  15.264 -0.6782 -0.1456 -0.1717
11337TIP3    H155426   1.572   2.644  15.196 -0.1203 -1.6173 -0.3977
11337TIP3    H255427   1.714   2.692  15.218 -1.0225  1.0368  0.0361
11338TIP3   OH255428   6.045   0.340  11.895 -0.1275 -0.1615  0.2393
11338TIP3    H155429   5.994   0.274  11.942 -2.5283 -0.1300 -2.0649
11338TIP3    H255430   6.008   0.340  11.806  1.5394  2.4555 -0.5723
11339TIP3   OH255431   0.493   0.372  13.844  0.3011 -0.1134  0.1490
11339TIP3    H155432   0.587   0.376  13.824  0.3075 -2.7533 -0.7335
11339TIP3    H255433   0.453   0.432  13.782  1.3016  0.1570 -0.2665
11340TIP3   OH255434   2.864   6.702  13.773  0.0547  0.0315 -0.0040
11340TIP3    H155435   2.950   6.710  13.815 -0.0299  1.4592 -0.0398
11340TIP3    H255436   2.829   6.619  13.805  2.4858 -1.8886 -1.9909
11341TIP3   OH255437   6.216   5.868  12.981  0.1621  0.1773  0.3462
11341TIP3    H155438   6.130   5.893  12.947  0.7212  1.6795 -0.0642
11341TIP3    H255439   6.197   5.816  13.059 -1.1206 -0.3488 -0.2885
11342TIP3   OH255440   3.272   0.108   3.603 -0.4418 -0.4798  0.2922
11342TIP3    H155441   3.256   0.165   3.528  2.2169 -2.0701 -1.6873
11342TIP3    H255442   3.212   0.034   3.590 -0.2276 -0.5871 -0.1052
11343TIP3   OH255443   1.101   0.254  11.637 -0.2534  0.3603  0.1751
11343TIP3    H155444   1.069   0.317  11.572  1.3869  1.4844  0.3982
11343TIP3    H255445   1.116   0.174  11.587 -1.6225  0.3397 -0.2660
11344TIP3   OH255446   0.001   6.620  12.822  0.3267 -0.4887  0.0895
11344TIP3    H155447  -0.010   6.568  12.901  0.4459 -1.0541 -0.2609
11344TIP3    H255448  -0.079   6.606  12.772 -0.1577  0.6151  0.5291
11345TIP3   OH255449   2.373   5.860  16.206  0.3148  1.0215  0.2267
11345TIP3    H155450   2.452   5.807  16.206 -0.0196  0.4808  1.3907
11345TIP3    H255451   2.383   5.917  16.282 -0.2221  1.2455  0.1362
11346TIP3   OH255452   4.454   5.468  11.595 -0.2143  0.4597 -0.2376
11346TIP3    H155453   4.388   5.431  11.536 -0.1219  1.4879 -1.0194
11346TIP3    H255454   4.530   5.410  11.585 -0.6913 -0.2214  0.0032
11347TIP3   OH255455   1.478   1.383   0.583 -0.3220  0.9234 -0.4718
11347TIP3    H155456   1.436   1.466   0.607 -1.0087 -0.0048  1.8202
11347TIP3    H255457   1.513   1.349   0.665  1.8284 -0.0809 -1.7199
11348TIP3   OH255458   4.372   0.595   2.619  0.2197 -0.1046 -0.4188
11348TIP3    H155459   4.433   0.586   2.546 -0.1988 -0.7883 -0.6955
11348TIP3    H255460   4.428   0.605   2.696  0.6791 -0.4163 -0.7063
11349TIP3   OH255461   6.443   3.927  15.612 -0.3057 -0.4425  0.0446
11349TIP3    H155462   6.455   3.923  15.517 -2.0803 -1.4263 -0.1663
11349TIP3    H255463   6.400   3.844  15.635 -2.7267  1.0524  1.2542
11350TIP3   OH255464   3.645   1.242   4.703  0.6206 -0.7899 -0.6679
11350TIP3    H155465   3.695   1.222   4.624  1.0953 -0.8583 -0.3547
11350TIP3    H255466   3.561   1.197   4.690 -1.0298  2.5560 -3.0308
11351TIP3   OH255467   6.605   4.907   1.260 -0.5498 -0.4233  0.3413
11351TIP3    H155468   6.549   4.884   1.186  0.0898 -3.1629  0.6104
11351TIP3    H255469   6.575   4.851   1.332 -0.5382  1.4933  1.9289
11352TIP3   OH255470   1.830   1.095  12.298  0.6165 -0.3767  0.0451
11352TIP3    H155471   1.913   1.060  12.331  0.2092 -0.7811  0.6617
11352TIP3    H255472   1.855   1.173  12.248  1.3752 -0.5555  0.1339
11353TIP3   OH255473   4.886   6.138   0.588  0.3361 -0.3024 -0.5644
11353TIP3    H155474   4.895   6.156   0.494  1.3291 -0.3836 -0.4994
11353TIP3    H255475   4.939   6.060   0.603  0.6297  0.0171  0.1483
11354TIP3   OH255476   1.655   3.168  12.191 -0.0045  0.6850  0.4006
11354TIP3    H155477   1.684   3.081  12.220 -0.3695  0.0430 -1.0633
11354TIP3    H255478   1.584   3.191  12.252 -2.3184 -1.6324 -1.1915
11355TIP3   OH255479   4.353   0.421  16.698  0.1191  0.6347  0.1429
11355TIP3    H155480   4.365   0.513  16.722 -0.7211  0.0225  3.3281
11355TIP3    H255481   4.418   0.407  16.628  1.6433  3.1348  0.9008
11356TIP3   OH255482   0.622   0.607  11.575  0.1238  0.3158 -0.1989
11356TIP3    H155483   0.631   0.652  11.659 -0.8022 -1.0601  0.6669
11356TIP3    H255484   0.691   0.645  11.520  0.6907  1.2976  1.1417
11357TIP3   OH255485   6.464   5.973   3.200  0.4993 -0.9334  0.1876
11357TIP3    H155486   6.530   5.954   3.134  1.5388  0.8491  0.6427
11357TIP3    H255487   6.480   5.909   3.269  2.7203  0.2606  0.9027
11358TIP3   OH255488   3.444   6.334  16.054  0.0258  0.3300  0.4446
11358TIP3    H155489   3.528   6.306  16.092  0.7824  2.2270  0.3012
11358TIP3    H255490   3.416   6.259  16.001  0.4542 -1.2201  2.2816
11359TIP3   OH255491   5.761   4.922   5.597  0.4630 -0.3219 -0.3973
11359TIP3    H155492   5.667   4.919   5.613  0.6559 -1.7008  0.6901
11359TIP3    H255493   5.797   4.852   5.651  2.1711  0.4473 -0.4627
11360TIP3   OH255494   4.337   3.645   0.678  0.4436 -0.1464 -0.0809
11360TIP3    H155495   4.291   3.701   0.616  1.1579  0.3544 -0.1826
11360TIP3    H255496   4.427   3.642   0.644  0.9240  0.3812  1.0787
11361TIP3   OH255497   2.220   4.927   2.016 -0.5161  0.3959 -0.0288
11361TIP3    H155498   2.251   4.848   2.061 -2.0556 -0.6587 -0.7094
11361TIP3    H255499   2.279   4.936   1.941  1.8560  1.9737  1.8916
11362TIP3   OH255500   3.510   3.052  11.000  0.0348 -0.5314  0.1806
11362TIP3    H155501   3.550   3.139  10.993  1.5615 -1.0370  1.6804
11362TIP3    H255502   3.417   3.069  11.015  0.4218  0.8981  1.1781
11363TIP3   OH255503   3.821   1.862  14.491 -0.3422 -0.4064  0.3336
11363TIP3    H155504   3.870   1.869  14.409 -0.9057  0.3684  0.0519
11363TIP3    H255505   3.788   1.772  14.492  1.6773 -1.1990  0.8852
11364TIP3   OH255506   2.553   2.602   3.275 -0.1462  0.2556 -0.0436
11364TIP3    H155507   2.576   2.638   3.190 -2.0575 -1.5113 -1.4246
11364TIP3    H255508   2.466   2.638   3.293 -0.4656 -0.6727  0.3364
11365TIP3   OH255509   5.610   5.339   4.536  0.0323 -0.2529 -0.2856
11365TIP3    H155510   5.619   5.360   4.443  0.4408 -0.4477 -0.2904
11365TIP3    H255511   5.694   5.362   4.575 -0.2049  0.0169  0.0756
11366TIP3   OH255512   2.809   5.643   1.191 -0.6874  0.1673  0.0280
11366TIP3    H155513   2.725   5.620   1.231  0.1255 -1.1582  1.0433
11366TIP3    H255514   2.855   5.691   1.259  0.0594 -0.6522  0.1153
11367TIP3   OH255515   2.703   3.759  14.368 -0.3674 -0.1797 -1.0448
11367TIP3    H155516   2.732   3.724  14.284 -1.2596  0.7633 -1.7601
11367TIP3    H255517   2.621   3.714  14.386  0.0217 -0.6766 -0.4639
11368TIP3   OH255518   5.847   2.885   2.481  0.0958 -0.0134 -0.3865
11368TIP3    H155519   5.788   2.821   2.521  1.3578 -2.3456 -2.0191
11368TIP3    H255520   5.876   2.940   2.554 -2.1926 -0.2672  0.8350
11369TIP3   OH255521   1.812   6.330  14.490 -0.1020 -0.1907 -0.0795
11369TIP3    H155522   1.888   6.338  14.432 -1.1095  2.8066 -1.2023
11369TIP3    H255523   1.737   6.319  14.431 -0.9517  1.1367  0.6788
11370TIP3   OH255524   2.041   3.933  16.436 -0.4549  0.0429  0.1661
11370TIP3    H155525   2.064   3.984  16.514 -0.4572 -0.7697  0.7060
11370TIP3    H255526   1.952   3.902  16.453 -0.5602  0.0907 -0.2867
11371TIP3   OH255527   3.368   5.220  14.604 -0.4128 -0.0979  0.0432
11371TIP3    H155528   3.436   5.200  14.539  0.6403 -0.3489  1.1750
11371TIP3    H255529   3.290   5.177  14.571  0.5935 -1.9369 -0.0615
11372TIP3   OH255530   5.467   2.209   2.180  0.4118 -0.3395  0.5791
11372TIP3    H155531   5.390   2.152   2.177  0.5711 -0.5375  0.2310
11372TIP3    H255532   5.502   2.197   2.268  0.3749 -0.6914  0.5483
11373TIP3   OH255533   0.918   5.732   3.717 -0.3701 -0.3768  0.7821
11373TIP3    H155534   0.973   5.791   3.769 -0.9255  1.4115 -0.5780
11373TIP3    H255535   0.829   5.753   3.743 -0.6214  0.1061 -0.4145
11374TIP3   OH255536   2.166   6.333   3.811  0.5081 -0.3789  0.0339
11374TIP3    H155537   2.205   6.264   3.865  0.5878 -0.6078 -0.3119
11374TIP3    H255538   2.094   6.290   3.765  0.3274 -0.1409  0.0917
11375TIP3   OH255539   5.939   4.159  12.992  0.1756  0.1082 -0.1176
11375TIP3    H155540   6.016   4.133  13.043 -0.2183 -0.5196  0.1672
11375TIP3    H255541   5.964   4.243  12.953  0.3207  0.8804  1.5279
11376TIP3   OH255542   0.851   4.926   0.705 -0.2695  1.0858 -0.1003
11376TIP3    H155543   0.936   4.938   0.662  0.0605 -0.3716  0.0906
11376TIP3    H255544   0.797   4.884   0.638  0.0909 -0.7228  0.6936
11377TIP3   OH255545   3.537   1.799  15.517 -1.0370 -0.1249  0.2053
11377TIP3    H155546   3.602   1.745  15.472 -0.3584 -0.1564  1.1832
11377TIP3    H255547   3.518   1.751  15.598 -0.6082  0.9613  0.9698
11378TIP3   OH255548   5.600   3.839  12.637 -0.1824  0.2355  0.2100
11378TIP3    H155549   5.666   3.884  12.690 -0.9501  0.8411  0.6713
11378TIP3    H255550   5.541   3.909  12.607 -1.0658 -0.3825  0.4642
11379TIP3   OH255551   4.990   0.089   4.261  0.0592 -0.2034 -0.1258
11379TIP3    H155552   5.079   0.088   4.225  0.7851  1.5156  1.4479
11379TIP3    H255553   4.997   0.044   4.345 -0.6187 -0.3145 -0.1219
11380TIP3   OH255554   1.210   0.073   4.614  0.2223 -0.0096 -0.8928
11380TIP3    H155555   1.168   0.126   4.546 -0.8568 -1.3961 -1.3462
11380TIP3    H255556   1.247   0.137   4.675 -0.8854  1.2589 -1.5104
11381TIP3   OH255557   3.734   3.355   3.905  1.0151  0.4464  0.6096
11381TIP3    H155558   3.664   3.297   3.933 -0.3186  2.1095  0.8729
11381TIP3    H255559   3.815   3.310   3.930  0.0636 -1.4244  0.4598
11382TIP3   OH255560   6.080   2.766   4.741 -0.3797 -0.0791 -0.1045
11382TIP3    H155561   6.143   2.713   4.790  0.1632  0.1355 -0.5542
11382TIP3    H255562   6.128   2.846   4.720 -0.2777 -0.5683 -1.8187
11383TIP3   OH255563   0.852   2.854   5.035 -0.0718 -0.2810 -0.5233
11383TIP3    H155564   0.909   2.919   4.992  2.3218 -2.8818 -1.5589
11383TIP3    H255565   0.775   2.849   4.978 -0.9794  2.4932  0.2882
11384TIP3   OH255566   6.778   2.073  12.859 -0.1017  0.0759  0.0528
11384TIP3    H155567   6.799   2.026  12.779  0.1128 -2.0735  1.2869
11384TIP3    H255568   6.858   2.121  12.881 -0.1963  0.7537 -1.0453
11385TIP3   OH255569   1.521   1.204  14.433  0.0108 -0.6059 -0.1069
11385TIP3    H155570   1.445   1.181  14.487 -0.6160 -0.2943 -0.8449
11385TIP3    H255571   1.501   1.168  14.347  0.6181 -0.3596 -0.3566
11386TIP3   OH255572   5.800   1.622   0.417 -0.5453 -0.1988  0.4125
11386TIP3    H155573   5.745   1.578   0.353  0.3992 -2.1639  0.8797
11386TIP3    H255574   5.878   1.649   0.367 -0.6171 -0.0837  0.3622
11387TIP3   OH255575   2.958   3.161   2.660 -0.8738 -0.2507  0.4857
11387TIP3    H155576   2.938   3.251   2.635  0.1429  0.1747  1.1588
11387TIP3    H255577   2.914   3.149   2.744 -1.4252 -0.5538  0.1590
11388TIP3   OH255578   1.557   3.297   5.688  0.0368  0.4018 -0.2285
11388TIP3    H155579   1.596   3.377   5.652  3.2821 -0.3082  1.3551
11388TIP3    H255580   1.523   3.323   5.773 -2.4101  0.8094 -1.2336
11389TIP3   OH255581   0.497   1.216   3.444 -0.7968 -0.2323  0.4463
11389TIP3    H155582   0.424   1.164   3.479 -1.1299  0.0342  0.1530
11389TIP3    H255583   0.477   1.306   3.469 -1.4734  0.0851 -1.1184
11390TIP3   OH255584   1.781   0.588   4.750 -0.4002 -0.2564  0.4106
11390TIP3    H155585   1.696   0.575   4.791 -0.8240 -0.5337 -0.5272
11390TIP3    H255586   1.844   0.566   4.818 -1.0798 -2.7394  0.3366
11391TIP3   OH255587   0.557   4.730   1.629 -0.0866  0.7651 -0.1271
11391TIP3    H155588   0.528   4.738   1.719 -0.8810  0.8832 -0.3835
11391TIP3    H255589   0.484   4.763   1.577  0.1348  0.1691 -0.8356
11392TIP3   OH255590   4.959   0.010  13.532  0.1894 -0.3932 -0.6317
11392TIP3    H155591   4.899  -0.061  13.554  0.1807 -0.4204 -0.7415
11392TIP3    H255592   4.972   0.002  13.437 -0.4489  0.2478 -0.7773
11393TIP3   OH255593   3.445   0.405  11.218 -0.2144 -0.0089  0.0251
11393TIP3    H155594   3.410   0.316  11.226  2.3109 -1.0740  0.0028
11393TIP3    H255595   3.446   0.422  11.124  0.3080 -0.4000 -0.0437
11394TIP3   OH255596   2.960   6.779  10.292  0.3911  0.6884  1.1140
11394TIP3    H155597   2.866   6.776  10.274  0.4120  1.9180  0.7141
11394TIP3    H255598   2.987   6.687  10.294 -0.4857  0.3558 -0.5691
11395TIP3   OH255599   3.237   2.138  11.484 -0.0996 -0.0531  0.2639
11395TIP3    H155600   3.260   2.045  11.480 -1.2700 -0.4456  1.6853
11395TIP3    H255601   3.210   2.152  11.575 -0.1595  1.6369  0.0199
11396TIP3   OH255602   5.698   6.704  16.761 -0.3695 -0.5656  0.1626
11396TIP3    H155603   5.617   6.664  16.730 -0.4899 -0.0190 -0.2556
11396TIP3    H255604   5.751   6.715  16.682 -0.6840  0.8583  0.1114
11397TIP3   OH255605   3.766   5.684  16.794 -0.0842 -0.4261 -0.1153
11397TIP3    H155606   3.739   5.724  16.876 -0.1582  0.1386 -0.4142
11397TIP3    H255607   3.737   5.593  16.802 -0.2546 -0.3324  0.4070
11398TIP3   OH255608   5.779   6.127  13.308 -0.2762  0.2677 -0.6255
11398TIP3    H155609   5.866   6.145  13.273  0.2029 -0.7228  0.0369
11398TIP3    H255610   5.756   6.206  13.356  2.1221 -0.9495  2.8959
11399TIP3   OH255611   3.180   4.066   5.450 -0.7461  0.3761 -0.3529
11399TIP3    H155612   3.161   4.107   5.535  0.5060 -0.1558  0.2257
11399TIP3    H255613   3.095   4.039   5.416 -1.2073 -0.0843  1.0982
11400TIP3   OH255614   0.553   2.886  14.787  0.3416 -0.1309  0.0738
11400TIP3    H155615   0.553   2.824  14.861 -1.6028  1.0115  1.1266
11400TIP3    H255616   0.613   2.955  14.814 -2.5465  1.8172  2.1232
11401TIP3   OH255617   4.583   6.010  14.106 -0.0954  0.2828  1.1786
11401TIP3    H155618   4.525   5.937  14.126  0.1456 -0.0829  0.5829
11401TIP3    H255619   4.550   6.045  14.023 -0.3242  0.9763  1.5511
11402TIP3   OH255620   4.800   6.417   4.996 -0.2358 -0.4721  0.2993
11402TIP3    H155621   4.829   6.347   4.938  0.4188 -0.3125  0.4253
11402TIP3    H255622   4.763   6.372   5.072 -2.2979 -0.7048 -0.7758
11403TIP3   OH255623   0.789   2.634   0.815 -0.1628 -0.2127  0.5478
11403TIP3    H155624   0.848   2.590   0.754 -0.7255 -1.4909  0.8814
11403TIP3    H255625   0.810   2.596   0.900 -1.3607 -0.5973  0.6887
11404TIP3   OH255626   2.289   3.384   2.300 -1.2351 -0.0716  0.6505
11404TIP3    H155627   2.344   3.318   2.260  1.4444  1.4644  1.5809
11404TIP3    H255628   2.254   3.342   2.379  0.5906 -0.3802  1.3479
11405TIP3   OH255629   0.807   5.164   3.567 -0.0183  0.3926 -0.4193
11405TIP3    H155630   0.898   5.154   3.596 -0.2663  0.9819  0.5992
11405TIP3    H255631   0.763   5.206   3.640 -1.4691 -1.2154 -0.3248
11406TIP3   OH255632   5.442   4.522  11.595  0.9013 -0.0388  0.4964
11406TIP3    H155633   5.399   4.514  11.680  0.3201  0.2947  0.2415
11406TIP3    H255634   5.393   4.591  11.550  0.7194 -0.7328 -0.3969
11407TIP3   OH255635   1.560   4.434   3.445  0.0789 -0.7286  0.5805
11407TIP3    H155636   1.498   4.401   3.510 -0.9424 -1.0698 -0.5378
11407TIP3    H255637   1.509   4.442   3.365  1.0314  0.7958  0.0919
11408TIP3   OH255638   6.589   6.672   2.180  0.0598 -0.3789  0.3781
11408TIP3    H155639   6.606   6.701   2.090  2.9550  3.4634  1.9298
11408TIP3    H255640   6.534   6.741   2.217  0.4725 -0.9386  2.0891
11409TIP3   OH255641   5.066   2.262  11.842  0.5166  0.0071 -0.0539
11409TIP3    H155642   5.017   2.298  11.917 -0.6564 -1.2888 -0.1531
11409TIP3    H255643   5.133   2.207  11.881 -0.7719 -1.5373  0.0989
11410TIP3   OH255644   4.038   0.838  10.329 -0.2471  0.4119  0.5549
11410TIP3    H155645   3.980   0.761  10.326  1.2042 -0.6979 -0.6210
11410TIP3    H255646   3.986   0.908  10.289 -0.9744 -0.4179  0.0035
11411TIP3   OH255647   4.830   2.925   2.322  0.1258 -0.2299  0.3255
11411TIP3    H155648   4.866   3.012   2.306  0.1841 -0.2376  0.4097
11411TIP3    H255649   4.898   2.880   2.373 -0.7057  0.3205  1.9916
11412TIP3   OH255650   6.110   0.042  13.891 -0.2099  0.0788 -0.0415
11412TIP3    H155651   6.123  -0.044  13.931  1.3431  0.0969 -0.4339
11412TIP3    H255652   6.095   0.101  13.965 -0.1132 -0.3410  0.3171
11413TIP3   OH255653   4.012   2.266  15.363  0.1265  0.7307 -0.1599
11413TIP3    H155654   4.034   2.216  15.284  0.7155  0.3509  0.2374
11413TIP3    H255655   4.053   2.352  15.348  1.2535  0.2841  0.2288
11414TIP3   OH255656   4.257   1.168   5.278 -0.0485 -0.0253  0.0212
11414TIP3    H155657   4.286   1.181   5.368 -0.8151 -1.0332  0.4448
11414TIP3    H255658   4.337   1.150   5.229  0.3886  0.6472  0.4719
11415TIP3   OH255659   6.638   3.681  12.076  0.2121 -0.1315 -0.3101
11415TIP3    H155660   6.623   3.679  11.981 -0.7876  0.0258 -0.1687
11415TIP3    H255661   6.731   3.703  12.085  0.4790 -0.8046 -1.2525
11416TIP3   OH255662   2.214   3.272  15.973 -0.6165 -0.1704 -0.1806
11416TIP3    H155663   2.142   3.218  16.009  0.0778 -1.4924 -0.7066
11416TIP3    H255664   2.273   3.284  16.047 -0.4733 -0.6721 -0.2059
11417TIP3   OH255665   6.599   2.199   3.863 -0.1722  0.0750 -0.1427
11417TIP3    H155666   6.573   2.111   3.890 -2.2612  1.1399  1.6868
11417TIP3    H255667   6.543   2.218   3.787  1.3120 -0.6468 -1.4695
11418TIP3   OH255668   5.063   0.609   1.528  0.3891 -0.2984  0.3773
11418TIP3    H155669   5.119   0.655   1.589  2.1707 -1.2481 -0.4541
11418TIP3    H255670   5.089   0.642   1.442 -0.9188 -0.1827 -0.0052
11419TIP3   OH255671   2.005   1.726   2.874 -0.0837 -0.0643 -0.2694
11419TIP3    H155672   1.927   1.718   2.819  0.3303 -0.4760 -0.8118
11419TIP3    H255673   2.059   1.791   2.829 -0.1341  0.2509  0.1255
11420TIP3   OH255674   3.369   2.765  12.136 -0.3851  0.8766 -0.1053
11420TIP3    H155675   3.352   2.812  12.218  1.3522  0.1008  0.7383
11420TIP3    H255676   3.398   2.833  12.076  2.5349  0.9577  1.2335
11421TIP3   OH255677   0.729   3.708   5.892  0.0443  0.2066  0.3909
11421TIP3    H155678   0.806   3.762   5.874  1.8994 -2.3912  0.0054
11421TIP3    H255679   0.741   3.679   5.983  0.4878 -1.6162 -0.2176
11422TIP3   OH255680   5.788   4.289  10.833  0.3034  0.6865 -0.1779
11422TIP3    H155681   5.831   4.204  10.843  2.0417  1.7236  1.8485
11422TIP3    H255682   5.702   4.267  10.796  0.5870 -1.9670  0.4815
11423TIP3   OH255683   4.030   0.486  14.429 -0.4452 -0.1688  0.2159
11423TIP3    H155684   4.006   0.409  14.377 -2.2085 -0.1157  0.8573
11423TIP3    H255685   4.033   0.558  14.366 -0.6635 -0.4457 -0.1139
11424TIP3   OH255686   5.589   2.466  12.127  0.6514 -0.0033  0.3847
11424TIP3    H155687   5.603   2.559  12.108  0.4277 -0.0524 -0.0297
11424TIP3    H255688   5.665   2.422  12.087 -0.6768 -0.2903 -2.0387
11425TIP3   OH255689   6.459   4.365  12.599 -0.0452 -0.5828  0.2632
11425TIP3    H155690   6.464   4.272  12.622 -0.5915 -0.1518  2.3904
11425TIP3    H255691   6.487   4.410  12.679  0.4916  1.0958 -0.8170
11426TIP3   OH255692   1.538   4.845   6.157 -0.2888 -0.8734  0.2715
11426TIP3    H155693   1.537   4.848   6.061 -1.4189 -0.2790  0.2885
11426TIP3    H255694   1.488   4.922   6.184 -1.6501 -2.0527  1.3022
11427TIP3   OH255695   6.194   1.952   6.031  0.4019 -0.0590  0.1002
11427TIP3    H155696   6.238   1.967   6.115  1.8969  1.1071 -0.8421
11427TIP3    H255697   6.266   1.949   5.967 -0.8311  1.2441 -1.4238
11428TIP3   OH255698   4.158   2.583  15.956 -0.1395 -0.2662  0.1292
11428TIP3    H155699   4.205   2.554  16.034  0.0405  0.5354  0.3229
11428TIP3    H255700   4.088   2.639  15.990  0.8433  1.3151 -0.3585
11429TIP3   OH255701   6.109   2.391   1.752  0.4140  0.8731 -0.1092
11429TIP3    H155702   6.198   2.420   1.771  1.1559 -0.2703 -1.6542
11429TIP3    H255703   6.071   2.462   1.701 -0.7054  2.7723  3.0577
11430TIP3   OH255704   3.809   6.476   2.412 -0.6991 -0.5736 -0.1762
11430TIP3    H155705   3.852   6.393   2.434 -0.1493 -0.0086  0.9924
11430TIP3    H255706   3.756   6.497   2.488 -2.2221 -0.6959 -1.1661
11431TIP3   OH255707   6.701   1.957  17.144  0.3267 -0.7255  0.0378
11431TIP3    H155708   6.756   2.036  17.142 -0.0823 -0.3923  1.1161
11431TIP3    H255709   6.619   1.983  17.102  0.4026 -0.7452 -0.1224
11432TIP3   OH255710   6.052   1.444  16.568 -0.1823  1.0337 -0.7529
11432TIP3    H155711   5.996   1.487  16.632 -3.3655 -0.1160 -2.5350
11432TIP3    H255712   6.057   1.353  16.597  0.4481  1.0396 -0.8262
11433TIP3   OH255713   4.760   5.734   2.958 -0.2073 -0.1664  0.0505
11433TIP3    H155714   4.824   5.798   2.989  0.7615 -1.9651  1.9663
11433TIP3    H255715   4.808   5.678   2.898 -0.4426 -0.5175  0.1879
11434TIP3   OH255716   5.789   0.532   4.955 -0.1317 -0.6458  0.6535
11434TIP3    H155717   5.697   0.510   4.948 -0.0079 -0.8039 -1.0146
11434TIP3    H255718   5.822   0.479   5.028 -1.3485 -0.5438  1.2931
11435TIP3   OH255719   3.214   5.921   1.007 -0.1811 -0.0615  0.5141
11435TIP3    H155720   3.212   5.976   0.929 -0.5182  0.1977  0.7051
11435TIP3    H255721   3.307   5.914   1.029 -0.0489 -0.4291 -0.1122
11436TIP3   OH255722   4.110   2.830   5.784 -0.0172 -0.0317  0.5754
11436TIP3    H155723   4.150   2.889   5.847 -0.0383  1.1353 -0.4585
11436TIP3    H255724   4.017   2.852   5.786 -0.0212  0.0048  0.1602
11437TIP3   OH255725   3.935   4.989  13.301  0.3693 -0.3595 -0.2169
11437TIP3    H155726   3.962   5.000  13.210  0.0614 -1.4009 -0.4542
11437TIP3    H255727   3.902   4.899  13.305 -0.3821 -0.0611  0.7286
11438TIP3   OH255728   0.958   4.184  15.905  0.2090 -0.8489 -0.2503
11438TIP3    H155729   0.911   4.101  15.908  1.0420 -1.3414 -0.5169
11438TIP3    H255730   0.912   4.236  15.840 -2.3507  0.1933  2.1649
11439TIP3   OH255731   1.212   2.331  12.732  0.2277  0.1543  0.2208
11439TIP3    H155732   1.136   2.276  12.752  0.2720  0.1041  0.2526
11439TIP3    H255733   1.175   2.417  12.710  0.1699  0.1713  0.3818
11440TIP3   OH255734   3.323   1.032  13.895  0.0790  0.2392 -0.1576
11440TIP3    H155735   3.319   1.106  13.955  0.6744  0.1172  0.0317
11440TIP3    H255736   3.412   1.034  13.860  0.0719 -0.3397 -0.2141
11441TIP3   OH255737   3.300   5.478   5.461 -0.2833 -0.2697  0.4028
11441TIP3    H155738   3.363   5.445   5.525  0.8396 -1.5661 -1.2798
11441TIP3    H255739   3.320   5.571   5.454  0.2069 -0.2981  1.2390
11442TIP3   OH255740   3.015   3.218   4.756 -0.1354  0.3731  0.5971
11442TIP3    H155741   3.084   3.185   4.813  0.8572 -0.1690 -0.8673
11442TIP3    H255742   3.051   3.299   4.720  0.2225 -0.4639 -1.0104
11443TIP3   OH255743   1.988   6.290   1.535  0.5913  0.5586 -0.0785
11443TIP3    H155744   1.951   6.294   1.446  0.2798  0.7280  0.0568
11443TIP3    H255745   1.982   6.198   1.559  0.9970  0.4544 -0.3664
11444TIP3   OH255746   0.935   1.478   6.802 -0.0038 -0.0389  0.1096
11444TIP3    H155747   0.929   1.383   6.800  0.7513 -0.1094 -2.4391
11444TIP3    H255748   0.999   1.500   6.734 -1.4578  2.3689 -0.6276
11445TIP3   OH255749   5.802   4.116  11.381 -0.0028 -0.4562  0.2294
11445TIP3    H155750   5.780   4.116  11.288 -0.7087  2.2724  0.3246
11445TIP3    H255751   5.895   4.138  11.384  0.5925 -2.6660  0.1768
11446TIP3   OH255752   3.235   2.174   4.950  0.0856 -0.6713 -0.3604
11446TIP3    H155753   3.222   2.094   4.900 -0.4479 -0.2691 -0.8673
11446TIP3    H255754   3.197   2.156   5.036 -0.8868 -0.6404 -0.7752
11447TIP3   OH255755   1.703   6.301   5.123 -0.3639 -0.0163  0.5432
11447TIP3    H155756   1.682   6.372   5.062 -1.3927  0.0799  0.9807
11447TIP3    H255757   1.618   6.262   5.145  0.2669 -2.4058 -0.8707
11448TIP3   OH255758   1.803   1.202   2.535 -0.5082  0.7519 -0.1519
11448TIP3    H155759   1.897   1.204   2.516 -0.2794  1.2216  0.9400
11448TIP3    H255760   1.762   1.250   2.463  0.0796  0.4948 -0.6667
11449TIP3   OH255761   3.086   3.043  13.273 -0.2539  0.3763 -0.1851
11449TIP3    H155762   3.142   3.012  13.201 -0.3336 -1.6544  0.5488
11449TIP3    H255763   3.145   3.094  13.329  0.2439  0.4207 -0.7433
11450TIP3   OH255764   2.078   2.693   0.433 -0.2555 -0.0140  0.1556
11450TIP3    H155765   2.158   2.740   0.456  0.5585 -1.5981  0.7362
11450TIP3    H255766   2.019   2.760   0.399  1.5966  1.0901 -1.0456
11451TIP3   OH255767   4.573   5.845  15.645 -0.0078 -0.3555 -0.1093
11451TIP3    H155768   4.589   5.921  15.589 -0.7026  0.0129  0.1755
11451TIP3    H255769   4.568   5.771  15.585 -1.6048  0.1548 -0.6546
11452TIP3   OH255770   1.560   6.287   2.134 -0.5390  0.2222  0.4039
11452TIP3    H155771   1.651   6.312   2.120  0.4727 -2.9305  0.7100
11452TIP3    H255772   1.512   6.370   2.133  2.0865  1.8440 -1.3443
11453TIP3   OH255773   1.045   5.711  12.280  0.1108  0.3747 -0.3742
11453TIP3    H155774   0.976   5.756  12.329 -1.2084 -1.7188 -0.1843
11453TIP3    H255775   1.038   5.619  12.307  1.2476 -0.3518 -2.3220
11454TIP3   OH255776   6.513   1.395  16.156  0.0573 -0.0843 -0.2197
11454TIP3    H155777   6.552   1.422  16.239  0.1048  1.6035 -0.7533
11454TIP3    H255778   6.583   1.350  16.110 -0.1822 -1.7086  0.9286
11455TIP3   OH255779   2.018   3.898   1.036 -0.2272 -0.6777 -0.5721
11455TIP3    H155780   1.973   3.965   0.985  0.6481 -0.9504 -1.7192
11455TIP3    H255781   2.000   3.816   0.990  2.0181 -0.7073 -1.5134
11456TIP3   OH255782   2.131   0.119   3.562 -0.1296  0.2183 -0.1405
11456TIP3    H155783   2.204   0.179   3.554 -0.2970  0.9217  2.6249
11456TIP3    H255784   2.143   0.077   3.647  0.2706 -4.1574 -2.0617
11457TIP3   OH255785   5.090   3.421  15.600 -0.2082  0.2076 -0.0073
11457TIP3    H155786   5.010   3.387  15.559 -0.7965  0.7359  0.6770
11457TIP3    H255787   5.110   3.500  15.550 -0.0413  0.0182 -0.2459
11458TIP3   OH255788   4.781   1.310   6.447 -0.2176 -0.2547 -0.0471
11458TIP3    H155789   4.700   1.259   6.439 -0.2289 -0.4443  1.0449
11458TIP3    H255790   4.851   1.246   6.441 -0.1429 -0.1162 -0.7822
11459TIP3   OH255791   6.086   4.246   0.398 -0.1193  0.3647 -0.1127
11459TIP3    H155792   6.102   4.309   0.327 -0.3044 -0.0400 -0.5245
11459TIP3    H255793   5.990   4.244   0.407 -0.1272 -0.0066 -0.2486
11460TIP3   OH255794   6.612   0.153   4.591 -0.4565 -0.8522  0.2425
11460TIP3    H155795   6.555   0.200   4.652  0.3583  0.7562 -0.1927
11460TIP3    H255796   6.554   0.131   4.517 -0.5426  0.9052 -0.2699
11461TIP3   OH255797   6.173   4.660   2.112  0.2317  0.6779  0.5293
11461TIP3    H155798   6.250   4.648   2.057  1.0390  0.3182  1.7099
11461TIP3    H255799   6.099   4.656   2.050  1.0436 -0.6790 -0.4152
11462TIP3   OH255800   3.424   2.469   0.367  0.1066  0.7420  0.4155
11462TIP3    H155801   3.366   2.545   0.355 -0.2425  0.5657  0.9421
11462TIP3    H255802   3.444   2.440   0.278  1.1570  2.1306  0.1687
11463TIP3   OH255803   1.665   6.536   4.970 -0.2838  0.1651 -0.1852
11463TIP3    H155804   1.675   6.631   4.970  0.0620  0.1575 -2.1251
11463TIP3    H255805   1.572   6.522   4.953 -0.5738  0.1195  1.2510
11464TIP3   OH255806   3.905   1.105  12.633  0.1447 -0.2617 -0.4548
11464TIP3    H155807   3.837   1.059  12.584 -1.4642  1.1361  0.3564
11464TIP3    H255808   3.942   1.166  12.570  0.4411 -0.7964 -0.8106
11465TIP3   OH255809   6.364   5.786  13.955 -0.3055  0.3521  0.3935
11465TIP3    H155810   6.377   5.704  14.004 -0.2337 -2.3675 -3.6528
11465TIP3    H255811   6.448   5.831  13.961  0.6169 -1.2783  0.5331
11466TIP3   OH255812   6.646   4.960   5.686  0.4436 -0.3926 -0.2648
11466TIP3    H155813   6.670   4.953   5.778  2.9265  0.7971 -0.7492
11466TIP3    H255814   6.690   4.887   5.644 -0.5723 -0.8527 -0.5702
11467TIP3   OH255815   5.453   6.163  15.217 -0.6316  0.5182 -0.0865
11467TIP3    H155816   5.537   6.119  15.235 -1.8292 -2.1897 -0.5743
11467TIP3    H255817   5.432   6.208  15.298  0.5646 -0.0349  0.5629
11468TIP3   OH255818   6.450   4.048  14.429  0.2411  0.6180  0.4232
11468TIP3    H155819   6.414   4.123  14.381  0.2792  0.8104  0.6911
11468TIP3    H255820   6.420   4.061  14.519 -2.6984 -1.4955 -0.1062
11469TIP3   OH255821   6.094   1.000   3.093 -1.3257 -0.3369  0.2421
11469TIP3    H155822   6.166   1.038   3.042  0.1834 -1.5616  1.3730
11469TIP3    H255823   6.082   1.061   3.166 -2.3883  0.5606 -0.6357
11470TIP3   OH255824   1.863   3.264  12.432  0.0671 -0.0609 -0.1737
11470TIP3    H155825   1.873   3.299  12.521  0.5606 -1.7205  0.4747
11470TIP3    H255826   1.776   3.293  12.405  0.0406  0.7613  0.7222
11471TIP3   OH255827   5.916   6.077  10.715 -0.5131  0.3180  0.2106
11471TIP3    H155828   5.899   6.031  10.797 -3.2455 -1.2660 -1.1401
11471TIP3    H255829   5.848   6.144  10.711  1.3387  2.3371  0.4912
11472TIP3   OH255830   3.065   2.185  10.977  0.1536  0.1113  0.0784
11472TIP3    H155831   3.083   2.270  10.936  0.4083 -0.3993 -0.9051
11472TIP3    H255832   3.112   2.188  11.060 -0.5630  1.2642  0.4610
11473TIP3   OH255833   2.851   5.257   3.648  0.0372 -0.0304  0.6081
11473TIP3    H155834   2.920   5.216   3.700  0.9668 -0.8267 -1.1348
11473TIP3    H255835   2.806   5.184   3.606 -2.2548  0.4383  2.0694
11474TIP3   OH255836   6.300   5.879  15.307  0.0600 -0.5539 -0.4868
11474TIP3    H155837   6.223   5.881  15.251  1.2384 -1.8186 -2.2726
11474TIP3    H255838   6.374   5.873  15.246  1.4834 -1.0947  1.1910
11475TIP3   OH255839   5.701   2.957   3.144 -0.0706 -0.6538 -0.1878
11475TIP3    H155840   5.738   2.972   3.231 -1.4154 -2.7386  0.8262
11475TIP3    H255841   5.614   2.923   3.160 -0.1438 -1.6647 -2.3475
11476TIP3   OH255842   6.231   5.064   0.505  0.1559 -0.1373 -0.2514
11476TIP3    H155843   6.216   4.985   0.556 -2.6764 -0.2462 -1.0681
11476TIP3    H255844   6.280   5.035   0.428  1.4232 -0.5649  0.6737
11477TIP3   OH255845   1.153   3.804   3.360  0.2855 -0.1904 -0.2196
11477TIP3    H155846   1.134   3.774   3.449 -1.2673  0.8729 -0.1717
11477TIP3    H255847   1.236   3.850   3.368  0.2644 -0.2816  0.6397
11478TIP3   OH255848   1.933   5.022  12.517 -0.4683 -0.5571 -0.0003
11478TIP3    H155849   1.985   4.962  12.465 -0.9452  0.4461 -1.7220
11478TIP3    H255850   1.907   5.091  12.456 -0.0199  1.3738  1.8444
11479TIP3   OH255851   0.326   5.660  14.421  0.8511 -0.0758 -0.4093
11479TIP3    H155852   0.386   5.716  14.373  0.9437 -0.3042 -0.5611
11479TIP3    H255853   0.374   5.635  14.500  1.4092 -1.1995 -1.0763
11480TIP3   OH255854   2.990   6.530  15.252 -0.0916 -0.3189 -0.1174
11480TIP3    H155855   2.949   6.601  15.203  0.0220 -0.1450  0.0380
11480TIP3    H255856   2.982   6.557  15.344  1.1613  0.1459 -0.1299
11481TIP3   OH255857   1.260   5.500  13.110 -1.0649  0.1961  0.9306
11481TIP3    H155858   1.273   5.588  13.076 -0.3243 -0.3624 -0.3115
11481TIP3    H255859   1.259   5.510  13.205 -0.4892  1.4664  0.8181
11482TIP3   OH255860   1.022   2.747   2.474 -0.2504 -0.3048  0.4582
11482TIP3    H155861   1.088   2.681   2.495  0.6126  0.6636  0.8984
11482TIP3    H255862   1.026   2.755   2.378  1.0665  0.4911  0.5463
11483TIP3   OH255863   6.779   2.045  14.594  0.5775 -0.9926  0.7497
11483TIP3    H155864   6.692   2.064  14.560  0.2810 -0.8264  1.5796
11483TIP3    H255865   6.764   1.991  14.671  1.1976 -0.8201  1.0003
11484TIP3   OH255866   4.085   0.589   0.440  0.0144  0.0227  0.0348
11484TIP3    H155867   4.109   0.654   0.505  0.5425  0.0845 -0.2193
11484TIP3    H255868   3.997   0.561   0.465  0.5692 -0.6519  1.3366
11485TIP3   OH255869   1.633   1.483   2.563 -0.1976 -0.3153 -0.7979
11485TIP3    H155870   1.619   1.451   2.474 -1.2496 -0.5275 -0.5656
11485TIP3    H255871   1.561   1.545   2.578  0.5624  0.5110 -0.4581
11486TIP3   OH255872   0.227   3.346  14.545  0.3396 -0.0240  0.0216
11486TIP3    H155873   0.232   3.413  14.476 -2.8265 -1.8996 -2.3598
11486TIP3    H255874   0.315   3.311  14.552  0.9349  0.6562 -2.7815
11487TIP3   OH255875   4.055   3.492   4.351  0.4077 -0.5852 -0.1416
11487TIP3    H155876   4.022   3.403   4.345 -0.2941 -0.4902  1.5633
11487TIP3    H255877   4.121   3.499   4.282  1.0649 -2.6839  0.2088
11488TIP3   OH255878   4.621   3.570   0.180 -0.1856  0.4737 -0.3615
11488TIP3    H155879   4.630   3.495   0.120 -0.6144  1.8102 -2.2055
11488TIP3    H255880   4.681   3.635   0.145  0.5321  0.8657  1.4925
11489TIP3   OH255881   6.590   5.352   4.286 -0.5855  0.1488  0.4208
11489TIP3    H155882   6.627   5.265   4.270 -0.0188  0.3571  0.5845
11489TIP3    H255883   6.600   5.398   4.202  3.5458  1.6729  1.4877
11490TIP3   OH255884   1.391   1.137   4.455  0.2901 -0.6366 -0.0919
11490TIP3    H155885   1.360   1.222   4.423 -0.3213 -1.9279 -3.2799
11490TIP3    H255886   1.477   1.155   4.492 -1.4287  1.9903  3.2504
11491TIP3   OH255887   3.221   2.894  17.132 -0.1273 -0.3056  0.1032
11491TIP3    H155888   3.311   2.923  17.146 -0.6681  1.6539 -0.2178
11491TIP3    H255889   3.201   2.920  17.041 -1.0636 -0.5497  0.2291
11492TIP3   OH255890   3.139   0.218  16.111 -0.2038  0.2628 -0.4832
11492TIP3    H155891   3.124   0.197  16.203 -0.7226  0.1544 -0.5906
11492TIP3    H255892   3.082   0.158  16.063  0.2340  0.1611 -0.8849
11493TIP3   OH255893   4.103   5.666   3.274  0.1112  0.2602 -0.2145
11493TIP3    H155894   4.049   5.597   3.237  0.5751 -0.0606 -0.2940
11493TIP3    H255895   4.106   5.734   3.206  1.7469 -0.7274 -1.1997
11494TIP3   OH255896   5.649   3.867  12.194  0.0465  0.0777 -0.0113
11494TIP3    H155897   5.695   3.818  12.262  0.5351 -0.5281 -0.7585
11494TIP3    H255898   5.694   3.842  12.113 -0.8976  0.3390 -0.6235
11495TIP3   OH255899   2.637   1.016  13.854  0.2815  0.4533 -0.1055
11495TIP3    H155900   2.569   0.991  13.792 -1.1305  0.3297  1.4186
11495TIP3    H255901   2.709   0.957  13.836 -1.4521 -2.0813  0.7200
11496TIP3   OH255902   4.546   6.687  12.110  0.4663  0.5647  0.6293
11496TIP3    H155903   4.528   6.781  12.117  1.0981  0.7052  0.4506
11496TIP3    H255904   4.460   6.647  12.101  0.2735  1.3015 -1.4436
11497TIP3   OH255905   6.185   3.916   4.629 -0.5465  0.2761  0.2432
11497TIP3    H155906   6.216   3.985   4.570 -0.6600  0.6206  0.5838
11497TIP3    H255907   6.133   3.962   4.695 -0.7858 -0.1574  0.3635
11498TIP3   OH255908   5.395   0.984   2.879  0.0553  0.1393  0.2017
11498TIP3    H155909   5.326   1.008   2.817 -0.7654  1.2003  1.4753
11498TIP3    H255910   5.476   1.014   2.838 -0.3078 -0.4051 -0.9548
11499TIP3   OH255911   5.659   2.512  13.237 -0.5903  0.4907  0.4330
11499TIP3    H155912   5.619   2.526  13.322  2.1934  0.4091  1.8703
11499TIP3    H255913   5.657   2.417  13.225 -0.5533  0.4609  0.6600
11500TIP3   OH255914   3.105   3.041  12.421  0.0379  0.1339 -0.1342
11500TIP3    H155915   3.172   2.977  12.397  0.3052  0.9975 -1.8598
11500TIP3    H255916   3.131   3.121  12.375 -0.7504  1.2535  1.2827
11501TIP3   OH255917   3.971   2.188  14.621 -0.5359  0.4918  0.1967
11501TIP3    H155918   3.946   2.278  14.641 -0.3659  0.5274  0.2493
11501TIP3    H255919   4.044   2.169  14.680  0.6913  0.9667 -1.1038
11502TIP3   OH255920   1.790   1.379  16.619  0.0002 -0.0017  0.4856
11502TIP3    H155921   1.795   1.450  16.554 -0.0064 -1.2705 -0.9704
11502TIP3    H255922   1.835   1.413  16.696 -0.8308  1.9283  0.1799
11503TIP3   OH255923   4.293   1.152   5.638  0.4260 -0.3142 -0.7815
11503TIP3    H155924   4.276   1.196   5.722  1.1996  0.3143 -0.9433
11503TIP3    H255925   4.261   1.063   5.651 -2.4578  0.6038 -0.8850
11504TIP3   OH255926   2.419   2.199   1.762 -0.0079  0.2020  0.0680
11504TIP3    H155927   2.494   2.222   1.707 -0.2760 -0.8959 -0.7925
11504TIP3    H255928   2.446   2.121   1.809 -0.1409  0.5727  0.7735
11505TIP3   OH255929   6.059   3.096   3.826  0.7060  0.5067  0.3221
11505TIP3    H155930   6.092   3.186   3.821 -0.2645  0.9514  1.4204
11505TIP3    H255931   5.971   3.105   3.863  1.2184 -1.0373  2.0478
11506TIP3   OH255932   3.202   1.228   1.563 -0.9937 -0.4385  0.6237
11506TIP3    H155933   3.268   1.267   1.621  0.1815 -1.4732  0.0455
11506TIP3    H255934   3.125   1.216   1.618 -0.6732  0.6935  1.3564
11507TIP3   OH255935   6.323   5.992   6.205  0.1899  0.4042  0.5277
11507TIP3    H155936   6.374   6.016   6.283  1.6111  1.0895 -0.5631
11507TIP3    H255937   6.259   5.929   6.237  1.0995  0.2459  2.1586
11508TIP3   OH255938   5.389   6.583   0.242 -0.3180 -0.2073 -0.0607
11508TIP3    H155939   5.338   6.663   0.255  0.9200  0.4287  1.1744
11508TIP3    H255940   5.464   6.593   0.301  0.4899 -1.7429 -0.7747
11509TIP3   OH255941   4.156   3.765  11.289 -0.3059 -0.3570 -0.4097
11509TIP3    H155942   4.094   3.693  11.297 -1.2898  0.4554 -0.4068
11509TIP3    H255943   4.242   3.725  11.297 -0.6205 -2.0293 -3.8051
11510TIP3   OH255944   2.909   3.449  14.173  0.3886 -0.5143 -0.2592
11510TIP3    H155945   2.962   3.402  14.237 -1.2310  1.3101  2.6711
11510TIP3    H255946   2.823   3.407  14.177  0.4766 -0.9057 -1.9370
11511TIP3   OH255947   3.287   6.111  11.279  0.4438 -0.4666  0.5707
11511TIP3    H155948   3.294   6.052  11.204 -0.3517 -1.0011  0.9008
11511TIP3    H255949   3.374   6.150  11.288  0.7431 -0.9535 -0.1764
11512TIP3   OH255950   1.420   2.298  12.322  0.2711  0.5312  0.0837
11512TIP3    H155951   1.433   2.368  12.258 -0.2283  1.7647  1.2821
11512TIP3    H255952   1.350   2.245  12.283  2.2946 -0.7979 -1.9912
11513TIP3   OH255953   5.039   5.912   0.631  0.0500  0.3544 -0.1014
11513TIP3    H155954   5.033   5.818   0.648 -1.3695  0.6440  1.2914
11513TIP3    H255955   5.131   5.928   0.614  1.0861 -0.7516  3.5927
11514TIP3   OH255956   6.379   5.628   2.447 -0.0483 -1.0384 -0.0160
11514TIP3    H155957   6.465   5.622   2.488  0.1794  1.4647  0.0020
11514TIP3    H255958   6.397   5.620   2.353  0.2020 -0.5244 -0.0120
11515TIP3   OH255959   5.875   5.838   5.528 -0.1041 -0.1063 -0.0184
11515TIP3    H155960   5.929   5.849   5.449 -0.2761 -1.5180 -0.3628
11515TIP3    H255961   5.873   5.743   5.542 -0.5052  0.0961  1.3993
11516TIP3   OH255962   1.567   5.368   0.268  0.0750  0.1721 -0.5765
11516TIP3    H155963   1.610   5.284   0.284 -0.3549  0.2314  1.1016
11516TIP3    H255964   1.639   5.430   0.256  0.5460  0.2550  2.1222
11517TIP3   OH255965   6.555   5.571   1.890  0.3311  0.0741  0.0393
11517TIP3    H155966   6.636   5.520   1.885  0.7323  0.4242  2.0403
11517TIP3    H255967   6.556   5.626   1.811  2.5067  0.7062  0.4454
11518TIP3   OH255968   1.005   2.765  12.492 -0.5574  0.7420 -0.0398
11518TIP3    H155969   0.959   2.841  12.456  0.4305  1.3298 -0.0995
11518TIP3    H255970   0.997   2.697  12.425  0.9849  1.7226 -1.2846
11519TIP3   OH255971   6.265   2.206  12.310  0.2004  0.4669 -0.1316
11519TIP3    H155972   6.318   2.280  12.339 -1.0058  1.2496  0.0981
11519TIP3    H255973   6.193   2.245  12.261  0.1981 -0.6272 -1.0399
11520TIP3   OH255974   0.008   0.720  13.326 -0.0519  0.3237 -0.3074
11520TIP3    H155975  -0.068   0.777  13.342 -2.2637 -2.2515 -0.9129
11520TIP3    H255976   0.002   0.699  13.233  1.3809 -0.0134 -0.3328
11521TIP3   OH255977   4.453   4.507   3.593  0.2612  0.4581 -0.3924
11521TIP3    H155978   4.514   4.539   3.659 -0.3762  0.7330  0.0760
11521TIP3    H255979   4.368   4.506   3.638  0.0548 -0.6607 -0.7916
11522TIP3   OH255980   1.660   2.543  13.840 -0.3883  0.3869 -0.3962
11522TIP3    H155981   1.585   2.552  13.782 -0.4133 -0.5002 -0.5074
11522TIP3    H255982   1.629   2.576  13.925 -1.0343 -0.3572 -0.3331
11523TIP3   OH255983   3.776   6.515   2.995  0.0649 -0.1909  0.1391
11523TIP3    H155984   3.866   6.532   3.024  0.0371  2.2222 -0.9607
11523TIP3    H255985   3.722   6.572   3.051 -0.6595 -0.7016 -0.0332
11524TIP3   OH255986   2.598   3.770   5.145  0.2681  0.5613 -0.1433
11524TIP3    H155987   2.562   3.775   5.056  1.7813  0.1501 -0.7996
11524TIP3    H255988   2.667   3.836   5.148  0.6976  0.0991  0.5063
11525TIP3   OH255989   0.245   0.178  15.298  0.2136  0.3052  0.3142
11525TIP3    H155990   0.316   0.175  15.363 -0.7219 -1.3883  1.3286
11525TIP3    H255991   0.167   0.199  15.349 -0.1106  1.7820 -0.7397
11526TIP3   OH255992   4.559   0.529   5.692 -0.2881  0.5675  0.2454
11526TIP3    H155993   4.531   0.607   5.645  1.6140  1.3549  0.3309
11526TIP3    H255994   4.542   0.550   5.784  1.0507  1.2812  0.3492
11527TIP3   OH255995   1.195   1.899   3.304  0.0748  0.1391  0.6608
11527TIP3    H155996   1.223   1.825   3.249 -0.8765 -0.0642  0.4218
11527TIP3    H255997   1.249   1.972   3.275 -2.1102  0.7168 -2.4507
11528TIP3   OH255998   4.721   0.660  16.585  0.1702  0.1083 -0.0084
11528TIP3    H155999   4.798   0.716  16.572  0.5438 -0.0314  1.4490
11528TIP3    H256000   4.663   0.712  16.641  0.5232 -0.9210  1.3659
11529TIP3   OH256001   5.135   0.546  16.441 -0.0592 -0.4209 -0.4732
11529TIP3    H156002   5.095   0.524  16.525  1.4716 -1.0691  0.1329
11529TIP3    H256003   5.161   0.638  16.450  3.6009 -1.4415  1.3712
11530TIP3   OH256004   0.509   1.773  12.481 -0.4204 -0.3348 -0.0784
11530TIP3    H156005   0.452   1.737  12.549 -1.3400 -3.1124 -2.1011
11530TIP3    H256006   0.457   1.842  12.440 -0.1699  0.7992  1.4344
11531TIP3   OH256007   3.941   3.607   2.024 -0.6807 -0.1043  0.5855
11531TIP3    H156008   3.984   3.544   2.081 -0.7150 -0.6407  0.0324
11531TIP3    H256009   3.851   3.573   2.015  0.1307 -1.8755 -2.3474
11532TIP3   OH256010   0.296   3.347   6.175 -0.1951 -0.6685  0.1325
11532TIP3    H156011   0.386   3.377   6.171 -0.4949  0.1741 -0.7640
11532TIP3    H256012   0.285   3.314   6.264  2.0903 -4.4195 -0.7497
11533TIP3   OH256013   6.628   2.781  14.338  0.0719  0.3464  0.1990
11533TIP3    H156014   6.671   2.866  14.345 -0.8252  0.7424  1.0655
11533TIP3    H256015   6.694   2.718  14.368  1.3396  0.4950 -2.0074
11534TIP3   OH256016   4.440   1.666   0.404  0.5685  0.3071 -0.2245
11534TIP3    H156017   4.369   1.730   0.403  1.7858  1.7255 -0.1097
11534TIP3    H256018   4.476   1.672   0.493  2.1702  1.2213 -0.8860
11535TIP3   OH256019   6.486   1.371  13.717 -0.3954  0.5066  0.3059
11535TIP3    H156020   6.411   1.424  13.692  0.8358  1.5964 -1.2657
11535TIP3    H256021   6.501   1.313  13.642  2.1559  2.4602 -0.8343
11536TIP3   OH256022   0.380   6.226   0.697  0.2172  0.1560  0.2812
11536TIP3    H156023   0.344   6.287   0.760  0.6077  2.1871 -1.3698
11536TIP3    H256024   0.304   6.191   0.650  0.0366 -0.1584  0.7993
11537TIP3   OH256025   4.883   2.194   6.359  0.3052 -0.0826  0.2158
11537TIP3    H156026   4.933   2.144   6.423  0.9577 -1.4245 -1.2552
11537TIP3    H256027   4.792   2.178   6.381  0.4857 -2.3003 -0.4050
11538TIP3   OH256028   4.841   2.373   2.228  0.6097 -0.0315 -0.2452
11538TIP3    H156029   4.858   2.291   2.181 -0.9611 -0.1280 -0.7096
11538TIP3    H256030   4.872   2.356   2.317  0.9482 -0.8929 -0.5147
11539TIP3   OH256031   0.369   1.606  15.613  0.6161 -0.0635  0.2878
11539TIP3    H156032   0.463   1.595  15.622  0.6602  0.4310  0.4590
11539TIP3    H256033   0.357   1.644  15.526  0.5095 -0.8883 -0.0651
11540TIP3   OH256034   0.668   0.176   0.218  0.4703  0.4095  0.2548
11540TIP3    H156035   0.619   0.253   0.188  1.1257  0.6466 -0.2481
11540TIP3    H256036   0.750   0.212   0.252  1.2036 -0.1235 -0.8813
11541TIP3   OH256037   0.392   3.312  16.447 -0.2366 -0.3140 -0.0673
11541TIP3    H156038   0.330   3.342  16.381  0.2456 -0.3325 -0.5416
11541TIP3    H256039   0.346   3.320  16.530 -1.3078 -1.4614 -0.5177
11542TIP3   OH256040   6.296   2.891   0.295 -0.1071 -0.0625 -0.1498
11542TIP3    H156041   6.261   2.975   0.323 -0.0448  0.0372 -0.3723
11542TIP3    H256042   6.220   2.844   0.261 -0.1288 -0.0705 -0.0916
11543TIP3   OH256043   3.077   2.416   4.798 -0.2421 -0.3779 -0.4990
11543TIP3    H156044   3.123   2.342   4.837 -2.1847 -0.4293  1.9548
11543TIP3    H256045   3.055   2.473   4.872 -3.1093  0.1551 -1.6296
11544TIP3   OH256046   0.393   5.035   3.426  0.1197 -0.0900 -0.1358
11544TIP3    H156047   0.442   5.025   3.507 -1.0465 -1.2312  0.4655
11544TIP3    H256048   0.360   4.948   3.406  0.5357  0.1248 -1.9692
11545TIP3   OH256049   5.794   6.667   4.526  0.1694  0.2237  0.2388
11545TIP3    H156050   5.745   6.649   4.606  1.8473 -0.6146  1.1476
11545TIP3    H256051   5.884   6.639   4.547  0.4945 -0.8192 -2.2041
11546TIP3   OH256052   5.677   2.875  15.511  0.2299  0.3479 -0.2593
11546TIP3    H156053   5.626   2.956  15.504 -0.4127 -0.1375 -1.3473
11546TIP3    H256054   5.691   2.864  15.605 -1.3273  0.7116  0.0398
11547TIP3   OH256055   3.530   6.243   4.343  0.0880 -0.4325  0.1325
11547TIP3    H156056   3.474   6.321   4.346 -0.7179 -1.0257  1.2310
11547TIP3    H256057   3.525   6.207   4.431  1.5735 -0.9615  0.0173
11548TIP3   OH256058   2.074   4.302  14.342 -0.2164 -0.0697  0.3231
11548TIP3    H156059   2.077   4.394  14.370 -0.3716 -0.0364  0.2288
11548TIP3    H256060   2.160   4.287  14.303  0.0434 -0.1456  0.9113
11549TIP3   OH256061   6.545   5.036   4.627 -0.1467 -0.3805 -0.1289
11549TIP3    H156062   6.518   4.976   4.697  0.9894 -1.6457 -0.7187
11549TIP3    H256063   6.465   5.056   4.579 -0.8699  0.1529  1.2492
11550TIP3   OH256064   0.047   0.248   2.306 -0.3120 -0.2874  0.0215
11550TIP3    H156065   0.026   0.160   2.337 -2.5326 -0.1013 -0.7864
11550TIP3    H256066   0.134   0.265   2.341 -0.1244 -2.5121  0.8078
11551TIP3   OH256067   3.483   6.528  10.370  0.1192  0.2148 -0.2479
11551TIP3    H156068   3.436   6.550  10.289 -1.7122  0.5706  0.8384
11551TIP3    H256069   3.453   6.595  10.433  1.1734 -0.2969  0.8258
11552TIP3   OH256070   5.458   2.114   3.893 -0.7768  0.4100  0.2022
11552TIP3    H156071   5.520   2.051   3.855 -0.4945  0.2868  0.8614
11552TIP3    H256072   5.419   2.157   3.817  1.7222  2.0599 -0.2824
11553TIP3   OH256073   3.214   0.805  12.695 -0.2250  0.6575 -0.2329
11553TIP3    H156074   3.257   0.723  12.670 -0.4793  0.7357 -0.9448
11553TIP3    H256075   3.274   0.845  12.758  0.3302  0.3488 -0.5580
11554TIP3   OH256076   0.856   1.640   0.599 -0.1391 -0.1733  0.0370
11554TIP3    H156077   0.811   1.574   0.652  0.7069 -0.3167  0.6004
11554TIP3    H256078   0.876   1.710   0.661  0.9294 -0.3796 -0.0571
11555TIP3   OH256079   4.913   3.274   3.991 -0.2647 -0.2946 -0.3493
11555TIP3    H156080   4.849   3.233   3.932  1.0009 -1.7944 -0.7453
11555TIP3    H256081   4.993   3.280   3.939  0.0264  1.2708  0.2329
11556TIP3   OH256082   6.235   3.836   4.265 -0.2361 -0.0526  0.7102
11556TIP3    H156083   6.200   3.888   4.192  2.2060  1.6751  0.6125
11556TIP3    H256084   6.243   3.899   4.337  1.4438 -0.5926  1.0499
11557TIP3   OH256085   0.244   6.428   1.683 -0.1995  0.3167  0.1742
11557TIP3    H156086   0.211   6.442   1.772 -2.1518  0.4979 -0.5268
11557TIP3    H256087   0.212   6.504   1.634  1.1289  0.3861 -0.6300
11558TIP3   OH256088   6.228   0.693  13.937 -0.0940  0.0302 -0.1829
11558TIP3    H156089   6.185   0.761  13.988  0.9883  1.6130 -1.2905
11558TIP3    H256090   6.253   0.626  14.002  0.4382  1.5322  1.2311
11559TIP3   OH256091   6.044   4.670   4.164  0.0038 -0.3459  0.2065
11559TIP3    H156092   6.129   4.672   4.208 -0.1457 -0.1320  0.4903
11559TIP3    H256093   5.985   4.632   4.228 -0.3924  0.7710  0.5174
11560TIP3   OH256094   2.444   1.067   3.627 -0.2839  0.6647 -0.1768
11560TIP3    H156095   2.446   1.111   3.713 -0.3409 -3.0268  1.9274
11560TIP3    H256096   2.353   1.076   3.599 -0.0524  2.7578 -0.4052
11561TIP3   OH256097   1.089   2.862  13.539 -0.0488  0.4239 -0.3881
11561TIP3    H156098   1.070   2.894  13.627  0.0615  1.2634 -0.6543
11561TIP3    H256099   1.015   2.891  13.486  0.5289  1.1459 -0.8388
11562TIP3   OH256100   2.085   3.994  13.141 -0.4637  0.0843  0.3607
11562TIP3    H156101   2.139   4.060  13.098  0.8606 -0.5021  1.0828
11562TIP3    H256102   2.022   4.045  13.193 -0.8494  0.7696 -0.7286
11563TIP3   OH256103   0.613   2.861   2.689  0.0167 -0.2334 -0.5970
11563TIP3    H156104   0.665   2.868   2.769 -1.0332  1.7442 -0.0206
11563TIP3    H256105   0.639   2.936   2.637 -1.8106  0.5160 -0.5146
11564TIP3   OH256106   4.649   4.539  14.983  0.4837  0.0127  0.1262
11564TIP3    H156107   4.688   4.478  14.920 -1.3547 -2.2228  0.9836
11564TIP3    H256108   4.690   4.516  15.066 -1.1500 -1.0619  0.6914
11565TIP3   OH256109   3.812   5.804  12.523  0.4440 -0.0076 -0.4274
11565TIP3    H156110   3.851   5.838  12.603 -0.7369  3.1856 -1.0918
11565TIP3    H256111   3.771   5.721  12.549 -1.5884  1.8352  2.8054
11566TIP3   OH256112   0.538   0.998   5.039 -0.3188 -0.7468 -0.2039
11566TIP3    H156113   0.482   1.061   4.993  0.7511  0.0677 -0.4300
11566TIP3    H256114   0.478   0.948   5.094 -1.1604  0.7242  0.2741
11567TIP3   OH256115   4.926   0.324  11.250 -0.1155  0.2944 -0.1843
11567TIP3    H156116   4.944   0.281  11.333 -0.4797 -0.9752 -0.7303
11567TIP3    H256117   4.836   0.357  11.259  0.7136  2.4917  0.8353
11568TIP3   OH256118   0.489   5.418   5.086  0.0828  0.3787  0.0434
11568TIP3    H156119   0.513   5.326   5.081  2.3647  0.9834 -3.5049
11568TIP3    H256120   0.534   5.451   5.164  0.6659 -1.1142  0.3709
11569TIP3   OH256121   4.494   2.400   5.577  0.0983 -0.1041 -0.3824
11569TIP3    H156122   4.559   2.380   5.643  0.0628 -1.7992 -0.8191
11569TIP3    H256123   4.518   2.487   5.545  0.6873  0.3177  1.1380
11570TIP3   OH256124   3.093   2.354  17.054  0.2771  0.0598 -0.4239
11570TIP3    H156125   3.186   2.351  17.076  0.3308 -1.3970 -0.7293
11570TIP3    H256126   3.050   2.311  17.128 -0.1588  0.7484 -0.2750
11571TIP3   OH256127   2.279   1.699   4.693 -0.3330  0.1327  0.4804
11571TIP3    H156128   2.227   1.763   4.741 -1.3009 -0.4542  0.2384
11571TIP3    H256129   2.220   1.666   4.625  0.4098 -0.4346  0.0903
11572TIP3   OH256130   6.149   3.931  13.867 -0.7918 -0.6752 -0.4781
11572TIP3    H156131   6.228   3.886  13.837 -1.9340 -1.6600 -2.1734
11572TIP3    H256132   6.113   3.874  13.935 -0.9101 -1.0897 -0.8802
11573TIP3   OH256133   2.791   1.657  15.654 -0.3799 -0.5452  0.0604
11573TIP3    H156134   2.875   1.611  15.663  0.2626  0.4081 -0.9129
11573TIP3    H256135   2.806   1.742  15.697 -0.6763 -0.1669 -0.5814
11574TIP3   OH256136   0.814   3.958  14.352 -0.1983  0.1493 -0.2600
11574TIP3    H156137   0.835   3.879  14.402  0.4825  0.7514  0.4311
11574TIP3    H256138   0.898   3.989  14.319 -0.1705  1.6385  1.0804
11575TIP3   OH256139   5.964   6.293  15.529 -0.7407  0.2379  0.4944
11575TIP3    H156140   5.887   6.327  15.576 -1.5207 -0.9045  0.0751
11575TIP3    H256141   5.934   6.212  15.489 -0.1282  1.1822 -2.0361
11576TIP3   OH256142   2.344   5.365  12.481  0.2978 -0.1161 -0.4707
11576TIP3    H156143   2.283   5.301  12.515 -0.8989  2.6810  3.3137
11576TIP3    H256144   2.430   5.334  12.509 -0.0101 -1.0118 -0.4875
11577TIP3   OH256145   2.589   1.734   4.980 -0.5567 -0.7642 -0.0824
11577TIP3    H156146   2.534   1.783   5.042 -1.2244 -0.9194 -0.5400
11577TIP3    H256147   2.595   1.646   5.019 -0.7467 -0.7849 -0.0983
11578TIP3   OH256148   6.017   5.496   1.588  0.1397  0.1427  0.5683
11578TIP3    H156149   6.020   5.578   1.539  4.4117  0.0428  0.2473
11578TIP3    H256150   6.037   5.521   1.679 -1.9975 -0.2803  1.2113
11579TIP3   OH256151   6.492   5.754  12.257  0.0059  0.1905 -0.6904
11579TIP3    H156152   6.547   5.729  12.182  1.0584 -0.2005  0.1894
11579TIP3    H256153   6.412   5.703  12.246  1.6279 -2.8642  0.4408
11580TIP3   OH256154   6.383   3.692  14.624 -0.5847  0.1072 -0.5057
11580TIP3    H156155   6.318   3.762  14.636 -1.2808 -0.5368 -0.5010
11580TIP3    H256156   6.453   3.734  14.573 -0.5095  1.0984  0.3653
11581TIP3   OH256157   4.336   4.139  12.321 -0.5371 -0.4681  0.1884
11581TIP3    H156158   4.304   4.080  12.388 -0.3633 -0.8621 -0.0748
11581TIP3    H256159   4.370   4.082  12.252  0.1485 -0.0666  0.1811
11582TIP3   OH256160   5.422   3.912  16.242 -0.6701 -0.1700  0.7695
11582TIP3    H156161   5.505   3.865  16.234  0.9499  2.5905 -0.2232
11582TIP3    H256162   5.392   3.923  16.152 -1.3958  0.0377  1.0292
11583TIP3   OH256163   0.741   2.206   5.961 -0.4605  0.4412 -0.0630
11583TIP3    H156164   0.715   2.152   6.035  0.3575 -1.0697 -0.8218
11583TIP3    H256165   0.758   2.143   5.890 -1.1115  1.8079 -1.5141
11584TIP3   OH256166   3.572   0.494   1.249 -0.3526  0.3280  0.2560
11584TIP3    H156167   3.589   0.487   1.155  0.7710  0.1411  0.4621
11584TIP3    H256168   3.554   0.404   1.277 -2.9465  0.6551 -0.1614
11585TIP3   OH256169   6.264   1.297  14.900  0.4339  0.0736 -0.3210
11585TIP3    H156170   6.336   1.247  14.861  0.0185 -0.1239 -0.8532
11585TIP3    H256171   6.255   1.262  14.988  0.9283  0.0360 -0.2827
11586TIP3   OH256172   3.694   2.988  15.590 -0.0108  0.2279  0.3644
11586TIP3    H156173   3.701   3.083  15.581 -2.7677  0.5868  0.8768
11586TIP3    H256174   3.719   2.953  15.505  3.4541  1.1307  0.8591
11587TIP3   OH256175   2.171   2.387  12.195 -0.1274  0.0250 -0.2691
11587TIP3    H156176   2.145   2.461  12.140  0.0528 -1.1627 -1.9907
11587TIP3    H256177   2.206   2.428  12.275 -1.0425  1.7614 -0.7127
11588TIP3   OH256178   0.828   2.363  11.909 -0.7321  0.0338 -0.8636
11588TIP3    H156179   0.853   2.316  11.989 -1.3709 -0.0159 -0.6801
11588TIP3    H256180   0.878   2.321  11.839 -0.7741 -0.4629 -0.6023
11589TIP3   OH256181   3.816   0.616   2.882 -0.5492 -0.0784  0.2851
11589TIP3    H156182   3.777   0.620   2.795 -0.6909  0.9728  0.3837
11589TIP3    H256183   3.838   0.523   2.894 -0.5584 -0.2492 -0.8499
11590TIP3   OH256184   1.039   4.655  12.094 -1.1318 -0.3346 -0.9033
11590TIP3    H156185   0.985   4.733  12.088  0.0673  0.8708  1.9321
11590TIP3    H256186   0.978   4.585  12.117 -1.7469  0.7326  0.9385
11591TIP3   OH256187   0.154   6.531   4.659  0.2414  0.5863 -0.1946
11591TIP3    H156188   0.068   6.560   4.629 -1.2093 -1.3778  1.7699
11591TIP3    H256189   0.173   6.453   4.606 -0.2187 -0.2336  0.8224
11592TIP3   OH256190   2.451   3.364   5.073  0.1135 -0.0037  0.9273
11592TIP3    H156191   2.384   3.431   5.057 -0.6413 -1.4424 -3.3455
11592TIP3    H256192   2.533   3.403   5.043 -0.4212 -0.9614 -2.1243
11593TIP3   OH256193   6.361   1.108  10.433 -0.4160 -0.0735  0.5103
11593TIP3    H156194   6.312   1.027  10.447  1.1623 -0.9251  1.4696
11593TIP3    H256195   6.386   1.136  10.521  1.9366 -0.4431  0.0176
11594TIP3   OH256196   1.088   5.706  15.089  0.0523 -0.5779 -0.5177
11594TIP3    H156197   1.161   5.751  15.131 -0.3548 -0.6942  0.3323
11594TIP3    H256198   1.094   5.616  15.121 -1.9812 -0.0339  1.7137
11595TIP3   OH256199   2.721   4.108  16.997  0.5540 -0.0690  0.0782
11595TIP3    H156200   2.668   4.050  17.052 -0.5491  2.0133  1.3696
11595TIP3    H256201   2.761   4.169  17.059  2.3104  0.0946 -1.1552
11596TIP3   OH256202   3.086   1.486  12.567 -0.0807  0.2759  0.0442
11596TIP3    H156203   3.016   1.486  12.502  0.8351 -0.0046 -0.9854
11596TIP3    H256204   3.070   1.408  12.620  0.0593 -0.3915 -0.8757
11597TIP3   OH256205   6.264   5.572  12.834  0.3582 -0.2148  0.5310
11597TIP3    H156206   6.326   5.499  12.829  0.5557 -0.0872  1.0587
11597TIP3    H256207   6.250   5.586  12.928 -1.6134 -1.1828  0.4185
11598TIP3   OH256208   5.224   5.136   4.677 -0.8509 -0.2692 -0.0978
11598TIP3    H156209   5.181   5.221   4.687 -1.1395 -0.4916  0.5729
11598TIP3    H256210   5.224   5.121   4.582 -1.8197 -0.0377 -0.1457
11599TIP3   OH256211   3.797   0.842  12.201 -0.3786 -0.2987  0.3443
11599TIP3    H156212   3.816   0.757  12.161  1.7396 -0.5268  1.7249
11599TIP3    H256213   3.775   0.898  12.127  0.6286 -1.4240 -0.8635
11600TIP3   OH256214   1.795   5.781   2.364  0.3732 -0.4427  0.2675
11600TIP3    H156215   1.703   5.807   2.363 -0.3589 -2.7805 -1.2370
11600TIP3    H256216   1.831   5.822   2.443 -1.6861  1.2855  0.3891
11601TIP3   OH256217   6.633   2.237   0.004  0.3837 -0.3197 -0.0321
11601TIP3    H156218   6.624   2.330   0.022 -0.1710 -0.4574  0.4042
11601TIP3    H256219   6.614   2.229  -0.090  2.2418  0.2492 -0.5047
11602TIP3   OH256220   6.298   3.563  14.986 -0.2820  0.5708  0.3060
11602TIP3    H156221   6.388   3.531  14.980 -1.0165 -1.5184 -0.5065
11602TIP3    H256222   6.265   3.527  15.068 -0.8884 -0.1909 -0.2498
11603TIP3   OH256223   0.848   3.359   3.152 -0.1314 -0.3307 -0.8117
11603TIP3    H156224   0.885   3.379   3.066  2.3749 -1.0893  0.0128
11603TIP3    H256225   0.757   3.389   3.147  0.2831  0.6996 -3.3125
11604TIP3   OH256226   6.629   2.913   2.191  0.5906  0.2509 -0.1485
11604TIP3    H156227   6.639   2.868   2.275  0.5651 -0.6480 -0.6179
11604TIP3    H256228   6.543   2.885   2.159  0.8906  0.0430 -0.7831
11605TIP3   OH256229   3.418   5.789   3.423  0.7512 -0.1209  0.3408
11605TIP3    H156230   3.470   5.868   3.407  1.1168  0.0064  2.0217
11605TIP3    H256231   3.354   5.788   3.352  0.3768  2.0037  0.5920
11606TIP3   OH256232   2.162   4.341  11.966 -0.0221 -0.1006 -1.0489
11606TIP3    H156233   2.231   4.406  11.954 -0.4466  0.9080  1.3122
11606TIP3    H256234   2.208   4.259  11.982  0.7529  0.6878  1.1896
11607TIP3   OH256235   5.000   6.435   1.048 -0.6022 -0.7921 -0.5602
11607TIP3    H156236   5.074   6.386   1.012 -0.9082 -0.8099 -1.1794
11607TIP3    H256237   4.926   6.374   1.041 -0.9133 -0.3615 -1.0123
11608TIP3   OH256238   0.524   3.715   3.113  0.5360  0.4009  0.3804
11608TIP3    H156239   0.532   3.690   3.021 -2.5042 -2.4809  0.6898
11608TIP3    H256240   0.439   3.760   3.118 -0.1790 -1.0136  1.9284
11609TIP3   OH256241   3.176   2.796  13.736  0.0605  0.1545  0.5399
11609TIP3    H156242   3.101   2.856  13.726  0.4799  0.8717  1.5290
11609TIP3    H256243   3.248   2.853  13.763  0.5540 -0.7637  1.1917
11610TIP3   OH256244   5.558   6.236  15.958  0.2578  0.0586  0.5257
11610TIP3    H156245   5.609   6.171  15.909 -1.2328 -0.8104  0.0351
11610TIP3    H256246   5.618   6.271  16.023  1.7681 -0.1292 -0.7240
11611TIP3   OH256247   0.248   2.415  12.504  0.4561  0.2257 -0.0108
11611TIP3    H156248   0.184   2.416  12.574  0.5179  4.0213  0.2106
11611TIP3    H256249   0.333   2.409  12.548  0.4288  1.1185  0.1894
11612TIP3   OH256250   5.862   2.924   1.569  0.3613 -0.1979  0.5486
11612TIP3    H156251   5.930   2.985   1.598  0.4873 -0.4366  0.7709
11612TIP3    H256252   5.854   2.862   1.642 -0.6420  0.2760  0.8587
11613TIP3   OH256253   3.541   6.664  12.021  0.3372  0.2735 -0.3319
11613TIP3    H156254   3.476   6.700  11.961  1.1426  0.1086 -1.3451
11613TIP3    H256255   3.496   6.658  12.106 -0.2662  2.2362 -0.4757
11614TIP3   OH256256   6.272   0.342  16.925 -0.0542 -0.3863 -0.0359
11614TIP3    H156257   6.242   0.328  17.015  0.8901 -0.5072  0.2765
11614TIP3    H256258   6.360   0.377  16.935  0.2331 -0.8286 -0.9207
11615TIP3   OH256259   2.784   1.066   3.954 -0.5230 -0.0962  0.7179
11615TIP3    H156260   2.813   1.030   3.870 -0.4103  1.0916  0.2188
11615TIP3    H256261   2.836   1.146   3.964 -1.2524  0.2965  1.4457
11616TIP3   OH256262   3.727   2.162   5.289 -0.2411 -0.5986  0.0188
11616TIP3    H156263   3.703   2.122   5.206  0.6828 -0.8021 -0.1533
11616TIP3    H256264   3.715   2.092   5.354 -2.2386 -0.0780  0.2827
11617TIP3   OH256265   2.988   4.333  11.852 -0.1239 -0.5031 -0.0998
11617TIP3    H156266   2.958   4.244  11.838 -2.3073  0.2862 -0.7530
11617TIP3    H256267   2.926   4.388  11.805  2.6034  1.2911 -1.9112
11618TIP3   OH256268   1.113   3.000  14.714 -0.0748  0.1847 -0.5086
11618TIP3    H156269   1.167   3.047  14.651  0.1350  1.3141  0.4671
11618TIP3    H256270   1.040   2.966  14.663  0.3335  0.6735 -1.4383
11619TIP3   OH256271   1.650   3.003  12.927  0.2520 -0.0397  0.0506
11619TIP3    H156272   1.593   2.934  12.894  3.2228 -2.5202 -0.3758
11619TIP3    H256273   1.716   3.015  12.858  1.3162  1.3355  1.2358
11620TIP3   OH256274   5.276   5.324   0.145 -0.6441  0.4304 -0.4561
11620TIP3    H156275   5.224   5.244   0.153 -0.5376 -0.1351 -4.0478
11620TIP3    H256276   5.212   5.394   0.140 -0.7459  0.6512  2.2762
11621TIP3   OH256277   4.727   6.272  11.118 -0.1229  0.0665  0.3790
11621TIP3    H156278   4.813   6.303  11.090  0.6538 -0.7091  1.8108
11621TIP3    H256279   4.676   6.352  11.133  1.2193  0.6361  2.1225
11622TIP3   OH256280   0.353   3.257   5.212  0.3402  0.5002 -0.2406
11622TIP3    H156281   0.276   3.312   5.226  1.2089  1.5342  0.7323
11622TIP3    H256282   0.422   3.319   5.185  1.0610 -0.2647 -0.1983
11623TIP3   OH256283   4.170   6.131  13.989 -0.3849 -0.1117 -0.4766
11623TIP3    H156284   4.185   6.050  13.940  0.5719  1.3988 -2.8138
11623TIP3    H256285   4.096   6.110  14.047 -1.4364 -2.0769 -2.3721
11624TIP3   OH256286   0.904   1.432  14.811 -0.7568 -0.5571  0.3052
11624TIP3    H156287   0.985   1.381  14.817 -0.3293  0.1765  1.0704
11624TIP3    H256288   0.839   1.370  14.781  0.4405 -0.7803 -2.0788
11625TIP3   OH256289   6.777   3.489   5.555 -0.1467  0.0667  0.2079
11625TIP3    H156290   6.692   3.534   5.554  0.1335  0.6232 -1.1739
11625TIP3    H256291   6.819   3.520   5.635 -1.9233 -1.6102  1.8978
11626TIP3   OH256292   0.918   4.784   4.641 -0.5301 -0.0978 -0.5529
11626TIP3    H156293   0.870   4.723   4.698 -1.7534  1.1219 -0.2310
11626TIP3    H256294   0.884   4.768   4.554 -0.3805 -0.3098 -0.5741
11627TIP3   OH256295   5.839   5.268   0.393 -0.1202 -0.1271 -0.2464
11627TIP3    H156296   5.866   5.302   0.478 -1.1872  2.3401 -0.8223
11627TIP3    H256297   5.913   5.285   0.335 -0.7772  1.6474 -0.6101
11628TIP3   OH256298   5.570   3.281   4.001 -0.3554 -0.1724  0.1143
11628TIP3    H156299   5.503   3.344   3.974 -0.4575  0.0836  0.9227
11628TIP3    H256300   5.596   3.237   3.920 -1.0747  0.1404 -0.2989
11629TIP3   OH256301   4.124   3.635   1.815  0.1535 -0.6318  0.0861
11629TIP3    H156302   4.127   3.551   1.770 -1.5090 -0.5612 -0.2366
11629TIP3    H256303   4.043   3.631   1.866  1.5210 -0.3542  2.3914
11630TIP3   OH256304   2.284   3.379  16.638  0.5004  0.5812  0.2567
11630TIP3    H156305   2.231   3.353  16.713 -1.2584  2.0841 -0.3719
11630TIP3    H256306   2.258   3.470  16.621  2.8128  1.1689 -0.5434
11631TIP3   OH256307   1.091   4.359  16.993 -0.2661 -0.4769 -0.4720
11631TIP3    H156308   1.006   4.399  16.974 -0.6847 -0.7545  0.7280
11631TIP3    H256309   1.072   4.296  17.063  1.3683  1.3424  1.7379
11632TIP3   OH256310   4.506   1.542  12.637  0.3591  0.0243 -0.0641
11632TIP3    H156311   4.417   1.515  12.662  0.7090  0.9863  2.5766
11632TIP3    H256312   4.535   1.474  12.575 -1.2929 -1.7117  0.9335
11633TIP3   OH256313   4.066   4.262  12.350 -0.2970  0.0054 -0.2425
11633TIP3    H156314   4.154   4.272  12.386 -0.2484 -0.6223 -0.1719
11633TIP3    H256315   4.009   4.311  12.410  0.0071  0.4396 -0.3077
11634TIP3   OH256316   3.017   2.784   1.513 -0.2881 -0.1425 -0.2326
11634TIP3    H156317   3.110   2.778   1.490  0.0086  1.2019  0.5320
11634TIP3    H256318   2.995   2.696   1.544  1.0191 -0.1977  0.6023
11635TIP3   OH256319   3.830   2.316  12.525 -0.3188  0.5314 -1.0702
11635TIP3    H156320   3.832   2.354  12.613  0.0165 -0.3364 -0.6903
11635TIP3    H256321   3.914   2.340  12.486  0.3622 -0.6923 -0.4311
11636TIP3   OH256322   0.316   1.268   1.915 -0.0755  0.0505  0.1112
11636TIP3    H156323   0.228   1.230   1.921 -0.5247  1.0340 -0.0108
11636TIP3    H256324   0.336   1.267   1.822  0.4472 -1.0207  0.2151
11637TIP3   OH256325   5.310   0.211   5.455  0.1890  0.0364  0.2046
11637TIP3    H156326   5.251   0.247   5.389 -0.2517  0.5155  0.8426
11637TIP3    H256327   5.257   0.210   5.535  0.0233 -2.5005  0.1171
11638TIP3   OH256328   2.087   3.099   5.832 -0.0562 -0.0134  0.1228
11638TIP3    H156329   1.994   3.108   5.811 -0.1783 -0.4897  0.4460
11638TIP3    H256330   2.130   3.167   5.780 -0.7510  1.2982  1.2117
11639TIP3   OH256331   2.945   0.715   4.284  0.4648  0.0142 -0.2171
11639TIP3    H156332   2.851   0.701   4.270  0.4127  0.4474 -0.3207
11639TIP3    H256333   2.987   0.649   4.229  0.2184 -0.6941  0.4209
11640TIP3   OH256334   0.147   1.067   4.817 -0.0844 -0.7282 -0.4586
11640TIP3    H156335   0.132   1.020   4.899 -1.7159 -1.2424 -1.0181
11640TIP3    H256336   0.138   1.000   4.749  0.1757 -0.1009 -1.1290
11641TIP3   OH256337   0.406   1.144   4.855 -0.3425 -0.5813  0.5394
11641TIP3    H156338   0.322   1.101   4.840  1.1256 -3.3740 -0.2950
11641TIP3    H256339   0.454   1.133   4.773  1.0349  0.5177  1.1571
11642TIP3   OH256340   4.119   0.995   1.463  0.2128 -0.3459  0.0197
11642TIP3    H156341   4.136   1.085   1.435  2.1786 -1.0499 -1.2891
11642TIP3    H256342   4.071   1.004   1.545  1.3554  1.9359  0.5303
11643TIP3   OH256343   1.587   3.260  15.995  0.2902  0.4472 -0.2542
11643TIP3    H156344   1.600   3.314  15.916  0.3455 -0.2474 -0.7295
11643TIP3    H256345   1.622   3.314  16.066  0.3616  1.0349 -0.7194
11644TIP3   OH256346   6.345   3.064  14.663  0.2254 -0.0942 -0.3709
11644TIP3    H156347   6.423   3.109  14.696  0.7026  0.6061 -2.2824
11644TIP3    H256348   6.374   3.021  14.583 -0.8371 -1.7812  0.0951
11645TIP3   OH256349   1.783   0.983   2.744  0.0949 -0.2591  0.1863
11645TIP3    H156350   1.855   0.929   2.711  1.1040  1.1182  0.0840
11645TIP3    H256351   1.801   1.071   2.711 -1.1170  0.3178  0.9807
11646TIP3   OH256352   4.292   4.583   3.098 -0.0279 -0.4562  0.1956
11646TIP3    H156353   4.220   4.520   3.102  0.0459 -0.7015 -1.5763
11646TIP3    H256354   4.257   4.663   3.136 -0.4784 -1.2288  1.4720
11647TIP3   OH256355   0.034   0.109  12.085  0.1186  0.6846  0.0644
11647TIP3    H156356   0.018   0.203  12.097  1.3838  0.5727  4.1378
11647TIP3    H256357  -0.049   0.067  12.106  0.4300  0.8569  1.8453
11648TIP3   OH256358   0.606   1.482  12.639  0.2588 -0.0165 -0.1232
11648TIP3    H156359   0.586   1.413  12.576  0.4451  0.7403 -1.0267
11648TIP3    H256360   0.526   1.536  12.642  0.6455  0.5942 -0.5709
11649TIP3   OH256361   1.815   1.127   0.740  0.4102 -0.5439  0.3565
11649TIP3    H156362   1.776   1.131   0.827 -0.2722 -1.7767  0.1325
11649TIP3    H256363   1.760   1.065   0.692  0.5360  0.4080 -1.0766
11650TIP3   OH256364   5.492   3.065  15.509 -0.1839 -0.0024 -0.6322
11650TIP3    H156365   5.419   3.033  15.561  1.0273 -0.3000  0.9781
11650TIP3    H256366   5.476   3.159  15.498 -1.0191 -0.1497 -0.6846
11651TIP3   OH256367   2.048   4.472  10.771 -0.0756  0.4329  0.6274
11651TIP3    H156368   2.054   4.524  10.691  0.3298 -0.6222 -0.0455
11651TIP3    H256369   2.138   4.467  10.803  0.1051 -1.0109 -0.0724
11652TIP3   OH256370   0.280   5.550   3.494  0.4917  0.2711 -0.9112
11652TIP3    H156371   0.259   5.628   3.546  1.8894 -0.5535  1.0076
11652TIP3    H256372   0.196   5.508   3.478 -0.0652  1.0288 -0.0356
11653TIP3   OH256373   5.560   6.627  14.179 -0.0296  0.1104  0.4409
11653TIP3    H156374   5.519   6.712  14.162  1.2499  0.4760 -1.1357
11653TIP3    H256375   5.569   6.587  14.092  2.6593 -0.0250  0.7043
11654TIP3   OH256376   3.249   3.005   1.385 -0.4978  0.0624 -0.4635
11654TIP3    H156377   3.326   3.052   1.353 -0.0512 -1.4586 -1.7929
11654TIP3    H256378   3.176   3.042   1.335 -0.6981  1.6365  0.9326
11655TIP3   OH256379   2.669   1.915   5.425  0.2006 -0.3533  0.3235
11655TIP3    H156380   2.628   1.983   5.478 -0.7277 -0.4458 -0.2537
11655TIP3    H256381   2.667   1.837   5.481 -0.9495 -0.4980  0.1142
11656TIP3   OH256382   0.594   1.961  12.988 -0.0604 -0.1466 -0.1070
11656TIP3    H156383   0.672   1.994  12.944 -0.0878  2.2172  1.4033
11656TIP3    H256384   0.595   2.004  13.074 -2.1890 -1.2885  0.5729
11657TIP3   OH256385   6.010   5.214   2.078 -0.7485 -0.0365 -0.0300
11657TIP3    H156386   6.031   5.123   2.098  0.7440  0.2261 -0.2802
11657TIP3    H256387   5.947   5.209   2.006 -1.5901 -0.8714  0.7437
11658TIP3   OH256388   0.776   3.961   0.989  0.2983 -0.3404  0.5203
11658TIP3    H156389   0.864   3.948   0.953  1.0370 -1.8337  2.6254
11658TIP3    H256390   0.791   3.999   1.075 -0.9635 -2.0682  1.5760
11659TIP3   OH256391   3.191   4.343  12.986  0.3900  0.0107  0.0381
11659TIP3    H156392   3.227   4.318  12.901 -0.3837 -0.3653 -0.1889
11659TIP3    H256393   3.258   4.316  13.049  0.0118 -1.7697 -0.2706
11660TIP3   OH256394   4.473   6.235   4.301 -0.2003 -0.3034 -0.4556
11660TIP3    H156395   4.450   6.318   4.342  3.0551  1.9792 -2.7416
11660TIP3    H256396   4.568   6.229   4.311  0.0214 -2.2485 -2.8964
11661TIP3   OH256397   2.310   1.620  13.579  0.2278  0.6964 -0.0821
11661TIP3    H156398   2.393   1.664  13.594  1.2816 -0.8917 -1.0544
11661TIP3    H256399   2.310   1.599  13.486 -1.9180  1.9134 -0.4261
11662TIP3   OH256400   6.776   3.960   6.077  0.3821 -0.6187 -0.1218
11662TIP3    H156401   6.723   4.024   6.124 -0.8899 -1.9625  0.3831
11662TIP3    H256402   6.719   3.883   6.069  2.0162 -1.8892 -0.2069
11663TIP3   OH256403   5.616   4.931   4.939 -0.3933 -0.4883  1.0169
11663TIP3    H156404   5.633   4.887   4.856 -0.3589 -0.2171  0.8790
11663TIP3    H256405   5.664   5.014   4.933 -0.9498 -0.1582  1.0259
11664TIP3   OH256406   3.621   1.017  11.408 -0.1795  0.5247  0.1078
11664TIP3    H156407   3.613   1.048  11.499 -1.6953  0.0029  0.1814
11664TIP3    H256408   3.712   1.035  11.385 -0.1354  1.9557  1.2523
11665TIP3   OH256409   1.986   0.074   0.734  0.5877 -0.0099 -0.3563
11665TIP3    H156410   1.991   0.098   0.641  1.4343 -0.5880 -0.4794
11665TIP3    H256411   1.993  -0.022   0.734  0.0747 -0.0521  0.2739
11666TIP3   OH256412   4.573   0.157  13.366  0.5094  0.5297  0.6732
11666TIP3    H156413   4.488   0.164  13.411 -0.1438 -0.2785 -0.4051
11666TIP3    H256414   4.587   0.063  13.356 -0.3372  0.6506 -2.5589
11667TIP3   OH256415   2.588   5.802  14.672  0.4624  0.1961 -0.4412
11667TIP3    H156416   2.543   5.753  14.742 -1.7830  0.4469 -1.6023
11667TIP3    H256417   2.559   5.892  14.684 -0.3192  0.1685 -1.9189
11668TIP3   OH256418   1.209   3.550  13.845 -0.1861  0.0415  0.7901
11668TIP3    H156419   1.223   3.604  13.766 -0.2170 -0.5108  0.4026
11668TIP3    H256420   1.160   3.608  13.904  0.5207  0.7313  0.7210
11669TIP3   OH256421   4.772   3.536   3.259 -0.2134  0.2716  0.0983
11669TIP3    H156422   4.857   3.576   3.240  0.0057 -0.0577  0.3770
11669TIP3    H256423   4.733   3.593   3.326  0.6869 -0.7146  1.5199
11670TIP3   OH256424   2.161   2.368  13.402  0.2764 -0.0455  0.1967
11670TIP3    H156425   2.077   2.404  13.374  1.1321  2.9329  1.0305
11670TIP3    H256426   2.143   2.328  13.487 -0.7724 -1.9968 -0.8822
11671TIP3   OH256427   5.267   1.760   3.858  0.2837  0.0138  0.2968
11671TIP3    H156428   5.356   1.781   3.828  0.7465 -0.7449  1.0683
11671TIP3    H256429   5.237   1.692   3.798 -0.6014  1.6462 -1.2220
11672TIP3   OH256430   5.245   3.367   0.460  0.1797 -0.3471  0.2832
11672TIP3    H156431   5.285   3.301   0.403  1.4056  0.2715  0.3846
11672TIP3    H256432   5.196   3.317   0.525 -1.4833 -1.0726 -1.4437
11673TIP3   OH256433   6.409   3.086   3.455 -0.2029  0.3458  0.1247
11673TIP3    H156434   6.337   3.051   3.402 -0.9568  0.3067  1.1455
11673TIP3    H256435   6.444   3.158   3.403 -0.0219 -0.5532 -1.0414
11674TIP3   OH256436   4.944   2.601  11.068  0.2993  0.4522 -0.2123
11674TIP3    H156437   4.996   2.578  10.990  0.3827  1.1972 -0.3768
11674TIP3    H256438   4.853   2.597  11.038  0.3691  1.8210 -0.6509
11675TIP3   OH256439   1.411   2.253  17.106 -0.6313  0.8540 -0.3609
11675TIP3    H156440   1.322   2.287  17.093 -1.0487 -0.5401 -1.2277
11675TIP3    H256441   1.426   2.195  17.032  0.9139  0.8610 -0.0750
11676TIP3   OH256442   3.052   5.735   4.831 -0.2390  0.2295 -0.5709
11676TIP3    H156443   3.046   5.643   4.805  0.0598 -0.0388  0.2974
11676TIP3    H256444   2.962   5.760   4.852 -0.4135  0.3160 -1.3747
11677TIP3   OH256445   3.998   6.550   0.852  0.0795 -0.0988  0.2049
11677TIP3    H156446   4.015   6.539   0.945 -0.8970 -1.0061  0.2968
11677TIP3    H256447   4.072   6.507   0.809 -0.2774 -1.1380  0.5844
11678TIP3   OH256448   3.426   1.031   3.970 -0.3141  0.0925  0.4574
11678TIP3    H156449   3.457   0.950   4.011 -0.8458 -0.5950 -0.4558
11678TIP3    H256450   3.501   1.090   3.972  0.6112 -1.0205 -0.4047
11679TIP3   OH256451   0.609   4.369  16.485  0.1804 -0.5036 -0.3904
11679TIP3    H156452   0.681   4.306  16.476  1.4835  0.6972  1.0349
11679TIP3    H256453   0.604   4.387  16.579 -1.4780  0.0616 -0.5404
11680TIP3   OH256454   6.393   2.957  14.397 -0.2641 -0.1523  0.4136
11680TIP3    H156455   6.458   2.890  14.376 -1.2560 -1.2500  0.7160
11680TIP3    H256456   6.373   2.999  14.313 -0.3838 -0.9417  0.0409
11681TIP3   OH256457   0.992   1.779  11.293  0.3483 -0.2049 -0.2350
11681TIP3    H156458   1.088   1.775  11.302  0.4640  1.5897 -0.2644
11681TIP3    H256459   0.972   1.713  11.227  1.8027  0.6510 -1.6242
11682TIP3   OH256460   4.427   2.114  15.341 -0.2955 -0.4718 -1.0132
11682TIP3    H156461   4.343   2.088  15.379  1.0086 -1.9669  0.9982
11682TIP3    H256462   4.443   2.049  15.273  0.3319 -1.6843  0.2524
11683TIP3   OH256463   4.211   6.199  15.844 -0.5488  0.2313  0.7449
11683TIP3    H156464   4.187   6.106  15.845  0.0225  0.0828  0.9789
11683TIP3    H256465   4.257   6.212  15.927  1.0859  0.2681 -0.1423
11684TIP3   OH256466   5.567   5.319   0.989  0.3499  0.4040 -0.1103
11684TIP3    H156467   5.632   5.304   0.921 -2.7292 -1.9333 -2.8784
11684TIP3    H256468   5.566   5.238   1.040 -0.6307  0.2402 -0.3715
11685TIP3   OH256469   2.379   3.648   2.548  0.2812  0.3393  0.2598
11685TIP3    H156470   2.305   3.613   2.598  0.7494 -0.5953  0.3199
11685TIP3    H256471   2.426   3.702   2.611 -0.2938  0.8694  0.2455
11686TIP3   OH256472   0.658   6.237   2.099  0.1775 -0.1556 -0.0613
11686TIP3    H156473   0.629   6.227   2.189  0.3729  0.1927  0.0453
11686TIP3    H256474   0.750   6.264   2.107 -0.2363  1.4746 -0.3051
11687TIP3   OH256475   2.989   1.971  11.944 -0.7164 -0.1453  0.7141
11687TIP3    H156476   2.983   2.022  11.863  1.2899 -0.3302  0.3991
11687TIP3    H256477   2.977   1.880  11.916  2.4188 -0.5047  0.1019
11688TIP3   OH256478   0.636   2.064   2.239 -0.1779  0.1218  0.4084
11688TIP3    H156479   0.695   2.005   2.192  0.6018  0.8257  0.4958
11688TIP3    H256480   0.653   2.150   2.202 -0.2959  0.5200  1.2540
11689TIP3   OH256481   6.001   1.332   3.535  0.3139  0.2497  0.3454
11689TIP3    H156482   6.008   1.354   3.628  1.8835  0.4765  0.1945
11689TIP3    H256483   6.021   1.239   3.531 -0.2848  0.1203  0.2859
11690TIP3   OH256484   6.432   0.798  15.755 -0.0808  0.1274  0.6724
11690TIP3    H156485   6.374   0.870  15.779 -0.8178  0.4400 -1.7398
11690TIP3    H256486   6.405   0.725  15.811 -0.8921  1.0556  1.5359
11691TIP3   OH256487   6.800   2.656   0.776 -0.3608 -0.0394 -0.5370
11691TIP3    H156488   6.891   2.675   0.800 -0.8000  0.2386  1.0466
11691TIP3    H256489   6.751   2.731   0.807 -1.5226 -1.5732  1.6519
11692TIP3   OH256490   6.247   3.800   5.874  0.9916  0.0987 -0.0057
11692TIP3    H156491   6.264   3.760   5.789 -2.7620  0.5927 -1.1790
11692TIP3    H256492   6.253   3.728   5.937 -1.2452 -1.4492 -1.4457
11693TIP3   OH256493   3.735   2.216   0.342  0.2754 -0.2481 -0.1200
11693TIP3    H156494   3.781   2.213   0.425  2.2970 -2.3960 -1.2096
11693TIP3    H256495   3.660   2.159   0.353 -1.0515  1.6081  1.0016
11694TIP3   OH256496   6.182   3.544   2.516  0.2453 -0.2282 -0.3058
11694TIP3    H156497   6.265   3.552   2.469  0.4579  1.2269  0.2708
11694TIP3    H256498   6.202   3.486   2.590  1.0269  0.8429  0.3652
11695TIP3   OH256499   0.539   0.414   4.543 -0.4230 -0.3117 -0.5538
11695TIP3    H156500   0.613   0.376   4.496  1.8672  2.0332  0.9211
11695TIP3    H256501   0.540   0.506   4.518 -1.9660  0.0592  0.6536
11696TIP3   OH256502   6.357   3.367  12.281 -0.1857  0.2116  0.0589
11696TIP3    H156503   6.348   3.447  12.228  0.4857 -0.8325 -1.7247
11696TIP3    H256504   6.336   3.395  12.370 -0.2376  2.3200 -0.5519
11697TIP3   OH256505   3.358   5.560  16.011  1.0035  0.1867 -0.1863
11697TIP3    H156506   3.271   5.587  16.042  0.8620  1.0903 -1.2947
11697TIP3    H256507   3.358   5.584  15.918  1.3109 -2.6397 -0.9936
11698TIP3   OH256508   6.653   0.346   0.031 -0.6961 -0.0634 -0.0717
11698TIP3    H156509   6.608   0.361  -0.052  0.9763  1.5341 -0.7621
11698TIP3    H256510   6.657   0.432   0.072 -0.5456 -0.6447  1.1732
11699TIP3   OH256511   1.935   0.966   0.326  0.0127  0.3962  0.3264
11699TIP3    H156512   1.875   1.016   0.381 -0.9176 -0.2415 -0.0698
11699TIP3    H256513   1.903   0.876   0.332  0.5362  0.1511 -0.4049
11700TIP3   OH256514   4.680   5.005   5.450 -0.1098  0.1723 -0.3690
11700TIP3    H156515   4.663   4.959   5.367 -0.4231  2.4663 -1.6519
11700TIP3    H256516   4.775   5.017   5.452 -0.2630  1.9102 -1.4811
11701TIP3   OH256517   5.189   5.370  16.665  0.1426 -0.2613 -0.4458
11701TIP3    H156518   5.224   5.326  16.587 -0.1543 -1.8032  0.2579
11701TIP3    H256519   5.101   5.336  16.675  0.3537 -0.4873  0.8532
11702TIP3   OH256520   1.640   4.172  16.005 -0.1787  0.6309 -0.2097
11702TIP3    H156521   1.648   4.233  15.932  0.6788  1.3113  0.4233
11702TIP3    H256522   1.700   4.101  15.984 -0.7436  0.2909 -0.6762
11703TIP3   OH256523   3.479   3.678   2.142 -0.2005  0.0418 -0.3324
11703TIP3    H156524   3.408   3.617   2.161 -0.0400  0.2312  0.9571
11703TIP3    H256525   3.475   3.742   2.213 -1.8333  2.9403 -2.7806
11704TIP3   OH256526   5.134   2.317   5.169 -0.6096 -0.4213 -0.1285
11704TIP3    H156527   5.182   2.355   5.243 -1.6517  0.6897  0.0045
11704TIP3    H256528   5.084   2.245   5.207  0.2506 -1.0256 -0.1089
11705TIP3   OH256529   5.509   2.570  15.047 -0.4990  0.7750 -0.3732
11705TIP3    H156530   5.550   2.508  14.987 -0.5866  1.0433 -0.7128
11705TIP3    H256531   5.436   2.607  14.998 -0.9572  0.5377  0.1148
11706TIP3   OH256532   4.806   1.670  15.704  0.1583 -0.1135 -0.5527
11706TIP3    H156533   4.871   1.636  15.765  0.2368 -0.7038 -0.9691
11706TIP3    H256534   4.756   1.594  15.676 -1.9334  0.5159  1.1408
11707TIP3   OH256535   4.846   0.521   1.934  0.0971 -0.3728  0.1853
11707TIP3    H156536   4.785   0.586   1.899 -2.1439 -2.4574 -0.0613
11707TIP3    H256537   4.835   0.528   2.029 -0.7839 -0.9528  0.1316
11708TIP3   OH256538   5.033   4.234   1.975 -0.0467  0.0656  0.4018
11708TIP3    H156539   5.086   4.165   2.015  0.1340 -0.0148  0.0268
11708TIP3    H256540   4.953   4.237   2.028 -0.3578 -0.9097  0.0063
11709TIP3   OH256541   5.100   2.035   5.299 -0.3568  0.4218  0.7120
11709TIP3    H156542   5.189   2.060   5.275 -0.3462  2.6029  2.6665
11709TIP3    H256543   5.106   2.015   5.393 -1.6970 -0.7093  0.5899
11710TIP3   OH256544   2.981   0.178  12.638  0.2365  0.4846 -0.1458
11710TIP3    H156545   2.915   0.204  12.702  0.2362  2.9240 -1.0055
11710TIP3    H256546   2.931   0.137  12.567 -0.0971  0.3473  0.1675
11711TIP3   OH256547   2.631   1.941  17.089 -0.8760 -0.0789  0.1707
11711TIP3    H156548   2.624   1.902  17.002  3.2467 -1.1060  0.0775
11711TIP3    H256549   2.618   1.868  17.150 -1.7927  0.2439  0.3800
11712TIP3   OH256550   4.617   6.150  12.979  0.2148  0.1481  0.5528
11712TIP3    H156551   4.668   6.227  12.955  1.7579 -1.0819 -0.3301
11712TIP3    H256552   4.682   6.084  13.003 -0.9914 -1.2287  0.2057
11713TIP3   OH256553   1.055   4.614  16.792 -0.6227  0.5019  0.1535
11713TIP3    H156554   1.095   4.527  16.791 -1.4034  0.1287  0.3556
11713TIP3    H256555   1.124   4.672  16.824  0.4987  0.2809 -1.7033
11714TIP3   OH256556   1.174   2.034   2.597 -0.4631 -0.5254  0.5890
11714TIP3    H156557   1.224   2.042   2.515 -0.8805 -0.1798  0.3588
11714TIP3    H256558   1.126   2.116   2.603 -1.8560 -1.2766  0.2224
11715TIP3   OH256559   6.745   5.349   2.545 -0.0424  0.0475 -0.6447
11715TIP3    H156560   6.700   5.308   2.470 -1.6688 -1.7154  1.1854
11715TIP3    H256561   6.676   5.364   2.609  1.3285  1.4125  0.5783
11716TIP3   OH256562   2.671   3.041  15.559 -0.0691  0.0112 -0.4310
11716TIP3    H156563   2.609   3.009  15.625  0.3468  1.3116  0.6259
11716TIP3    H256564   2.740   2.976  15.557 -1.8344 -1.9846 -2.3137
11717TIP3   OH256565   5.592   4.545   1.371 -0.2816 -1.1446 -0.2387
11717TIP3    H156566   5.502   4.541   1.337 -0.4003 -0.7130  0.0235
11717TIP3    H256567   5.592   4.483   1.444 -0.0979 -1.8758 -0.8473
11718TIP3   OH256568   5.199   0.624  15.395 -0.1633  0.0237 -0.4154
11718TIP3    H156569   5.183   0.604  15.487 -0.6380 -0.1255 -0.5266
11718TIP3    H256570   5.282   0.581  15.375 -0.0422  0.0885 -0.0458
11719TIP3   OH256571   5.219   5.126   4.400 -0.4638  0.2738  0.1446
11719TIP3    H156572   5.132   5.143   4.365 -0.9229 -0.3520  0.9606
11719TIP3    H256573   5.267   5.208   4.386 -0.8377  0.2636 -1.3001
11720TIP3   OH256574   1.502   5.096   4.775  0.3331  0.4527 -0.4227
11720TIP3    H156575   1.477   5.189   4.778 -2.3746 -0.1906 -0.4353
11720TIP3    H256576   1.441   5.054   4.836  3.1249 -1.0632  1.5693
11721TIP3   OH256577   6.658   0.380  15.976  0.4841  0.0541 -0.5454
11721TIP3    H156578   6.675   0.335  16.059 -1.2094  1.6772  0.7369
11721TIP3    H256579   6.742   0.420  15.953  1.3428 -1.5854 -0.4071
11722TIP3   OH256580   6.103   0.710  15.680 -0.4901 -0.2900  0.0434
11722TIP3    H156581   6.178   0.690  15.623 -0.1398  0.0015  0.3942
11722TIP3    H256582   6.061   0.626  15.695  0.0157 -0.5227  0.1857
11723TIP3   OH256583   5.348   5.626   0.704  0.0649 -0.5560  0.4149
11723TIP3    H156584   5.346   5.620   0.799 -0.2051  0.3053  0.4731
11723TIP3    H256585   5.440   5.609   0.681  0.3775  0.3737  0.9246
11724TIP3   OH256586   6.324   1.523   3.391 -0.1469 -0.3970 -0.4034
11724TIP3    H156587   6.237   1.507   3.354 -0.1448 -0.5415 -0.3471
11724TIP3    H256588   6.328   1.618   3.403 -0.2756 -0.3838 -0.4591
11725TIP3   OH256589   1.282   0.554   4.669 -0.1423 -0.1611 -0.4149
11725TIP3    H156590   1.249   0.538   4.580 -0.5144  1.8921 -0.6868
11725TIP3    H256591   1.210   0.599   4.713  1.0728  1.4647  0.0016
11726TIP3   OH256592   0.776   0.156   3.908  0.1109 -0.3077 -0.2057
11726TIP3    H156593   0.742   0.239   3.874 -0.9005 -1.0059 -0.9435
11726TIP3    H256594   0.869   0.157   3.883 -0.1973  0.0033 -1.3987
11727TIP3   OH256595   4.839   0.913  16.520  0.0419 -0.2449 -0.5732
11727TIP3    H156596   4.887   0.901  16.438  0.1133 -1.0150 -0.4322
11727TIP3    H256597   4.775   0.981  16.501  1.0822  0.6953 -0.8144
11728TIP3   OH256598   1.683   4.995   0.377  0.2774  0.5024  0.3443
11728TIP3    H156599   1.670   4.905   0.405 -1.1218  0.5301 -0.1025
11728TIP3    H256600   1.624   5.046   0.433  0.6795  1.0750  0.2541
11729TIP3   OH256601   4.174   6.569  13.947  0.6044  0.6027 -0.6155
11729TIP3    H156602   4.234   6.635  13.914  0.0365  0.7211 -1.4433
11729TIP3    H256603   4.128   6.612  14.019 -0.9819  1.7540 -2.2120
11730TIP3   OH256604   1.978   0.400   2.915  0.9113 -0.0642 -0.3766
11730TIP3    H156605   2.070   0.380   2.930  0.3136 -2.0070  1.2088
11730TIP3    H256606   1.934   0.316   2.923 -1.1669  1.0256  0.4114
11731TIP3   OH256607   3.132   1.745  17.027 -0.1419 -0.3017  0.0056
11731TIP3    H156608   3.210   1.722  17.077 -0.8554 -1.0868  0.7974
11731TIP3    H256609   3.165   1.792  16.951  1.0621 -0.1590  0.5896
11732TIP3   OH256610   2.630   6.617  12.100 -0.0075  0.2408  0.3235
11732TIP3    H156611   2.651   6.536  12.147  2.0134  1.1963  1.2004
11732TIP3    H256612   2.670   6.607  12.014 -0.1843  0.1272  0.2532
11733TIP3   OH256613   4.718   4.374   0.306  0.2698 -0.4150  0.0353
11733TIP3    H156614   4.793   4.424   0.275 -0.6746 -0.1703 -1.9820
11733TIP3    H256615   4.641   4.423   0.277 -0.7086 -2.9557 -2.0990
11734TIP3   OH256616   0.094   1.376  14.489 -0.3085  0.4943  0.3416
11734TIP3    H156617   0.188   1.391  14.492 -0.0539 -1.0010  1.0617
11734TIP3    H256618   0.061   1.439  14.425  1.2298  0.7770 -0.2132
11735TIP3   OH256619   5.571   2.995  14.206 -0.2080 -0.6878 -0.5293
11735TIP3    H156620   5.646   2.993  14.146 -0.5499  0.8129 -1.0592
11735TIP3    H256621   5.583   2.918  14.262  1.2207 -0.9935 -1.1982
11736TIP3   OH256622   1.732   4.881   5.532  0.3770  0.0228  0.5080
11736TIP3    H156623   1.654   4.859   5.582 -0.1621 -1.6600 -0.9589
11736TIP3    H256624   1.803   4.881   5.596 -0.5683 -0.1322  1.5812
11737TIP3   OH256625   3.894   0.599   4.731 -0.2555  1.0399  0.1109
11737TIP3    H156626   3.882   0.558   4.645  0.3537 -0.1166  0.5623
11737TIP3    H256627   3.806   0.605   4.767 -0.5059  1.4331 -0.5459
11738TIP3   OH256628   3.392   4.177  14.111  0.4919  0.0664 -0.4038
11738TIP3    H156629   3.476   4.181  14.157 -0.3249  0.5428  1.1187
11738TIP3    H256630   3.401   4.102  14.052  2.4904  0.9816 -1.3544
11739TIP3   OH256631   0.699   5.606   0.568 -0.2533  0.6255  0.3632
11739TIP3    H156632   0.723   5.514   0.560 -0.2439  0.6939 -0.5478
11739TIP3    H256633   0.603   5.605   0.569 -0.2618  0.5082  1.8970
11740TIP3   OH256634   5.377   3.956  12.517 -0.2408 -0.0179  0.4277
11740TIP3    H156635   5.291   3.934  12.553 -0.6153  0.7527  0.0184
11740TIP3    H256636   5.381   4.052  12.521  1.7986 -0.0724  3.2090
11741TIP3   OH256637   6.572   5.687  10.870 -0.1549 -0.2425  0.2904
11741TIP3    H156638   6.554   5.719  10.959  0.2403 -0.2995  0.3916
11741TIP3    H256639   6.537   5.756  10.813  0.4562  0.2544  0.5061
11742TIP3   OH256640   0.633   0.293  16.322 -0.4149 -0.7521 -0.1602
11742TIP3    H156641   0.653   0.259  16.235  1.3173  0.5394 -0.3199
11742TIP3    H256642   0.698   0.253  16.379  0.4550  0.7369 -0.0408
11743TIP3   OH256643   3.485   6.662   5.714 -0.2430  0.2249  0.1163
11743TIP3    H156644   3.561   6.653   5.772  1.1713  0.8587 -1.5759
11743TIP3    H256645   3.497   6.596   5.647  0.1255  1.8608 -1.5159
11744TIP3   OH256646   0.651   1.872   2.001  0.9644 -0.1075 -0.1246
11744TIP3    H156647   0.606   1.951   1.973  0.5846 -1.0939 -2.5410
11744TIP3    H256648   0.592   1.832   2.065  0.0896  0.4355 -0.5730
11745TIP3   OH256649   6.562   0.810  11.342  0.2063  0.2235  0.6357
11745TIP3    H156650   6.540   0.753  11.268  1.0769  0.4980  0.1509
11745TIP3    H256651   6.640   0.857  11.314  0.3162  0.6314  1.5806
11746TIP3   OH256652   2.682   4.458  11.156  0.4323 -0.0424  0.0878
11746TIP3    H156653   2.706   4.448  11.064  0.0316 -0.1709 -0.0063
11746TIP3    H256654   2.670   4.553  11.167  1.4874  0.0780  0.2720
11747TIP3   OH256655   5.733   3.668   1.605 -0.1388 -0.1990 -0.0345
11747TIP3    H156656   5.724   3.672   1.509 -0.4945 -1.4519 -0.0740
11747TIP3    H256657   5.643   3.675   1.637  0.0867  1.5395  0.2916
11748TIP3   OH256658   5.665   6.781  13.339 -0.1031  0.1086 -0.0135
11748TIP3    H156659   5.575   6.794  13.369 -0.1902 -0.3710 -0.0678
11748TIP3    H256660   5.656   6.759  13.246 -0.2347 -3.8911  0.7986
11749TIP3   OH256661   1.794   2.170  13.102  0.1264 -0.0127  0.4091
11749TIP3    H156662   1.710   2.215  13.102  0.4587  0.7059  2.3356
11749TIP3    H256663   1.810   2.148  13.010 -1.8712  0.3546 -0.0676
11750TIP3   OH256664   5.900   2.009   1.075  0.0161 -0.4374 -0.3319
11750TIP3    H156665   5.903   2.099   1.043  0.4519 -0.4356 -0.2905
11750TIP3    H256666   5.955   1.960   1.013  0.0937 -0.6056 -0.1306
11751TIP3   OH256667   1.551   4.818  15.618  0.0040 -0.3662  0.4515
11751TIP3    H156668   1.475   4.826  15.560 -1.0164  0.6266  1.8541
11751TIP3    H256669   1.588   4.906  15.620  0.2763 -0.4945  0.9810
11752TIP3   OH256670   1.974   3.741  15.140 -0.3468  0.4082  0.4319
11752TIP3    H156671   1.954   3.832  15.117  0.0062  0.5484  0.6670
11752TIP3    H256672   2.016   3.746  15.226 -1.0888 -0.0557  0.8253
11753TIP3   OH256673   1.371   3.605   4.977 -0.0648 -0.5601  0.1670
11753TIP3    H156674   1.416   3.674   5.025 -0.0593 -0.7034  0.3695
11753TIP3    H256675   1.312   3.565   5.041 -1.5385  0.5461 -0.4439
11754TIP3   OH256676   0.158   0.372  14.762  0.0118 -0.1148 -0.1267
11754TIP3    H156677   0.157   0.278  14.780  1.0909 -0.0767  0.2390
11754TIP3    H256678   0.177   0.412  14.846 -2.0026  0.5617  0.0475
11755TIP3   OH256679   3.965   6.388  16.118 -0.2056  0.2050  0.1244
11755TIP3    H156680   3.966   6.459  16.183 -0.1166 -0.5799  1.0026
11755TIP3    H256681   4.032   6.327  16.149 -2.0625 -1.5565  0.8481
11756TIP3   OH256682   0.078   4.103   3.766 -0.4368 -0.4306 -0.7548
11756TIP3    H156683   0.106   4.016   3.737 -1.0669 -0.1197 -2.3804
11756TIP3    H256684   0.150   4.134   3.822  1.6545 -0.4317 -3.2408
11757TIP3   OH256685   4.833   5.537  15.951 -0.0194 -0.4418 -1.2398
11757TIP3    H156686   4.750   5.493  15.931  0.5605 -1.3871 -1.5823
11757TIP3    H256687   4.855   5.508  16.039 -0.6879  0.8369 -0.6083
11758TIP3   OH256688   6.702   3.990  15.714  0.2591 -0.1842 -0.2942
11758TIP3    H156689   6.623   3.965  15.665 -0.8376  1.0745  0.7679
11758TIP3    H256690   6.740   4.062  15.664 -0.1694  0.2725  0.0289
11759TIP3   OH256691   0.539   3.240   1.431  0.2160 -0.4857 -0.5177
11759TIP3    H156692   0.504   3.192   1.356 -0.7988 -0.1938 -0.2520
11759TIP3    H256693   0.509   3.330   1.418  1.5478 -0.0332 -0.6747
11760TIP3   OH256694   2.798   0.212  15.122  0.1399 -0.5532 -0.3103
11760TIP3    H156695   2.862   0.218  15.051  0.1792  0.2601 -0.2207
11760TIP3    H256696   2.731   0.277  15.100 -0.3130 -0.9254 -0.0593
11761TIP3   OH256697   6.477   4.518  14.314 -0.2845  0.3396 -0.7984
11761TIP3    H156698   6.505   4.442  14.366  1.3400  1.8329  0.6375
11761TIP3    H256699   6.403   4.554  14.362  0.6423  1.1872  0.0390
11762TIP3   OH256700   0.273   5.819  13.376  0.5239 -0.1233 -0.4429
11762TIP3    H156701   0.332   5.792  13.447  2.1493 -0.4306 -1.8527
11762TIP3    H256702   0.291   5.757  13.305  0.0580  1.0901 -1.6624
11763TIP3   OH256703   2.673   2.056   0.462 -0.0322  0.3200 -0.0950
11763TIP3    H156704   2.678   2.151   0.467 -1.1297  0.4556 -1.0758
11763TIP3    H256705   2.637   2.030   0.546 -1.3976  0.9472 -0.4537
11764TIP3   OH256706   4.054   5.696  10.519  0.8909  0.0492 -0.5412
11764TIP3    H156707   4.138   5.725  10.556  1.3541 -0.5979 -1.0567
11764TIP3    H256708   4.068   5.604  10.498  0.4076  0.2123 -1.6551
11765TIP3   OH256709   2.468   6.052  12.694 -0.1364  0.5405 -0.7552
11765TIP3    H156710   2.383   6.008  12.698 -0.7936  1.7143 -1.2457
11765TIP3    H256711   2.532   5.981  12.704 -1.1457 -0.1317  1.8273
11766TIP3   OH256712   4.193   6.382  14.933  0.5598 -0.1688 -0.1320
11766TIP3    H156713   4.265   6.445  14.927  1.1388 -0.7881  0.0919
11766TIP3    H256714   4.235   6.301  14.962 -0.0953 -0.7927 -0.8936
11767TIP3   OH256715   6.244   6.282  13.337  0.2844 -0.4377  0.2137
11767TIP3    H156716   6.311   6.344  13.307  1.5449 -2.2747 -0.9944
11767TIP3    H256717   6.270   6.261  13.427  1.1580 -0.8669 -0.1244
11768TIP3   OH256718   0.447   3.790   2.757  0.3219  0.3078  0.1538
11768TIP3    H156719   0.452   3.757   2.667  1.7549  0.4254  0.1678
11768TIP3    H256720   0.486   3.720   2.810  0.0705  0.5145  0.6137
11769TIP3   OH256721   1.166   4.120   4.644  0.0845  0.1658  0.2883
11769TIP3    H156722   1.216   4.038   4.644 -0.1695 -0.1068 -2.9950
11769TIP3    H256723   1.089   4.100   4.696 -0.2853 -1.9675 -0.9484
11770TIP3   OH256724   0.146   2.912  14.107 -0.0924  0.5256  0.2579
11770TIP3    H156725   0.121   2.829  14.065  1.7480  0.2003 -0.3060
11770TIP3    H256726   0.068   2.939  14.156 -0.8093 -1.4226  0.2848
11771TIP3   OH256727   4.189   0.549   3.347 -0.3162  0.3766  0.7797
11771TIP3    H156728   4.168   0.499   3.426  0.4095  0.2817  0.9136
11771TIP3    H256729   4.279   0.577   3.360 -0.6041  1.4394  0.5565
11772TIP3   OH256730   3.037   3.874   3.980  0.7063  0.5564 -0.4088
11772TIP3    H156731   3.023   3.944   4.043  0.2062  2.3545 -2.4154
11772TIP3    H256732   2.957   3.870   3.929  0.8874 -1.2318 -0.6442
11773TIP3   OH256733   2.771   4.232   1.098  0.3321 -0.1037  0.2427
11773TIP3    H156734   2.793   4.242   1.191 -0.6040  0.1037  0.4492
11773TIP3    H256735   2.705   4.163   1.096 -0.9606  1.0937 -0.0693
11774TIP3   OH256736   2.872   4.898   2.310 -0.0950 -0.1093  0.2050
11774TIP3    H156737   2.782   4.929   2.294 -0.0673  0.8188  1.6385
11774TIP3    H256738   2.924   4.978   2.311  0.2939 -0.3424  2.1150
11775TIP3   OH256739   5.524   2.068   3.164  0.1432 -0.4844 -0.3326
11775TIP3    H156740   5.555   2.060   3.074  0.2000 -1.4440 -0.2414
11775TIP3    H256741   5.528   2.162   3.183  0.2064 -0.2861 -1.2969
11776TIP3   OH256742   1.122   1.768  13.432 -0.2409 -0.6340  0.4138
11776TIP3    H156743   1.088   1.841  13.380  1.0888 -0.6073 -0.4958
11776TIP3    H256744   1.126   1.801  13.521  0.6497  0.5509 -0.0353
11777TIP3   OH256745   4.103   2.416   0.010  0.4878  0.1515  0.5852
11777TIP3    H156746   4.068   2.335  -0.026  0.7099 -1.2718  3.2769
11777TIP3    H256747   4.058   2.486  -0.037 -2.6152 -1.5694  0.7826
11778TIP3   OH256748   5.705   3.641   0.412  0.3459 -0.8065 -0.5658
11778TIP3    H156749   5.664   3.727   0.398  1.0681 -0.6261 -1.7292
11778TIP3    H256750   5.706   3.601   0.325  0.3764 -1.8410 -0.1007
11779TIP3   OH256751   2.180   1.781  12.252  0.0772  0.1717 -0.5337
11779TIP3    H156752   2.274   1.772  12.262 -0.2438 -1.7442  1.4984
11779TIP3    H256753   2.163   1.874  12.267  1.3202 -0.0394  3.4119
11780TIP3   OH256754   3.110   1.273  16.548  0.2637 -0.0103  0.1079
11780TIP3    H156755   3.196   1.278  16.589  1.7873 -1.8960 -2.5295
11780TIP3    H256756   3.109   1.345  16.484 -0.5942  0.6254  0.7957
11781TIP3   OH256757   5.110   1.451   3.155  0.2575 -0.7311 -0.2621
11781TIP3    H156758   5.151   1.455   3.068 -0.7351 -0.8816 -0.7538
11781TIP3    H256759   5.163   1.388   3.203  1.8747  0.6281 -0.1582
11782TIP3   OH256760   1.359   2.933  13.149 -0.0354  0.1591  0.1473
11782TIP3    H156761   1.272   2.896  13.132 -0.0636 -0.1219  0.8694
11782TIP3    H256762   1.406   2.923  13.066 -0.8429  0.7531 -0.3985
11783TIP3   OH256763   5.029   4.412  15.508 -0.1487 -0.4107  0.6412
11783TIP3    H156764   4.998   4.370  15.588 -0.2711  0.7003  1.1967
11783TIP3    H256765   5.095   4.476  15.538  0.4535 -0.5978 -0.2275
11784TIP3   OH256766   4.954   2.799   4.325  0.0282 -0.1317 -0.6554
11784TIP3    H156767   5.041   2.760   4.321  0.2221  0.3634 -1.5557
11784TIP3    H256768   4.925   2.802   4.234 -0.1179  1.4903 -0.5867
11785TIP3   OH256769   4.497   2.789  16.305  0.4509  0.2631 -0.0905
11785TIP3    H156770   4.527   2.781  16.215  0.4118 -2.5516  0.0555
11785TIP3    H256771   4.407   2.758  16.303  1.0458 -1.8034  1.1392
11786TIP3   OH256772   1.227   5.894  13.930  0.6300  0.0746 -0.1904
11786TIP3    H156773   1.187   5.865  13.848 -1.5809  0.2129  0.7575
11786TIP3    H256774   1.243   5.813  13.979 -1.2350  0.1132  0.5715
11787TIP3   OH256775   4.607   4.397   1.565  0.1175  0.1958  0.0956
11787TIP3    H156776   4.539   4.399   1.633  1.9128 -1.0759  2.0397
11787TIP3    H256777   4.685   4.367   1.610  1.3824 -0.9025 -2.6198
11788TIP3   OH256778   3.421   6.607   1.501  0.2871 -0.4296 -0.7701
11788TIP3    H156779   3.452   6.653   1.579 -1.2198 -0.1670 -0.2938
11788TIP3    H256780   3.388   6.524   1.533 -0.4777 -0.2606 -1.1086
11789TIP3   OH256781   1.561   0.562   0.292 -0.2095 -0.6041 -0.4135
11789TIP3    H156782   1.591   0.616   0.365 -1.7462 -1.1371  0.6719
11789TIP3    H256783   1.541   0.625   0.223 -0.8747  0.1450  0.4307
11790TIP3   OH256784   4.522   4.300   6.714  0.5976 -0.3557 -0.3948
11790TIP3    H156785   4.570   4.339   6.641  2.7067 -0.7592  0.7097
11790TIP3    H256786   4.548   4.351   6.790 -0.7852 -0.5881  0.2646
11791TIP3   OH256787   2.157   2.435   0.510 -0.0537  0.4028  0.4866
11791TIP3    H156788   2.114   2.376   0.448 -0.0406  0.0754  0.7888
11791TIP3    H256789   2.127   2.522   0.484  0.2150  0.3036 -0.1961
11792TIP3   OH256790   6.781   2.974  15.615 -0.3097  0.0520 -0.2734
11792TIP3    H156791   6.792   3.026  15.535 -0.9299 -0.3873 -0.6568
11792TIP3    H256792   6.852   2.909  15.610 -2.1244 -1.9817 -2.1091
11793TIP3   OH256793   6.347   1.018  13.374 -0.0006  0.5944  0.2951
11793TIP3    H156794   6.270   1.071  13.392 -0.7688 -0.7662  1.1644
11793TIP3    H256795   6.322   0.964  13.299 -0.1090 -0.2557  0.9384
11794TIP3   OH256796   6.441   5.329   1.037  0.5510  0.8256  0.9121
11794TIP3    H156797   6.457   5.242   1.073  1.6167  1.0656  1.0569
11794TIP3    H256798   6.505   5.339   0.967 -2.2102 -0.0733 -1.9374
11795TIP3   OH256799   2.266   2.474  15.829  0.5411  0.2581 -0.6364
11795TIP3    H156800   2.288   2.522  15.909  0.5490 -0.7979  0.0153
11795TIP3    H256801   2.346   2.426  15.807 -0.2650 -1.6946  0.3738
11796TIP3   OH256802   5.325   4.964   4.906 -0.1016  0.4455 -0.3557
11796TIP3    H156803   5.419   4.981   4.900 -0.0041 -0.0840 -0.3729
11796TIP3    H256804   5.288   5.005   4.827  0.0914  0.8119 -0.2551
11797TIP3   OH256805   1.600   4.756  13.753 -0.1550  0.6175 -0.0328
11797TIP3    H156806   1.601   4.719  13.665 -0.4885 -0.6427  0.4808
11797TIP3    H256807   1.529   4.820  13.751 -0.9666 -0.2677 -0.3524
11798TIP3   OH256808   0.023   0.868  13.664  0.3931  0.3201  0.3153
11798TIP3    H156809   0.103   0.894  13.618  0.1175  1.7761  0.6143
11798TIP3    H256810  -0.007   0.790  13.616  1.2210  0.5844 -0.6829
11799TIP3   OH256811   0.111   5.924  15.200 -0.0200  0.7371 -0.3161
11799TIP3    H156812   0.020   5.899  15.188  0.1580 -0.5443  0.7459
11799TIP3    H256813   0.108   6.012  15.236 -0.8049  0.9699 -0.9403
11800TIP3   OH256814   2.696   2.304   0.832  0.2994  0.0631 -0.2646
11800TIP3    H156815   2.769   2.242   0.828  0.1652 -0.0960 -0.2704
11800TIP3    H256816   2.633   2.263   0.892 -0.9367 -1.0510 -2.1876
11801TIP3   OH256817   2.284   1.484  12.203 -0.0489 -0.2801 -0.1157
11801TIP3    H156818   2.246   1.396  12.207 -0.4103 -0.1120  0.1824
11801TIP3    H256819   2.275   1.518  12.291 -0.0425  0.1162 -0.2661
11802TIP3   OH256820   0.100   2.421  14.127  0.4043 -0.4878 -0.3702
11802TIP3    H156821   0.183   2.383  14.155  0.4748 -1.5041 -1.8800
11802TIP3    H256822   0.086   2.388  14.039 -1.2373  0.2852 -0.4459
11803TIP3   OH256823   2.684   0.740  14.867  0.1023  0.0043  0.3215
11803TIP3    H156824   2.624   0.717  14.796 -1.0392  0.1568  1.2092
11803TIP3    H256825   2.771   0.737  14.827 -0.5016 -0.0648 -1.0350
11804TIP3   OH256826   3.396   5.286   1.562 -0.2786  0.1216  0.1332
11804TIP3    H156827   3.349   5.307   1.481  0.0717 -0.9773 -0.3840
11804TIP3    H256828   3.462   5.354   1.569  0.0572 -0.0776 -0.8339
11805TIP3   OH256829   6.040   2.951   5.513 -0.0668  0.1647 -0.3069
11805TIP3    H156830   5.989   2.922   5.588 -0.1499  0.6391 -0.1745
11805TIP3    H256831   6.009   3.040   5.496  1.1192  0.6874  0.1475
11806TIP3   OH256832   5.837   6.617   4.963  0.4837 -0.1333  0.3868
11806TIP3    H156833   5.759   6.666   4.989 -0.0641 -0.6388 -0.2853
11806TIP3    H256834   5.867   6.660   4.883 -0.4258 -1.2995 -0.6283
11807TIP3   OH256835   5.676   1.030   2.325 -0.1343  0.6816 -0.3263
11807TIP3    H156836   5.611   1.099   2.339  0.6974  1.0420  2.5423
11807TIP3    H256837   5.757   1.077   2.306  0.1660  0.4736  0.3972
11808TIP3   OH256838   3.414   4.705  13.308 -0.4071 -0.1714 -0.2032
11808TIP3    H156839   3.381   4.781  13.356 -1.8946 -0.5853 -0.4940
11808TIP3    H256840   3.478   4.741  13.247  0.0720  0.6218  0.7417
11809TIP3   OH256841   3.658   5.933  11.437  0.2780  0.1802  0.1104
11809TIP3    H156842   3.665   5.944  11.532 -2.8224  2.1660  0.2798
11809TIP3    H256843   3.645   6.022  11.403 -2.1873 -0.7207 -1.6691
11810TIP3   OH256844   2.239   0.152  16.132 -0.7266  0.1458  0.3951
11810TIP3    H156845   2.181   0.098  16.078 -0.6390  1.4680 -1.0931
11810TIP3    H256846   2.284   0.089  16.188 -2.3852 -1.0700  0.4316
11811TIP3   OH256847   6.613   6.082  16.055  0.1111 -0.0771 -0.1599
11811TIP3    H156848   6.687   6.056  16.109  0.3035 -0.4121 -0.5827
11811TIP3    H256849   6.588   6.002  16.007  1.4065  0.7309 -2.3224
11812TIP3   OH256850   1.597   6.590   4.294 -0.3047 -0.4328 -0.0039
11812TIP3    H156851   1.610   6.610   4.387 -0.3761  1.0736 -0.2928
11812TIP3    H256852   1.681   6.555   4.265 -0.0135 -0.1023  0.4313
11813TIP3   OH256853   3.560   6.643   4.702 -0.2497  0.1161  0.5038
11813TIP3    H156854   3.499   6.599   4.643 -1.4002 -0.0848  1.8081
11813TIP3    H256855   3.627   6.577   4.721 -1.2510 -0.6670  1.4086
11814TIP3   OH256856   6.680   0.303   2.630  0.0266 -0.1042  0.1098
11814TIP3    H156857   6.755   0.254   2.597  0.9812  0.1601  1.8118
11814TIP3    H256858   6.636   0.242   2.689 -0.7280 -0.0132 -0.3353
11815TIP3   OH256859   0.435   6.409   4.270 -0.0480  0.1587 -0.6754
11815TIP3    H156860   0.466   6.465   4.199 -0.5364 -0.2017 -1.1732
11815TIP3    H256861   0.485   6.328   4.260  0.7839  0.5409  0.1477
11816TIP3   OH256862   1.936   2.185   0.929 -0.5574 -0.1099 -0.1462
11816TIP3    H156863   1.857   2.238   0.919 -0.2514  0.0649 -1.8623
11816TIP3    H256864   1.906   2.094   0.921 -0.4389 -0.0115 -2.3603
11817TIP3   OH256865   2.549   1.356  16.598 -0.0921 -0.0218  0.2213
11817TIP3    H156866   2.555   1.434  16.653 -1.3474  1.5289 -1.6670
11817TIP3    H256867   2.471   1.310  16.630  0.9087 -0.7874  1.6329
11818TIP3   OH256868   1.254   1.214  13.002 -0.6854 -0.2449 -0.1296
11818TIP3    H156869   1.213   1.208  12.915  0.5999 -0.1370 -0.7721
11818TIP3    H256870   1.210   1.287  13.044  1.2707  2.3311 -2.2006
11819TIP3   OH256871   3.458   1.160  11.098  0.0778 -0.0180 -0.1518
11819TIP3    H156872   3.409   1.104  11.038  1.8273 -1.5992 -0.2112
11819TIP3    H256873   3.392   1.213  11.142 -1.7067 -2.3148  0.0832
11820TIP3   OH256874   3.493   3.095  14.412 -0.8238  0.0785 -0.1693
11820TIP3    H156875   3.415   3.080  14.466  0.0739  0.5039  1.3058
11820TIP3    H256876   3.558   3.035  14.448 -0.4204 -0.1721 -1.3013
11821TIP3   OH256877   0.361   4.379  15.839 -0.0223  0.7641  0.1967
11821TIP3    H156878   0.432   4.315  15.838  0.5458  1.3881 -0.1082
11821TIP3    H256879   0.333   4.383  15.930  0.1725  0.3408  0.2778
11822TIP3   OH256880   6.124   1.269   5.898  0.0134  0.9042 -0.1516
11822TIP3    H156881   6.182   1.275   5.974 -0.6684 -0.0779  0.4629
11822TIP3    H256882   6.085   1.182   5.904  0.3401  0.6013 -1.9275
11823TIP3   OH256883   3.390   5.792   2.702  0.5361 -0.3753  0.5139
11823TIP3    H156884   3.363   5.830   2.786 -0.0300  0.9968 -0.2444
11823TIP3    H256885   3.398   5.699   2.719 -3.6711 -0.8315  1.1803
11824TIP3   OH256886   3.506   6.209   3.133 -0.1595  0.7286  0.3456
11824TIP3    H156887   3.558   6.198   3.053 -1.2697 -1.1335 -0.1655
11824TIP3    H256888   3.416   6.218   3.102 -0.7127 -0.8945  1.4039
11825TIP3   OH256889   5.511   3.332   1.431  0.2479  0.0678  0.3650
11825TIP3    H156890   5.481   3.420   1.410  1.7605  0.3041 -0.9642
11825TIP3    H256891   5.581   3.314   1.368 -0.0722 -2.1144  0.5306
11826TIP3   OH256892   3.956   2.563  16.927  0.1155  0.6075 -0.7405
11826TIP3    H156893   3.941   2.590  16.836 -0.9900 -0.2971 -0.8471
11826TIP3    H256894   3.956   2.645  16.977 -0.1657  1.0389 -1.4373
11827TIP3   OH256895   6.501   5.475  13.677 -0.3736 -0.2001 -0.4009
11827TIP3    H156896   6.562   5.503  13.745 -0.5406  0.4680 -0.5157
11827TIP3    H256897   6.545   5.497  13.595 -1.2198  1.3545 -0.4847
11828TIP3   OH256898   2.229   4.802   0.460  0.1791  0.4351  0.1777
11828TIP3    H156899   2.161   4.856   0.421  1.8192  1.5679 -1.2746
11828TIP3    H256900   2.196   4.713   0.455 -1.1315  0.9466 -0.6148
11829TIP3   OH256901   4.970   1.369  12.799 -0.2288  0.3518  0.6027
11829TIP3    H156902   4.951   1.458  12.770  0.6912 -0.9081 -4.9032
11829TIP3    H256903   4.885   1.332  12.820 -0.8738  1.7907  0.6734
11830TIP3   OH256904   3.588   3.041   0.269 -0.4516 -0.2773  0.1048
11830TIP3    H156905   3.594   3.030   0.364 -0.6603  2.3439  0.4985
11830TIP3    H256906   3.678   3.059   0.241 -0.2691 -1.7927 -0.3343
11831TIP3   OH256907   5.873   1.837  13.570  0.1919  0.2740 -0.3510
11831TIP3    H156908   5.850   1.890  13.493 -0.3113 -0.3938 -0.6793
11831TIP3    H256909   5.873   1.898  13.643  2.6730  1.3459 -1.1572
11832TIP3   OH256910   3.584   1.591  11.771  0.1044 -0.6085 -0.0022
11832TIP3    H156911   3.531   1.550  11.840 -0.4135  1.3192  0.8064
11832TIP3    H256912   3.577   1.685  11.788  2.7471 -0.2201 -0.6732
11833TIP3   OH256913   0.519   3.447   5.079  0.8557 -0.3026  0.0283
11833TIP3    H156914   0.608   3.468   5.110  1.5889 -0.8064 -1.6254
11833TIP3    H256915   0.528   3.440   4.984 -0.9563 -0.4620 -0.1635
11834TIP3   OH256916   3.308   6.120   3.844  0.5597  0.2741  0.7741
11834TIP3    H156917   3.376   6.056   3.823  0.4702  0.7816 -1.3072
11834TIP3    H256918   3.228   6.069   3.850  0.7418 -0.0118  0.7649
11835TIP3   OH256919   1.192   5.664   3.093 -0.5013 -0.1025  0.3348
11835TIP3    H156920   1.215   5.617   3.172  0.4794  0.4428  0.3939
11835TIP3    H256921   1.190   5.756   3.119 -2.1394 -0.0513  0.1688
11836TIP3   OH256922   5.229   4.485  14.528  0.0971 -0.3082 -0.2571
11836TIP3    H156923   5.230   4.521  14.617  0.4795 -0.6867 -0.1071
11836TIP3    H256924   5.294   4.536  14.480  0.0943 -0.2930 -0.2447
11837TIP3   OH256925   0.112   3.059  13.810  0.5273 -0.3226 -0.3024
11837TIP3    H156926   0.023   3.088  13.829  1.0037  1.2655 -0.3597
11837TIP3    H256927   0.166   3.100  13.877  1.0548 -2.7418  0.8625
11838TIP3   OH256928   0.475   0.490  12.003  0.2240 -0.1917  0.8199
11838TIP3    H156929   0.461   0.521  11.913 -0.3201 -0.7119  0.7226
11838TIP3    H256930   0.508   0.567  12.050  2.4566 -0.3848 -0.2735
11839TIP3   OH256931   6.479   6.005   2.352  0.3913  0.8958 -0.1289
11839TIP3    H156932   6.480   6.098   2.329  0.9439  0.9306  0.0134
11839TIP3    H256933   6.407   5.969   2.301 -0.8185  1.6839  0.9781
11840TIP3   OH256934   4.023   5.638   1.191  0.0551  0.4346 -0.0032
11840TIP3    H156935   3.976   5.721   1.196  2.8725  2.1143  0.7404
11840TIP3    H256936   3.973   5.579   1.248 -1.6698  1.7674 -0.0479
11841TIP3   OH256937   3.524   6.396   0.128  0.1895  0.3482 -0.0779
11841TIP3    H156938   3.516   6.338   0.203 -1.8664  2.3921  1.4010
11841TIP3    H256939   3.449   6.375   0.073  1.3054 -0.6586 -1.2820
11842TIP3   OH256940   3.606   6.328   2.819 -0.1993  0.1422 -0.3911
11842TIP3    H156941   3.670   6.381   2.865 -0.7362  0.3446  0.1363
11842TIP3    H256942   3.657   6.279   2.754  0.4072  0.6832 -0.3283
11843TIP3   OH256943   1.453   3.223  13.808 -0.6516  0.5570 -0.5878
11843TIP3    H156944   1.470   3.265  13.724 -0.2997 -1.5441 -1.6541
11843TIP3    H256945   1.482   3.132  13.795  0.8107  0.5097  2.2835
11844TIP3   OH256946   3.677   2.175   6.007 -0.2034  0.2890 -0.3488
11844TIP3    H156947   3.623   2.124   5.947 -1.9466 -0.6708  1.8945
11844TIP3    H256948   3.616   2.237   6.048  0.5903 -0.0017  1.3745
11845TIP3   OH256949   4.542   3.278  11.615 -0.3951  0.6621 -0.0756
11845TIP3    H156950   4.483   3.268  11.541  1.1557  1.1273 -1.4367
11845TIP3    H256951   4.556   3.188  11.647 -0.5154  0.3687 -0.8192
11846TIP3   OH256952   2.559   3.614  16.576 -0.7482 -0.1517  0.1751
11846TIP3    H156953   2.651   3.628  16.553 -1.5054  1.3895 -2.3594
11846TIP3    H256954   2.527   3.553  16.510 -1.3803 -1.3882  1.5738
11847TIP3   OH256955   4.922   4.553  14.129 -0.0471  0.5137 -0.0357
11847TIP3    H156956   4.919   4.580  14.221  2.7868 -1.1505  0.6579
11847TIP3    H256957   5.015   4.553  14.106 -0.0861 -4.0312 -1.2192
11848TIP3   OH256958   1.351   4.214  12.501 -0.2574 -0.2843  0.0602
11848TIP3    H156959   1.391   4.294  12.467 -1.0237  0.9069  1.8019
11848TIP3    H256960   1.262   4.216  12.467 -0.3375 -0.2760  0.2691
11849TIP3   OH256961   5.932   1.679   5.824  0.0620 -0.1644  0.0158
11849TIP3    H156962   5.942   1.762   5.871  0.6662 -0.0225 -0.3561
11849TIP3    H256963   5.837   1.667   5.817 -0.0563  1.1472 -1.0635
11850TIP3   OH256964   0.344   0.853  16.196  0.2313  0.1886  0.4090
11850TIP3    H156965   0.434   0.831  16.173  0.5913  2.6166 -0.9453
11850TIP3    H256966   0.344   0.862  16.291  1.0591 -1.0882  0.5559
11851TIP3   OH256967   0.779   5.084  11.244  0.1921  0.1567  0.3760
11851TIP3    H156968   0.699   5.041  11.274  0.7616 -2.1836 -1.2354
11851TIP3    H256969   0.751   5.140  11.172  0.0902 -1.4504 -0.8728
11852TIP3   OH256970   4.498   2.145  16.192 -0.1827  0.2669  0.2735
11852TIP3    H156971   4.575   2.149  16.136 -2.4894 -1.6567 -3.4253
11852TIP3    H256972   4.454   2.228  16.178 -0.3258  0.1309 -0.0845
11853TIP3   OH256973   5.919   1.734   2.336 -0.3664 -0.2678  0.7433
11853TIP3    H156974   5.953   1.824   2.335 -0.7671 -0.1142  0.6176
11853TIP3    H256975   5.997   1.679   2.344  0.0414  0.0068 -0.9823
11854TIP3   OH256976   5.620   2.143   5.167  1.1282  0.5601 -0.1997
11854TIP3    H156977   5.644   2.090   5.091  3.8739  0.5497  0.5573
11854TIP3    H256978   5.623   2.233   5.135  2.1221  0.5483 -0.1643
11855TIP3   OH256979   1.247   6.288  15.761 -0.0223 -0.3044  0.0926
11855TIP3    H156980   1.232   6.382  15.745  0.2179 -0.3552 -0.4219
11855TIP3    H256981   1.172   6.245  15.720  0.6049 -0.4348 -0.9423
11856TIP3   OH256982   4.753   6.708   0.401 -0.2175 -0.5027 -0.2235
11856TIP3    H156983   4.803   6.650   0.342  5.2368  0.2716  2.9087
11856TIP3    H256984   4.725   6.651   0.472  0.5872 -0.1757  0.3676
11857TIP3   OH256985   3.870   5.546  12.127 -0.1938 -0.1357 -0.6632
11857TIP3    H156986   3.821   5.464  12.114 -2.1332  0.9267 -0.4367
11857TIP3    H256987   3.803   5.610  12.148  1.3582  1.4027 -0.2324
11858TIP3   OH256988   3.704   0.070  11.653  0.1709  0.2452  0.2600
11858TIP3    H156989   3.654   0.149  11.635  0.7353  0.1662 -1.9855
11858TIP3    H256990   3.639   0.001  11.659 -0.2049  0.6085  0.3494
11859TIP3   OH256991   1.930   1.386  12.287  0.5516 -0.4024 -0.3716
11859TIP3    H156992   2.014   1.349  12.313 -0.0240 -2.5152 -1.3206
11859TIP3    H256993   1.943   1.411  12.195  1.2144  2.8021  0.4870
11860TIP3   OH256994   1.466   0.300   0.250 -0.0889 -0.2840  0.4386
11860TIP3    H156995   1.490   0.293   0.158 -1.2462  0.8927  0.0152
11860TIP3    H256996   1.498   0.385   0.278 -0.0948 -0.4645  1.0243
11861TIP3   OH256997   2.495   3.013   5.817  0.0877 -0.4433 -0.2566
11861TIP3    H156998   2.531   3.018   5.905 -0.5273 -0.2199 -0.0124
11861TIP3    H256999   2.463   2.922   5.809 -1.1121 -0.0941  0.2678
11862TIP3   OH257000   1.231   6.143  16.888 -0.3629  0.4740  0.0183
11862TIP3    H157001   1.224   6.225  16.840 -0.2649  1.2664  1.3073
11862TIP3    H257002   1.314   6.105  16.858 -0.4047  0.8474 -0.5799
11863TIP3   OH257003   6.486   0.147  17.038  0.1423  0.3021 -0.0902
11863TIP3    H157004   6.492   0.054  17.060 -5.6204 -0.6210 -0.7647
11863TIP3    H257005   6.491   0.192  17.123  1.5566 -0.6822  0.3898
11864TIP3   OH257006   3.315   1.791   5.083 -0.2212 -0.4820  0.4300
11864TIP3    H157007   3.343   1.850   5.153  1.1806 -0.9389  0.2983
11864TIP3    H257008   3.250   1.734   5.123 -1.8948  1.3633  0.4601
11865TIP3   OH257009   2.854   3.390   2.102  0.0937 -0.0484  0.4219
11865TIP3    H157010   2.850   3.313   2.046 -0.5784  0.5153 -0.3378
11865TIP3    H257011   2.871   3.356   2.190  2.1695 -0.8730 -0.2588
11866TIP3   OH257012   4.560   6.403   4.849 -0.1958 -0.2049  0.8104
11866TIP3    H157013   4.475   6.443   4.830  0.4999  0.5183 -0.9993
11866TIP3    H257014   4.584   6.438   4.934 -1.4426  0.0331  1.0883
11867TIP3   OH257015   5.506   3.654   2.830  0.1514  0.1603 -0.0753
11867TIP3    H157016   5.589   3.692   2.799 -0.1393  1.0496  0.1964
11867TIP3    H257017   5.528   3.617   2.916  0.4186 -0.2125 -0.3007
11868TIP3   OH257018   4.612   0.491  13.915  0.2618  0.3094 -0.6473
11868TIP3    H157019   4.575   0.552  13.978  1.4346 -0.1681  0.5694
11868TIP3    H257020   4.582   0.405  13.944 -0.4650  0.1925 -1.6859
11869TIP3   OH257021   1.894   1.895   0.862 -0.3875  0.0190 -0.1224
11869TIP3    H157022   1.966   1.846   0.903 -2.0973 -1.0702  1.8124
11869TIP3    H257023   1.858   1.834   0.797 -0.9912 -0.4159  0.5880
11870TIP3   OH257024   1.821   5.756   4.147  0.1049 -0.5537  0.2953
11870TIP3    H157025   1.786   5.671   4.175 -0.1380 -0.5794 -0.0845
11870TIP3    H257026   1.764   5.821   4.190 -0.9519 -0.5960 -0.9717
11871TIP3   OH257027   1.233   4.750  13.703 -0.8595 -0.1026  0.7417
11871TIP3    H157028   1.188   4.681  13.654  0.7308 -0.4450 -0.2849
11871TIP3    H257029   1.236   4.717  13.793 -3.9551  0.6080  1.2418
11872TIP3   OH257030   3.543   5.381   5.519  0.1900 -0.2084  0.2480
11872TIP3    H157031   3.602   5.317   5.478 -0.4200 -1.0799  0.6970
11872TIP3    H257032   3.582   5.397   5.605 -0.3517 -1.0054  0.6605
11873TIP3   OH257033   2.602   0.590  14.194  0.0839 -0.1477  0.3292
11873TIP3    H157034   2.608   0.648  14.118 -1.9847  0.6261  0.6768
11873TIP3    H257035   2.630   0.645  14.268  0.5367 -0.3964  0.3476
11874TIP3   OH257036   0.334   2.102  16.311 -0.4086 -0.4180 -0.0661
11874TIP3    H157037   0.421   2.100  16.273 -0.4891  0.5780 -0.3290
11874TIP3    H257038   0.297   2.016  16.293  0.1048 -0.4624 -0.9364
11875TIP3   OH257039   3.740   1.418  13.494  0.2152 -0.3000 -1.2452
11875TIP3    H157040   3.739   1.497  13.548  0.0755 -2.1977  1.7622
11875TIP3    H257041   3.703   1.445  13.410  1.4451  3.0833 -0.8307
11876TIP3   OH257042   3.324   0.959   4.835  0.1293  0.2694  0.6534
11876TIP3    H157043   3.361   0.997   4.755 -0.9298 -0.8440 -0.4071
11876TIP3    H257044   3.371   1.002   4.906  1.1145  1.2788 -0.5668
11877TIP3   OH257045   2.841   3.036  13.208 -0.7527  0.0167  0.1773
11877TIP3    H157046   2.849   3.086  13.127 -4.0217  2.3417  1.0896
11877TIP3    H257047   2.927   3.043  13.249  0.4870  0.1588 -2.2848
11878TIP3   OH257048   4.949   2.268   6.110  0.6011 -0.0602 -0.0016
11878TIP3    H157049   4.966   2.268   6.204  1.8949  1.8192 -0.1563
11878TIP3    H257050   4.854   2.261   6.102  0.3108  1.4855  1.5410
11879TIP3   OH257051   1.650   4.098  15.580 -0.1763  0.1039  0.1698
11879TIP3    H157052   1.633   4.083  15.487 -0.9809  0.7706  0.2015
11879TIP3    H257053   1.568   4.077  15.624 -0.6813  2.3623  0.4360
11880TIP3   OH257054   4.423   2.398  13.764  0.2047  0.1886 -0.1981
11880TIP3    H157055   4.472   2.354  13.834  1.1313 -0.7180 -1.3650
11880TIP3    H257056   4.334   2.367  13.774  0.9250 -2.5103 -1.3202
11881TIP3   OH257057   2.537   1.768   1.114 -0.2558 -0.7910 -0.4232
11881TIP3    H157058   2.505   1.807   1.195 -1.0393 -0.0080 -1.0926
11881TIP3    H257059   2.496   1.820   1.045  0.3425 -1.4944 -1.3217
11882TIP3   OH257060   3.523   3.049   2.531  0.0793  0.3800  0.1890
11882TIP3    H157061   3.541   2.983   2.464  0.7673  0.6267  0.1275
11882TIP3    H257062   3.523   2.999   2.613  0.9734  0.3551  0.1832
11883TIP3   OH257063   4.007   0.689  14.239  0.5083  0.0442 -0.3195
11883TIP3    H157064   4.054   0.772  14.233  2.5028 -1.0003 -0.0611
11883TIP3    H257065   4.036   0.639  14.163 -0.1661 -0.6541 -0.1325
11884TIP3   OH257066   5.961   0.147   5.781  0.4942 -0.3126 -0.0472
11884TIP3    H157067   6.023   0.074   5.773  1.1701  0.3787 -1.5627
11884TIP3    H257068   5.897   0.131   5.712 -0.7407 -0.7070  1.1402
11885TIP3   OH257069   5.184   3.657   4.141 -0.4598 -0.2154 -0.2357
11885TIP3    H157070   5.193   3.572   4.097 -0.6659 -0.7436  0.6998
11885TIP3    H257071   5.271   3.697   4.136  0.2166 -1.4039  1.0898
11886TIP3   OH257072   5.841   1.553  15.477  0.7574 -0.7524  0.2218
11886TIP3    H157073   5.804   1.527  15.561  1.6164 -0.0528  0.8323
11886TIP3    H257074   5.766   1.558  15.418  0.5368 -5.2252 -0.2004
11887TIP3   OH257075   6.489   4.337   1.562 -0.5251 -0.7341 -0.0208
11887TIP3    H157076   6.554   4.405   1.580 -2.0127  1.1378 -1.3528
11887TIP3    H257077   6.422   4.350   1.629  0.1294 -2.3059  1.0077
11888TIP3   OH257078   4.886   1.377  14.324  0.2079 -0.1113 -0.3862
11888TIP3    H157079   4.837   1.459  14.338 -0.2054 -0.4897  0.5020
11888TIP3    H257080   4.825   1.308  14.350  0.9708 -0.6347  0.0582
11889TIP3   OH257081   0.086   6.242  12.959  0.1967  0.6121  0.6283
11889TIP3    H157082   0.057   6.162  12.915  2.0012  0.3850 -0.2430
11889TIP3    H257083   0.137   6.289  12.893  0.1216  1.9314  1.4797
11890TIP3   OH257084   0.020   2.158   4.233 -0.2579  0.2542 -0.4296
11890TIP3    H157085   0.048   2.244   4.201 -1.1857  0.7782  0.1209
11890TIP3    H257086  -0.053   2.177   4.293  2.1650 -0.5490  3.0514
11891TIP3   OH257087   0.423   2.266  15.531 -0.1894 -0.3191  0.2070
11891TIP3    H157088   0.434   2.345  15.583 -0.4435 -0.2425  0.1461
11891TIP3    H257089   0.505   2.219  15.541 -0.3972 -0.5162  1.0362
11892TIP3   OH257090   2.304   2.490   5.384 -0.6659 -0.5724 -0.1159
11892TIP3    H157091   2.377   2.529   5.337  0.3120 -1.0763  0.9273
11892TIP3    H257092   2.273   2.420   5.328 -0.2508 -0.4460 -0.5064
11893TIP3   OH257093   6.051   4.763  14.647 -0.1505  0.8290 -0.0306
11893TIP3    H157094   6.001   4.823  14.591 -0.3064  1.6920  1.0020
11893TIP3    H257095   6.051   4.680  14.599 -3.1909  0.5829  0.2137
11894TIP3   OH257096   6.131   0.702  14.543 -0.0461  0.2667  0.3014
11894TIP3    H157097   6.060   0.637  14.546 -1.5039  1.7831  0.0235
11894TIP3    H257098   6.092   0.778  14.500  0.7696  2.3188  2.9051
11895TIP3   OH257099   2.267   0.308  12.103  0.6838  0.8304 -0.0478
11895TIP3    H157100   2.269   0.325  12.197 -0.5066  0.1255  0.1179
11895TIP3    H257101   2.191   0.358  12.071 -1.3876 -2.0062  0.0533
11896TIP3   OH257102   1.226   2.503   4.390 -0.0339  0.1455 -0.1509
11896TIP3    H157103   1.177   2.543   4.318  0.9630 -0.7461 -1.3897
11896TIP3    H257104   1.221   2.566   4.461 -3.0980  0.0013 -0.1304
11897TIP3   OH257105   3.657   1.273  15.823 -0.1715  0.9643 -0.1284
11897TIP3    H157106   3.712   1.343  15.856  0.5546  0.2432  0.2250
11897TIP3    H257107   3.619   1.234  15.902 -2.1388  2.1708 -0.3979
11898TIP3   OH257108   4.515   1.623  14.678  0.4365 -0.4712  0.2605
11898TIP3    H157109   4.606   1.635  14.650  0.5748 -3.2271 -0.7819
11898TIP3    H257110   4.466   1.608  14.597 -0.6699 -0.6056  0.9279
11899TIP3   OH257111   5.762   3.791   3.657 -0.6392  0.3148 -0.1808
11899TIP3    H157112   5.852   3.821   3.669 -0.6383  0.3859 -0.3598
11899TIP3    H257113   5.770   3.711   3.605 -0.8047  1.5418 -2.1865
11900TIP3   OH257114   6.372   5.492   3.002  0.0619 -0.1593  0.5521
11900TIP3    H157115   6.284   5.528   3.011  1.1258  2.9485 -0.3364
11900TIP3    H257116   6.361   5.417   2.943 -1.7404  1.4548 -1.3477
11901TIP3   OH257117   4.194   2.761   4.757  0.8108  0.0992 -0.1666
11901TIP3    H157118   4.191   2.676   4.712  1.6717 -0.9962  1.7149
11901TIP3    H257119   4.277   2.800   4.729 -0.1501  0.9659 -2.0155
11902TIP3   OH257120   6.650   3.202  15.445  0.5028 -0.0285 -0.2329
11902TIP3    H157121   6.635   3.149  15.367 -0.6530 -2.2793  1.4198
11902TIP3    H257122   6.577   3.181  15.503  2.9075 -0.8883  2.7220
11903TIP3   OH257123   1.165   6.340   6.425  0.0954  0.2667  0.0765
11903TIP3    H157124   1.246   6.302   6.458  0.9033  0.2703 -1.7590
11903TIP3    H257125   1.179   6.435   6.432 -0.3697  0.2664  1.1290
11904TIP3   OH257126   5.287   6.572   0.891 -0.2908  0.4729  0.0322
11904TIP3    H157127   5.258   6.560   0.982 -1.0100  1.6428 -0.0274
11904TIP3    H257128   5.318   6.485   0.865 -1.1364 -0.1627  1.0336
11905TIP3   OH257129   5.885   1.122  13.048 -0.0930  0.3219  0.1916
11905TIP3    H157130   5.832   1.180  13.102 -1.9535 -0.0956 -1.0882
11905TIP3    H257131   5.823   1.080  12.989  1.5281 -1.0828 -0.6277
11906TIP3   OH257132   5.397   4.575  14.317 -0.9456  0.3500 -0.2273
11906TIP3    H157133   5.448   4.500  14.286 -1.7397 -0.3063  0.0258
11906TIP3    H257134   5.410   4.642  14.250 -1.0450 -0.3713 -0.9843
11907TIP3   OH257135   3.935   2.726   4.308  0.3655 -0.2658  1.1733
11907TIP3    H157136   3.878   2.774   4.368  0.6116  1.2872  0.2028
11907TIP3    H257137   3.982   2.793   4.259 -0.1064 -1.4372 -1.0560
11908TIP3   OH257138   6.618   3.694  12.984  0.6096 -0.3828 -0.1197
11908TIP3    H157139   6.548   3.704  13.049 -0.3119  0.7712 -1.2076
11908TIP3    H257140   6.609   3.604  12.952 -0.3587 -0.2686 -0.1986
11909TIP3   OH257141   5.661   5.323  11.789 -0.8896  0.0705  0.2254
11909TIP3    H157142   5.601   5.358  11.855 -2.3681 -0.4036 -0.8052
11909TIP3    H257143   5.659   5.228  11.803  2.0390  0.1479  2.1210
11910TIP3   OH257144   0.126   4.563   2.101  0.4155  0.4612 -0.0915
11910TIP3    H157145   0.216   4.551   2.069  0.4976 -0.6244  0.5341
11910TIP3    H257146   0.137   4.602   2.188  0.2034  2.5516 -0.9210
11911TIP3   OH257147   3.926   5.285   1.064 -0.1186  0.5452  0.1355
11911TIP3    H157148   3.877   5.322   0.991  0.4296  2.4370  0.6827
11911TIP3    H257149   3.927   5.191   1.046 -0.8246  0.8487 -1.7724
11912TIP3   OH257150   4.655   3.501  11.769 -0.3850  0.3376 -0.0744
11912TIP3    H157151   4.655   3.438  11.697 -1.0958  1.3154 -0.9485
11912TIP3    H257152   4.703   3.576  11.736 -1.9541  1.3754 -0.0788
11913TIP3   OH257153   5.957   5.539  11.559  0.1698 -0.0382  0.1305
11913TIP3    H157154   5.975   5.574  11.472 -1.4096  0.1187 -0.1697
11913TIP3    H257155   5.991   5.605  11.619  2.1539 -0.5952 -0.3196
11914TIP3   OH257156   4.926   5.119   1.415 -0.5667  0.3245 -0.4581
11914TIP3    H157157   4.843   5.104   1.460 -0.3650  0.3190 -0.0862
11914TIP3    H257158   4.987   5.143   1.484  0.0135 -0.7091 -0.5805
11915TIP3   OH257159   2.818   3.468   5.389  0.1053 -0.3843  0.1983
11915TIP3    H157160   2.844   3.400   5.452  0.2923  0.4979  1.0928
11915TIP3    H257161   2.725   3.451   5.374 -0.0838 -0.2643  1.1590
11916TIP3   OH257162   0.609   2.019   0.248  0.2385  0.5127  0.6218
11916TIP3    H157163   0.692   2.034   0.293 -0.4133  1.1068  1.6946
11916TIP3    H257164   0.573   2.106   0.234  0.4596  0.3481 -1.1991
11917TIP3   OH257165   2.064   4.540  14.711  0.1100 -0.3273  0.1160
11917TIP3    H157166   2.133   4.606  14.718 -0.0595 -0.1725  0.3377
11917TIP3    H257167   2.004   4.560  14.783  0.9755 -1.7859  1.2996
11918TIP3   OH257168   2.183   0.333  14.621 -0.2057  0.1031 -0.0050
11918TIP3    H157169   2.180   0.428  14.638  0.8683  0.1354  0.0345
11918TIP3    H257170   2.128   0.295  14.690  1.0926  0.5343  1.3129
11919TIP3   OH257171   3.716   5.295  14.522 -0.6032 -0.2122  0.5379
11919TIP3    H157172   3.642   5.293  14.461  0.4903 -0.1683 -0.8657
11919TIP3    H257173   3.780   5.352  14.479  1.1012 -1.9544  0.6067
11920TIP3   OH257174   5.518   2.161   4.327  0.2056  0.4015  0.1504
11920TIP3    H157175   5.584   2.230   4.321 -0.4384  0.8946 -2.2252
11920TIP3    H257176   5.466   2.185   4.403  1.2174  1.4075  0.5579
11921TIP3   OH257177   5.815   4.765  16.661  0.3376 -0.1367  0.5998
11921TIP3    H157178   5.831   4.671  16.673 -0.2349 -0.2733  0.3517
11921TIP3    H257179   5.888   4.808  16.704 -0.0320 -0.6705  1.8031
11922TIP3   OH257180   3.118   1.316  14.663 -0.2244 -0.4410 -0.2272
11922TIP3    H157181   3.025   1.298  14.680  0.5533 -4.3836  0.8986
11922TIP3    H257182   3.128   1.298  14.569 -0.4693 -0.8340 -0.1832
11923TIP3   OH257183   5.505   4.209  12.775  0.0611 -0.6055 -0.3795
11923TIP3    H157184   5.599   4.197  12.760 -0.0299  0.1730 -1.7327
11923TIP3    H257185   5.489   4.302  12.755 -0.6823 -0.2233  1.6962
11924TIP3   OH257186   3.281   0.163  12.889 -0.5968 -0.5113  0.5912
11924TIP3    H157187   3.266   0.257  12.875 -0.3787 -0.5329  0.1861
11924TIP3    H257188   3.211   0.136  12.949 -2.1063 -0.5669 -1.1065
11925TIP3   OH257189   4.664   1.476   3.126 -0.6728  0.0768  0.0548
11925TIP3    H157190   4.627   1.516   3.204  0.9090  1.4690  0.1455
11925TIP3    H257191   4.759   1.482   3.138 -0.3935 -0.8335 -1.4000
11926TIP3   OH257192   6.072   4.936   4.388  0.6004  0.1412 -0.0922
11926TIP3    H157193   5.997   4.986   4.357  0.9953  0.8887  0.1346
11926TIP3    H257194   6.141   4.955   4.324  0.7368 -0.1707 -0.0403
11927TIP3   OH257195   5.263   1.462  12.181 -0.1860 -0.0353  0.2882
11927TIP3    H157196   5.317   1.511  12.243  0.3749 -0.8116  0.4259
11927TIP3    H257197   5.185   1.438  12.231 -0.1847  0.1897  0.3987
11928TIP3   OH257198   0.317   1.167   1.145  0.0739 -0.2926  0.0572
11928TIP3    H157199   0.257   1.237   1.171 -0.2240 -0.9846  1.2709
11928TIP3    H257200   0.286   1.140   1.058 -1.4799 -0.7476  0.7299
11929TIP3   OH257201   0.130   3.069  16.256  0.3300  0.2483  0.1294
11929TIP3    H157202   0.077   3.056  16.335  2.8947  0.3832  2.0313
11929TIP3    H257203   0.178   3.150  16.274 -2.1447  2.8597 -3.5850
11930TIP3   OH257204   0.790   0.177   3.158  0.7616  0.3067 -0.5796
11930TIP3    H157205   0.885   0.172   3.163  0.7496 -0.1158 -0.7174
11930TIP3    H257206   0.768   0.263   3.194  1.0801 -0.2837  1.1553
11931TIP3   OH257207   0.758   3.544   3.578  0.4998 -0.9206 -0.1303
11931TIP3    H157208   0.721   3.558   3.491  0.2715 -2.0482 -0.2250
11931TIP3    H257209   0.802   3.460   3.572  0.4447 -1.0283  0.8636
11932TIP3   OH257210   2.663   5.610  16.102  0.0543  0.1248  0.4232
11932TIP3    H157211   2.587   5.562  16.134  0.4767  0.5788  2.2247
11932TIP3    H257212   2.724   5.543  16.072 -0.7193 -0.2743 -0.2901
11933TIP3   OH257213   6.330   6.506  12.932  0.1763 -0.2181  0.4134
11933TIP3    H157214   6.249   6.457  12.912 -0.0362  0.8479 -1.6528
11933TIP3    H257215   6.400   6.442  12.920 -0.3111 -0.9635  1.4699
11934TIP3   OH257216   0.758   5.132  16.508 -0.0018 -0.1963  0.3553
11934TIP3    H157217   0.825   5.070  16.480 -0.2337 -1.5960  2.6720
11934TIP3    H257218   0.800   5.182  16.578 -0.4975  0.9070 -0.1082
11935TIP3   OH257219   3.863   0.029   5.100 -0.0110  0.5865 -0.1334
11935TIP3    H157220   3.958   0.044   5.099  0.0220  0.4835  0.6649
11935TIP3    H257221   3.850  -0.045   5.042  0.3549  0.8220 -0.5262
11936TIP3   OH257222   6.708   4.769   5.326 -0.0940  0.0180 -0.0429
11936TIP3    H157223   6.656   4.849   5.332 -0.1077  0.0897 -0.9643
11936TIP3    H257224   6.722   4.757   5.232  1.0386 -0.3333  0.1645
11937TIP3   OH257225   0.150   0.595   1.453  0.3028 -0.0916  0.1145
11937TIP3    H157226   0.204   0.673   1.439 -1.8786  1.7233  1.1458
11937TIP3    H257227   0.116   0.606   1.541 -0.5961 -1.8975  0.0191
11938TIP3   OH257228   2.820   4.614  14.214  0.3171 -0.6569  0.4323
11938TIP3    H157229   2.831   4.519  14.217  0.1801 -0.6643  0.9177
11938TIP3    H257230   2.821   4.636  14.121  3.1364 -0.8104  0.3341
11939TIP3   OH257231   3.163   0.626  11.977  0.0152  0.3307  0.1099
11939TIP3    H157232   3.125   0.665  11.899 -1.0802  1.3718  1.1259
11939TIP3    H257233   3.211   0.698  12.019 -0.3276  0.0773  0.9582
11940TIP3   OH257234   3.576   3.174   5.727 -0.0339  0.1145  0.0692
11940TIP3    H157235   3.663   3.194   5.692 -0.7205  0.9170 -1.2793
11940TIP3    H257236   3.545   3.257   5.764 -0.3279 -0.1005  0.3090
11941TIP3   OH257237   6.630   0.987   3.661  0.1880  0.3282 -0.1660
11941TIP3    H157238   6.541   1.001   3.630 -0.0602  0.4721  0.5859
11941TIP3    H257239   6.627   0.903   3.708  0.5642  0.0903 -0.5577
11942TIP3   OH257240   5.986   6.718   1.588 -0.2932  0.1743 -0.4789
11942TIP3    H157241   5.979   6.804   1.629 -0.3487 -0.2041  0.3248
11942TIP3    H257242   6.077   6.693   1.602 -0.6652 -0.5655  0.6644
11943TIP3   OH257243   5.326   1.445   3.916  0.3033 -0.5124  0.1216
11943TIP3    H157244   5.333   1.370   3.856 -1.7023  0.0109 -0.8562
11943TIP3    H257245   5.388   1.509   3.881 -0.4197 -0.4417 -1.1045
11944TIP3   OH257246   3.166   2.651  14.235  0.3167  0.2817  0.5015
11944TIP3    H157247   3.080   2.642  14.194  1.4248 -1.3560 -1.7096
11944TIP3    H257248   3.186   2.563  14.268  0.6708  0.9272  2.1326
11945TIP3   OH257249   3.000   3.038   6.529  0.3530  0.1848 -0.2949
11945TIP3    H157250   2.951   3.111   6.569  0.0573  1.0784 -2.1808
11945TIP3    H257251   3.077   3.079   6.491  1.2324 -0.8261  0.3544
11946TIP3   OH257252   3.727   4.929   4.443 -0.1851  0.2553 -0.1487
11946TIP3    H157253   3.658   4.993   4.422  0.2476  0.6171 -0.4885
11946TIP3    H257254   3.688   4.844   4.421  0.1004  0.5804 -2.1291
11947TIP3   OH257255   3.347   5.541  16.624 -0.1968 -0.1360  0.1223
11947TIP3    H157256   3.406   5.473  16.655  1.3084  0.3673 -1.4968
11947TIP3    H257257   3.346   5.607  16.694  1.0894 -0.2066  0.2247
11948TIP3   OH257258   3.519   5.193   2.387  0.2309 -0.8640 -0.7633
11948TIP3    H157259   3.503   5.108   2.347  2.3570 -1.5115 -0.3261
11948TIP3    H257260   3.536   5.174   2.479 -2.3477  0.3842  0.0722
11949TIP3   OH257261   1.067   6.359  13.334 -0.1988 -0.0965  0.5018
11949TIP3    H157262   1.028   6.292  13.277  0.1765  1.3354 -1.5640
11949TIP3    H257263   1.150   6.321  13.363  0.5101 -0.1905 -1.4847
11950TIP3   OH257264   0.424   4.046   3.801 -0.2343 -0.3207 -0.4641
11950TIP3    H157265   0.354   4.011   3.746  0.1773 -0.8556 -0.6625
11950TIP3    H257266   0.380   4.082   3.878 -0.6804 -1.1622 -0.3204
11951TIP3   OH257267   2.780   2.565  16.208 -0.5885 -0.8182  0.3901
11951TIP3    H157268   2.825   2.494  16.163 -0.7104  0.0473 -1.1509
11951TIP3    H257269   2.799   2.642  16.155 -2.9771 -0.2308  0.3078
11952TIP3   OH257270   0.216   0.278  12.383 -0.2542  0.4030 -0.9697
11952TIP3    H157271   0.281   0.346  12.364 -1.7948  2.0389 -0.5840
11952TIP3    H257272   0.166   0.269  12.302 -0.7346  0.4954 -0.6857
11953TIP3   OH257273   4.273   4.182  12.947 -0.2023 -0.1705  0.0373
11953TIP3    H157274   4.235   4.177  13.035 -0.5266 -1.2621 -0.1577
11953TIP3    H257275   4.324   4.263  12.948 -0.1453 -0.2035  1.2500
11954TIP3   OH257276   0.817   3.145  12.616 -0.1092  0.0095  0.2158
11954TIP3    H157277   0.802   3.095  12.536  0.1411  1.3538 -0.6896
11954TIP3    H257278   0.735   3.192  12.631 -0.4343 -0.8263  1.2094
11955TIP3   OH257279   2.359   5.820   1.607  0.4547 -0.5371  0.3520
11955TIP3    H157280   2.324   5.776   1.530 -1.6084  2.5814 -0.6755
11955TIP3    H257281   2.453   5.823   1.592  0.3989 -2.3205 -0.6704
11956TIP3   OH257282   2.351   0.169   1.528 -0.3635 -0.0407 -0.2621
11956TIP3    H157283   2.287   0.233   1.559  0.3188  1.2919 -1.4825
11956TIP3    H257284   2.419   0.169   1.595 -1.1078 -0.6944  0.5222
11957TIP3   OH257285   2.243   4.587   3.831 -0.1827  0.8615  0.1908
11957TIP3    H157286   2.218   4.535   3.755  0.3626 -0.9289  1.1936
11957TIP3    H257287   2.163   4.593   3.883  0.1111 -0.3386  0.8188
11958TIP3   OH257288   3.490   4.727  16.952 -0.4114  0.2190  0.5174
11958TIP3    H157289   3.570   4.771  16.924 -0.8893 -0.4933 -2.2116
11958TIP3    H257290   3.432   4.797  16.980 -0.5224  1.2715 -2.0860
11959TIP3   OH257291   6.329   3.615  12.816  0.2797 -0.1926 -0.1840
11959TIP3    H157292   6.326   3.525  12.848  0.3822 -0.4340 -0.8345
11959TIP3    H257293   6.242   3.650  12.835  0.6739  0.0306  1.3334
11960TIP3   OH257294   1.252   1.558   5.484  0.2146  0.5779  0.1353
11960TIP3    H157295   1.246   1.504   5.405 -1.2607  0.0039  0.6142
11960TIP3    H257296   1.312   1.628   5.460  1.9904 -1.0925 -0.6084
11961TIP3   OH257297   6.148   6.621   0.931  0.2038  0.6333  0.6328
11961TIP3    H157298   6.227   6.663   0.967  1.0981 -0.3680 -0.0923
11961TIP3    H257299   6.155   6.530   0.960 -0.1520  0.3009 -0.3158
11962TIP3   OH257300   5.127   1.084  12.286 -0.1663 -0.6758 -0.3305
11962TIP3    H157301   5.064   1.063  12.217 -0.9812  1.5380 -0.3271
11962TIP3    H257302   5.089   1.158  12.332  1.3385 -0.8032  1.2167
11963TIP3   OH257303   0.532   4.024   2.225  0.5019 -0.2200 -0.0113
11963TIP3    H157304   0.505   3.986   2.142 -2.0350 -0.1671  0.7037
11963TIP3    H257305   0.612   3.977   2.248  1.0808 -0.4597 -2.2909
11964TIP3   OH257306   1.295   0.820  14.539  0.2691 -0.1709  0.8499
11964TIP3    H157307   1.336   0.734  14.540  0.1031 -0.2524  1.7620
11964TIP3    H257308   1.208   0.805  14.502  1.3902  0.2012 -2.2224
11965TIP3   OH257309   3.583   3.661   4.379 -0.9065 -0.2528 -0.0237
11965TIP3    H157310   3.613   3.683   4.290  0.4151  0.8267  0.6477
11965TIP3    H257311   3.500   3.709   4.388 -1.1868 -0.5766 -0.7507
11966TIP3   OH257312   4.667   4.779   4.558 -0.0713 -0.2297 -0.1167
11966TIP3    H157313   4.713   4.738   4.485 -0.4389  3.1761 -2.5542
11966TIP3    H257314   4.578   4.794   4.525 -0.8484 -0.3287  1.8068
11967TIP3   OH257315   1.324   2.065   1.328  0.1404  0.0622  0.3208
11967TIP3    H157316   1.350   1.977   1.302  1.9416  0.2874  1.1535
11967TIP3    H257317   1.403   2.102   1.369 -0.7859  1.7955  0.6530
11968TIP3   OH257318   4.238   3.603   2.644 -0.1789  0.3701 -0.4019
11968TIP3    H157319   4.174   3.552   2.595 -0.7642 -0.4859  1.1960
11968TIP3    H257320   4.197   3.619   2.729  0.8355  1.7406 -0.1319
11969TIP3   OH257321   2.424   2.567  12.277  0.9022 -0.1339  0.7078
11969TIP3    H157322   2.435   2.477  12.309  1.1769  0.0278  1.0707
11969TIP3    H257323   2.390   2.615  12.353  0.8478  0.0887  0.5416
11970TIP3   OH257324   5.952   3.477  13.844  0.2797 -0.1197 -0.0610
11970TIP3    H157325   6.037   3.502  13.880 -0.2753  0.4059  0.9135
11970TIP3    H257326   5.942   3.385  13.868  1.1422 -0.5931 -1.3481
11971TIP3   OH257327   5.071   6.203  12.003  0.0726 -0.5499  0.1491
11971TIP3    H157328   5.036   6.184  12.090 -0.9906 -1.6188 -0.4833
11971TIP3    H257329   5.141   6.139  11.990  0.2188 -0.4024  0.1943
11972TIP3   OH257330   1.103   1.869  15.997  0.2209 -0.0632 -0.1899
11972TIP3    H157331   1.183   1.922  15.996  0.9160 -0.9778  1.8337
11972TIP3    H257332   1.088   1.849  16.089 -0.4393 -2.7295 -0.7858
11973TIP3   OH257333   2.050   1.617  11.116 -0.3141 -0.2192  0.9070
11973TIP3    H157334   1.956   1.610  11.134 -0.7479  4.0534  1.4299
11973TIP3    H257335   2.056   1.629  11.021 -0.4173  0.2802  0.9590
11974TIP3   OH257336   2.965   5.238  15.310 -0.2402 -0.5099 -0.0647
11974TIP3    H157337   3.028   5.228  15.239 -0.2752 -1.1772 -0.0087
11974TIP3    H257338   3.016   5.223  15.390 -0.6261 -1.9708 -0.0571
11975TIP3   OH257339   6.051   2.907  13.708  0.2040 -0.4399  0.0745
11975TIP3    H157340   6.039   3.000  13.686 -0.1948 -0.5550 -0.2232
11975TIP3    H257341   6.143   2.899  13.731  0.7114 -0.3327 -1.7495
11976TIP3   OH257342   0.891   2.514   5.103  0.0116  0.2788  0.1360
11976TIP3    H157343   0.813   2.569   5.101  0.8528  1.5430  0.6974
11976TIP3    H257344   0.869   2.439   5.048 -0.3137  2.3432 -2.7441
11977TIP3   OH257345   1.858   5.627   1.118 -0.4734  0.2311  0.0525
11977TIP3    H157346   1.876   5.714   1.084  0.6962  0.6235  1.6008
11977TIP3    H257347   1.943   5.583   1.119 -1.3590 -2.1334 -3.6219
11978TIP3   OH257348   1.504   0.378  11.666  0.1309  0.2384  0.1627
11978TIP3    H157349   1.525   0.288  11.645 -1.3722  0.2098 -1.4956
11978TIP3    H257350   1.415   0.374  11.703 -0.1426  1.0771 -0.3712
11979TIP3   OH257351   1.403   0.774  15.560  0.1100 -0.1041  0.1504
11979TIP3    H157352   1.336   0.832  15.523 -0.5717 -0.7540  0.3200
11979TIP3    H257353   1.486   0.814  15.537 -0.1943  3.3016  3.7729
11980TIP3   OH257354   1.926   4.089   4.328 -0.5903 -0.2673 -0.1541
11980TIP3    H157355   1.963   4.167   4.369 -1.1057 -0.2905  0.3767
11980TIP3    H257356   1.918   4.026   4.400 -0.0417 -0.8664 -0.6030
11981TIP3   OH257357   6.655   1.748   1.978  0.0253  0.8040 -0.4894
11981TIP3    H157358   6.584   1.809   1.999 -1.3562 -0.9795  0.2910
11981TIP3    H257359   6.616   1.661   1.991  1.8659 -0.2560 -1.7248
11982TIP3   OH257360   2.331   5.144  14.524 -0.2518  0.3675  0.7591
11982TIP3    H157361   2.354   5.115  14.612  1.3361  0.3555  0.3704
11982TIP3    H257362   2.254   5.091  14.501  0.6846 -1.3194  1.2794
11983TIP3   OH257363   1.108   0.782   5.296 -0.0451 -0.6393  0.4551
11983TIP3    H157364   1.032   0.752   5.347 -0.1094 -0.4979  0.4449
11983TIP3    H257365   1.090   0.752   5.207  0.7305 -2.0927  0.7705
11984TIP3   OH257366   0.990   0.626  11.987 -0.0087 -0.3758 -0.4473
11984TIP3    H157367   0.942   0.595  11.909 -0.9203  0.2260 -0.1406
11984TIP3    H257368   0.948   0.710  12.009  1.2352  0.2033 -0.1984
11985TIP3   OH257369   4.308   2.715   1.001 -0.0860  0.0011  0.3168
11985TIP3    H157370   4.319   2.762   0.918 -1.2142 -1.1448 -0.5276
11985TIP3    H257371   4.365   2.760   1.062  1.2995  0.4759 -1.2497
11986TIP3   OH257372   6.356   2.426   3.808 -0.3528  0.4019 -0.1165
11986TIP3    H157373   6.305   2.378   3.742  0.2104 -0.3419 -0.0271
11986TIP3    H257374   6.334   2.518   3.793  1.0461  0.4499 -2.5047
11987TIP3   OH257375   6.656   5.688  16.249 -0.5576  1.0322  0.3587
11987TIP3    H157376   6.662   5.764  16.306  0.3971  1.6891 -0.5727
11987TIP3    H257377   6.731   5.634  16.272 -1.2245  0.3696  1.0060
11988TIP3   OH257378   4.640   6.595   2.159  0.3300  0.4288 -0.0667
11988TIP3    H157379   4.569   6.658   2.154 -0.5930 -0.4811  0.9548
11988TIP3    H257380   4.635   6.561   2.248  1.4459 -0.3420 -0.2818
11989TIP3   OH257381   1.279   6.034   4.484 -0.7634  0.2639  0.2249
11989TIP3    H157382   1.288   6.069   4.573 -0.9210 -0.6069  0.5927
11989TIP3    H257383   1.211   6.088   4.444 -0.3094  1.0139  0.4446
11990TIP3   OH257384   4.783   1.339  16.386  0.1088 -0.4030 -0.0892
11990TIP3    H157385   4.760   1.339  16.294 -0.0664 -0.9019 -0.0471
11990TIP3    H257386   4.801   1.431  16.406 -0.9008 -0.1337 -0.3545
11991TIP3   OH257387   5.331   2.632  10.960  0.0126 -0.4233 -0.2912
11991TIP3    H157388   5.255   2.625  10.903  0.9139 -0.4098 -1.5415
11991TIP3    H257389   5.395   2.570  10.924  0.9929  0.3401  0.0696
11992TIP3   OH257390   5.779   3.339   1.339 -0.0506  0.3559  0.1937
11992TIP3    H157391   5.787   3.414   1.398 -0.4674  0.2086  0.4406
11992TIP3    H257392   5.829   3.364   1.261  1.5303  0.0682  1.0773
11993TIP3   OH257393   1.365   1.485   4.937  0.5109  0.5527 -0.2832
11993TIP3    H157394   1.275   1.462   4.962  1.0562 -2.4976 -0.6927
11993TIP3    H257395   1.355   1.565   4.885 -2.2473 -0.6545 -1.8720
11994TIP3   OH257396   3.414   1.014   2.214 -0.4417  0.2373 -0.9987
11994TIP3    H157397   3.320   1.022   2.228 -0.5393 -0.3196 -1.3163
11994TIP3    H257398   3.437   1.091   2.162 -0.3002  1.6244  1.0358
11995TIP3   OH257399   5.542   4.760   5.449 -0.0121 -0.3009  1.2272
11995TIP3    H157400   5.489   4.789   5.375  0.2750 -1.4897  0.5426
11995TIP3    H257401   5.511   4.814   5.522  0.0269  1.2188  0.1627
11996TIP3   OH257402   5.751   2.764  14.183  0.1284  0.1773 -0.3555
11996TIP3    H157403   5.839   2.779  14.149  1.2697 -0.9840  1.8413
11996TIP3    H257404   5.764   2.749  14.277 -2.5193  0.7661  0.1848
11997TIP3   OH257405   3.696   4.082   2.792  0.6160 -0.0003 -0.5408
11997TIP3    H157406   3.692   4.002   2.846  1.2533  0.5884  0.4091
11997TIP3    H257407   3.713   4.050   2.704  0.6624 -0.9340 -0.2104
11998TIP3   OH257408   4.268   4.599  11.368 -0.0349 -0.5832 -0.6473
11998TIP3    H157409   4.352   4.640  11.348 -0.9520  0.8600 -1.7457
11998TIP3    H257410   4.238   4.564  11.284 -0.6511 -0.8588 -0.3190
11999TIP3   OH257411   4.147   0.511   2.286 -0.5264 -0.6766 -0.2660
11999TIP3    H157412   4.217   0.472   2.340  0.3801  0.0119 -0.9133
11999TIP3    H257413   4.138   0.451   2.212  1.1144  0.4130 -1.4466
12000TIP3   OH257414   5.071   3.706  11.192  0.3454 -0.2081  0.5023
12000TIP3    H157415   5.145   3.646  11.179  1.0341  0.9110 -1.0914
12000TIP3    H257416   5.104   3.792  11.164 -0.9007  0.7597  1.8293
12001TIP3   OH257417   2.378   1.028  14.548 -0.7817  0.3132 -0.3111
12001TIP3    H157418   2.355   1.111  14.590 -0.5827  0.2717 -0.1212
12001TIP3    H257419   2.302   0.972  14.565 -0.1872 -0.1133  1.0976
12002TIP3   OH257420   6.219   3.000   4.804  0.1066 -0.2220 -0.1599
12002TIP3    H157421   6.258   3.070   4.857 -0.3522 -0.6560  0.7810
12002TIP3    H257422   6.129   2.995   4.835 -0.5494  0.3531 -1.8759
12003TIP3   OH257423   5.144   0.803  12.596  0.7925  0.3651  0.1642
12003TIP3    H157424   5.081   0.770  12.532  1.4905 -0.6152 -0.0373
12003TIP3    H257425   5.164   0.727  12.651  1.8318  0.6443  0.1904
12004TIP3   OH257426   2.734   3.395   3.359 -0.0602  0.3416  0.1297
12004TIP3    H157427   2.680   3.435   3.290  2.2363 -0.1062 -2.0489
12004TIP3    H257428   2.803   3.459   3.375  0.0606 -0.0535  1.2856
12005TIP3   OH257429   4.872   1.555  11.833 -0.4458 -0.3752 -0.4757
12005TIP3    H157430   4.940   1.592  11.889 -2.0276 -0.4045  1.6114
12005TIP3    H257431   4.848   1.627  11.774 -2.1476  1.5165  2.2696
12006TIP3   OH257432   0.075   6.499   0.652  0.3308  0.0228 -0.0428
12006TIP3    H157433   0.077   6.456   0.566 -1.3114  2.0011 -1.1585
12006TIP3    H257434  -0.006   6.549   0.652  1.7618  2.5598  1.4293
12007TIP3   OH257435   4.933   2.396   5.782 -0.3632 -0.9311  0.3097
12007TIP3    H157436   4.969   2.419   5.696 -1.8164  2.3681  0.4605
12007TIP3    H257437   5.010   2.384   5.838  0.5844  0.0076 -0.7503
12008TIP3   OH257438   0.301   1.439  15.255 -0.3357  0.2892  0.3381
12008TIP3    H157439   0.356   1.517  15.244  0.6410 -0.6345 -1.9983
12008TIP3    H257440   0.211   1.472  15.243 -0.2095  1.4762  2.2220
12009TIP3   OH257441   0.045   0.912  12.861 -0.5580  0.0271 -0.1342
12009TIP3    H157442   0.090   0.845  12.810  0.3647  0.7396 -0.2748
12009TIP3    H257443  -0.048   0.899  12.840 -0.4978 -1.8162  0.6048
12010TIP3   OH257444   4.088   5.031  12.220 -0.6645  0.3564 -0.0998
12010TIP3    H157445   4.106   5.105  12.163 -2.5372  0.3941 -0.7037
12010TIP3    H257446   4.063   4.960  12.160 -3.1981  0.5548  0.6419
12011TIP3   OH257447   5.987   1.361   1.630  0.0230 -0.2899 -0.2217
12011TIP3    H157448   6.059   1.409   1.670 -0.1699 -0.9942  1.0390
12011TIP3    H257449   5.969   1.290   1.692 -1.0720 -0.7270 -1.0154
12012TIP3   OH257450   3.708   5.734   2.675  0.2620 -0.4925  0.2785
12012TIP3    H157451   3.655   5.812   2.690 -1.2493 -1.3509 -0.2570
12012TIP3    H257452   3.742   5.710   2.761  0.6479  0.6737  0.4602
12013TIP3   OH257453   4.094   0.897   3.974 -0.4736 -0.4448  0.2287
12013TIP3    H157454   4.189   0.904   3.984 -0.4317  0.2290 -0.5742
12013TIP3    H257455   4.064   0.986   3.957 -0.9528 -0.9617 -1.8726
12014TIP3   OH257456   5.579   3.409  14.258 -0.0586  0.0652 -0.6117
12014TIP3    H157457   5.545   3.465  14.328  2.5340  1.5791 -0.4714
12014TIP3    H257458   5.534   3.439  14.179 -1.5523 -0.3454  0.0341
12015TIP3   OH257459   0.883   1.354  11.787 -0.4866 -0.2291  0.0889
12015TIP3    H157460   0.861   1.286  11.723  1.2159 -0.5882 -0.1621
12015TIP3    H257461   0.859   1.436  11.744 -0.6702 -0.5459 -0.4241
12016TIP3   OH257462   3.895   2.868   2.023  0.1004 -0.6915  0.0536
12016TIP3    H157463   3.968   2.878   2.083 -1.3260 -4.1141  2.7158
12016TIP3    H257464   3.839   2.943   2.041  0.4119 -0.8778  2.0755
12017TIP3   OH257465   0.748   5.987  13.232 -1.0715 -0.0527  0.3192
12017TIP3    H157466   0.799   6.056  13.189 -1.0954 -0.3750 -0.2258
12017TIP3    H257467   0.657   6.007  13.210 -1.1386  0.1433  0.7508
12018TIP3   OH257468   0.067   6.401   0.382 -0.1096 -0.6043 -0.0907
12018TIP3    H157469   0.152   6.403   0.338 -0.5013 -0.0918 -0.8295
12018TIP3    H257470   0.018   6.473   0.344 -0.6567 -0.4917  0.7987
12019TIP3   OH257471   4.722   3.153   6.026  0.1960 -0.7694  0.6167
12019TIP3    H157472   4.697   3.071   6.069 -1.3559 -0.2179  0.8570
12019TIP3    H257473   4.646   3.176   5.973  0.1979  1.0024  1.3161
12020TIP3   OH257474   0.193   5.372   0.776 -0.2839  0.4251 -0.4075
12020TIP3    H157475   0.184   5.278   0.757 -0.4919  0.5270 -0.8176
12020TIP3    H257476   0.164   5.380   0.867 -0.3415  0.1019 -0.3944
12021TIP3   OH257477   1.877   5.304   2.875  0.8171  1.0277  0.3729
12021TIP3    H157478   1.785   5.306   2.849  0.0393  0.3513  2.7758
12021TIP3    H257479   1.923   5.349   2.805 -1.2395  0.7385 -1.2629
12022TIP3   OH257480   1.924   4.514  15.194 -0.8747  0.0067  0.2379
12022TIP3    H157481   1.935   4.582  15.128  1.7208  0.0552  0.6316
12022TIP3    H257482   2.005   4.516  15.245 -2.6729 -0.1387  3.3584
12023TIP3   OH257483   3.280   5.087  13.868  0.2258  0.0372 -0.2174
12023TIP3    H157484   3.285   5.168  13.919  0.8031  0.1791 -0.4875
12023TIP3    H257485   3.209   5.102  13.807  0.2301  0.2838 -0.1642
12024TIP3   OH257486   1.618   4.850   3.914  0.3152 -0.0442  0.0986
12024TIP3    H157487   1.582   4.938   3.903 -1.0783 -0.6527 -0.5196
12024TIP3    H257488   1.633   4.820   3.824  0.0519 -0.7192  0.2780
12025TIP3   OH257489   1.492   0.161  11.337 -1.1477  0.1629 -0.2574
12025TIP3    H157490   1.478   0.137  11.428 -1.3314 -2.0912 -0.8278
12025TIP3    H257491   1.407   0.194  11.307 -1.1833  0.5557  0.2657
12026TIP3   OH257492   4.144   5.449  13.691 -0.0809 -0.0328 -0.3829
12026TIP3    H157493   4.159   5.407  13.607 -1.3656 -0.8701 -0.2161
12026TIP3    H257494   4.179   5.538  13.680  1.5384 -0.7256 -1.1478
12027TIP3   OH257495   2.368   1.301  11.008  0.0886 -0.2423 -0.0867
12027TIP3    H157496   2.337   1.286  10.918  1.5586 -0.2114 -0.6301
12027TIP3    H257497   2.360   1.216  11.050 -0.5674 -0.2711 -0.2583
12028TIP3   OH257498   5.753   5.927  13.027  0.1055  0.0183 -1.0638
12028TIP3    H157499   5.765   5.851  12.970 -0.8429 -1.6166  0.7653
12028TIP3    H257500   5.810   5.910  13.102 -1.0490  0.4434 -0.0522
12029TIP3   OH257501   5.125   3.454   3.167  0.5462 -0.1912 -0.2024
12029TIP3    H157502   5.059   3.523   3.172  0.7371 -0.0093 -0.1997
12029TIP3    H257503   5.208   3.500   3.170  0.6742 -0.4159 -0.2917
12030TIP3   OH257504   5.683   2.033   2.906  0.2376  0.4446  0.7984
12030TIP3    H157505   5.643   1.948   2.888  0.7401  0.8060 -2.8626
12030TIP3    H257506   5.776   2.013   2.918  0.0171  0.2952  2.5378
12031TIP3   OH257507   5.723   1.027  16.155 -0.4511 -0.5208 -0.0846
12031TIP3    H157508   5.818   1.038  16.157 -0.3969 -0.3036 -1.9977
12031TIP3    H257509   5.691   1.086  16.223  0.6747  1.1028 -0.8833
12032TIP3   OH257510   1.237   1.370   1.668 -0.2668 -0.7069  0.4044
12032TIP3    H157511   1.260   1.444   1.725  0.2124 -3.1861  3.6844
12032TIP3    H257512   1.145   1.385   1.647 -0.3980  0.4614  1.6283
12033TIP3   OH257513   3.553   4.299  11.256 -0.7454 -0.3711  0.4724
12033TIP3    H157514   3.586   4.364  11.193  3.9590 -1.7456  1.1328
12033TIP3    H257515   3.528   4.350  11.333  1.9554  0.8801  0.6342
12034TIP3   OH257516   2.415   5.399   4.108  0.7835 -0.1167 -0.4283
12034TIP3    H157517   2.355   5.333   4.072  1.0536 -0.7574  0.2883
12034TIP3    H257518   2.494   5.350   4.131  0.7949  0.3648  0.5859
12035TIP3   OH257519   5.870   2.778  16.747  0.3840  0.6891 -0.3495
12035TIP3    H157520   5.917   2.842  16.801 -1.1112  1.1550  0.4434
12035TIP3    H257521   5.786   2.766  16.791 -0.0313 -0.5682 -1.4152
12036TIP3   OH257522   2.411   1.993  14.305 -0.1764  0.2907 -0.0457
12036TIP3    H157523   2.334   1.943  14.331  0.0026 -0.1169 -0.3004
12036TIP3    H257524   2.377   2.058  14.242 -0.3990  0.4673  0.2536
12037TIP3   OH257525   3.545   0.461   0.434  0.5494 -0.5008  1.1256
12037TIP3    H157526   3.580   0.551   0.430  1.3247 -0.7741  1.5533
12037TIP3    H257527   3.622   0.405   0.430  0.0309 -1.1839  0.2027
12038TIP3   OH257528   4.089   4.460   3.490  0.1840  0.4325  0.7326
12038TIP3    H157529   4.004   4.489   3.458  0.5706  0.7423 -0.0215
12038TIP3    H257530   4.097   4.500   3.576 -0.8606 -0.4039  1.2514
12039TIP3   OH257531   4.164   0.948   3.555 -0.0678  0.5215  0.3781
12039TIP3    H157532   4.228   0.926   3.487  0.5543 -0.1012  1.1416
12039TIP3    H257533   4.098   1.001   3.510  1.2977  1.7159 -0.3077
12040TIP3   OH257534   2.692   5.798  11.734 -0.2606  0.3850  0.0691
12040TIP3    H157535   2.618   5.751  11.772  0.0371  1.2479  1.7983
12040TIP3    H257536   2.765   5.737  11.740 -0.3156  0.3592  0.4993
12041TIP3   OH257537   4.560   2.129  13.896  0.0851 -0.1086 -0.1329
12041TIP3    H157538   4.590   2.146  13.807  4.4606  0.5332  1.2081
12041TIP3    H257539   4.565   2.214  13.940 -0.7204 -0.6429  1.0632
12042TIP3   OH257540   3.571   1.184  10.136 -0.0220 -0.0734 -0.8240
12042TIP3    H157541   3.582   1.269  10.179  0.3689 -0.6637  0.3083
12042TIP3    H257542   3.606   1.197  10.048 -0.2986  1.0295 -0.7891
12043TIP3   OH257543   6.200   4.381   0.173  0.5780  0.6611 -0.2258
12043TIP3    H157544   6.181   4.472   0.193 -1.0928  0.3234 -0.1373
12043TIP3    H257545   6.203   4.377   0.078 -2.5102  0.3121 -0.4221
12044TIP3   OH257546   2.018   2.015  16.096 -0.7597 -0.0826  0.1017
12044TIP3    H157547   2.088   2.013  16.161  0.9811 -0.8064 -1.6917
12044TIP3    H257548   1.974   2.098  16.110  0.3721  0.3333  1.3734
12045TIP3   OH257549   0.362   5.938  12.834  0.9129  1.2276 -0.2401
12045TIP3    H157550   0.315   5.964  12.914 -1.3650 -3.0843  0.1335
12045TIP3    H257551   0.440   5.894  12.866  1.8077  2.5113 -0.6017
12046TIP3   OH257552   6.364   5.483   3.768 -0.0670 -0.1299  0.6296
12046TIP3    H157553   6.368   5.579   3.773 -1.3808 -0.0387  0.1571
12046TIP3    H257554   6.434   5.454   3.827  0.2429  1.1126  0.9166
12047TIP3   OH257555   0.013   6.108  16.915  0.3762 -0.3431 -0.1092
12047TIP3    H157556  -0.063   6.053  16.897 -0.5973  1.4597 -1.8852
12047TIP3    H257557   0.082   6.046  16.940 -1.7325 -2.0290  2.1089
12048TIP3   OH257558   5.957   3.500  14.338  0.3991  0.2397 -0.4963
12048TIP3    H157559   5.909   3.419  14.353 -0.5904  0.6699 -1.2306
12048TIP3    H257560   5.889   3.566  14.325  1.1916  1.1324 -0.2198
12049TIP3   OH257561   2.493   3.155  16.885 -0.4234  0.1995  0.1187
12049TIP3    H157562   2.419   3.097  16.868 -1.5538  2.0979 -2.0137
12049TIP3    H257563   2.479   3.187  16.974 -1.3318 -0.6175  0.2790
12050TIP3   OH257564   3.601   1.479  16.330  0.0575  0.4886  0.3190
12050TIP3    H157565   3.686   1.522  16.323  0.7277 -0.8320 -0.0221
12050TIP3    H257566   3.621   1.392  16.365 -0.9423 -0.4524 -1.3248
12051TIP3   OH257567   3.168   1.373  15.305 -0.2241  0.1966  0.8189
12051TIP3    H157568   3.147   1.293  15.354  0.2263 -1.0085 -0.8493
12051TIP3    H257569   3.100   1.436  15.330 -1.8496 -1.3968  0.6054
12052TIP3   OH257570   5.937   4.214  12.469  0.4863 -0.0530 -0.2673
12052TIP3    H157571   5.958   4.129  12.430  2.4056  0.4668 -0.4491
12052TIP3    H257572   5.995   4.276  12.425 -0.2035  1.2229  0.5437
12053TIP3   OH257573   4.978   0.684  11.964 -0.2842 -0.0981  0.3968
12053TIP3    H157574   5.055   0.725  12.005  0.9502 -1.7451 -0.1684
12053TIP3    H257575   4.964   0.604  12.015 -1.4708  0.0369  0.3064
12054TIP3   OH257576   4.186   0.315  13.973  0.0302  0.1745 -0.0313
12054TIP3    H157577   4.143   0.264  14.042 -0.2861  0.4663 -0.0080
12054TIP3    H257578   4.153   0.276  13.891  1.3528 -0.9769 -0.0447
12055TIP3   OH257579   5.442   1.889  11.318  0.5604  0.3209  0.3861
12055TIP3    H157580   5.388   1.965  11.334 -0.7734 -0.3242 -0.8134
12055TIP3    H257581   5.499   1.883  11.395  0.3498  2.1953  0.7355
12056TIP3   OH257582   0.603   6.613   3.360  0.1982 -0.0518  0.2168
12056TIP3    H157583   0.556   6.565   3.428  0.4843 -3.2978 -1.6968
12056TIP3    H257584   0.692   6.577   3.363 -0.0194 -0.9626 -2.3974
12057TIP3   OH257585   5.083   3.724  15.890 -0.5060  0.1910  0.1267
12057TIP3    H157586   5.123   3.697  15.972  1.0492  0.4942 -0.4917
12057TIP3    H257587   5.022   3.653  15.868 -0.2811 -0.3091  1.0808
12058TIP3   OH257588   4.730   1.404   2.071  0.0577  0.3257  0.6980
12058TIP3    H157589   4.820   1.436   2.081  0.0641  0.4237  0.3260
12058TIP3    H257590   4.678   1.457   2.131  0.0014  1.3033 -0.1911
12059TIP3   OH257591   4.998   2.585   0.338  0.1113  0.4879 -0.3016
12059TIP3    H157592   4.922   2.639   0.359 -0.0817 -0.0971  0.5553
12059TIP3    H257593   4.984   2.504   0.386  1.5061  0.5482  0.2607
12060TIP3   OH257594   0.120   2.664   3.646  0.5385 -0.0481  0.1253
12060TIP3    H157595   0.063   2.706   3.710  0.5621  1.1086 -0.5911
12060TIP3    H257596   0.155   2.587   3.692  1.7810  1.5652  2.0478
12061TIP3   OH257597   3.978   4.990   5.908 -0.3369  0.2616  0.4324
12061TIP3    H157598   4.010   4.905   5.877 -0.1621  0.3646  0.3305
12061TIP3    H257599   3.943   5.033   5.829  0.7864  0.8334  0.2261
12062TIP3   OH257600   4.208   2.131   3.013  0.2337 -0.4070 -0.1567
12062TIP3    H157601   4.184   2.180   3.092 -0.4699  1.0747 -1.2395
12062TIP3    H257602   4.302   2.118   3.020  0.4611  1.2362  0.1098
12063TIP3   OH257603   1.506   2.718  11.618  0.1175  0.2472  0.0231
12063TIP3    H157604   1.593   2.687  11.592 -0.2924  1.6703 -3.6283
12063TIP3    H257605   1.514   2.738  11.711  3.5454 -0.1398 -0.0671
12064TIP3   OH257606   2.233   6.053   1.239  0.6371 -0.0982  0.5418
12064TIP3    H157607   2.320   6.069   1.202 -0.2344  0.0090 -1.5992
12064TIP3    H257608   2.186   6.135   1.228 -0.6940 -1.0303 -1.2588
12065TIP3   OH257609   3.411   4.694   0.502 -0.0289 -0.6619  0.3957
12065TIP3    H157610   3.506   4.700   0.493 -0.0287 -1.0173  0.0970
12065TIP3    H257611   3.380   4.784   0.492  0.0600 -0.8564 -2.3166
12066TIP3   OH257612   1.832   0.932   5.413  0.4834 -0.3407  0.6512
12066TIP3    H157613   1.799   0.854   5.457  2.2224 -1.0433  0.7855
12066TIP3    H257614   1.815   0.917   5.320 -1.3433  0.2390  0.8349
12067TIP3   OH257615   1.799   6.417   4.613 -0.8598 -0.7282  0.2160
12067TIP3    H157616   1.832   6.353   4.550 -0.2029  0.1060 -0.3174
12067TIP3    H257617   1.828   6.385   4.698 -0.3801 -1.0487 -0.0621
12068TIP3   OH257618   4.371   2.158   2.154 -0.3125 -0.0222  0.4636
12068TIP3    H157619   4.318   2.238   2.157  0.1971  0.3670 -0.4645
12068TIP3    H257620   4.460   2.188   2.139  0.2088 -0.6821  2.0175
12069TIP3   OH257621   2.156   3.267   2.512  0.0206  0.1764 -0.3408
12069TIP3    H157622   2.126   3.224   2.592 -3.2881  1.0597 -0.9556
12069TIP3    H257623   2.134   3.359   2.525  1.6597  0.7484 -1.3327
12070TIP3   OH257624   3.177   2.941  14.227 -0.3045 -0.4332  0.0961
12070TIP3    H157625   3.216   2.854  14.233  1.0176  0.1043 -0.3209
12070TIP3    H257626   3.210   2.977  14.145  1.6705  1.5883  1.6325
12071TIP3   OH257627   0.213   4.535   5.005  0.0046 -0.5820 -0.1522
12071TIP3    H157628   0.233   4.514   5.096 -0.1107 -1.5581 -0.3345
12071TIP3    H257629   0.208   4.450   4.962  0.5339 -0.1069 -1.1757
12072TIP3   OH257630   2.809   1.414  15.225 -0.1338 -0.4401  0.5443
12072TIP3    H157631   2.845   1.406  15.313 -0.5481 -0.0814  0.7520
12072TIP3    H257632   2.840   1.499  15.194  3.0565 -2.0257 -1.0865
12073TIP3   OH257633   5.181   6.735   0.534  0.6939  0.1864 -0.1116
12073TIP3    H157634   5.109   6.726   0.596 -0.4398  2.1331 -1.0611
12073TIP3    H257635   5.212   6.645   0.521 -0.5923 -0.5348  1.4148
12074TIP3   OH257636   6.648   3.410   2.449 -0.2422 -0.5369 -0.0533
12074TIP3    H157637   6.575   3.449   2.400 -0.1162 -0.7143 -0.3892
12074TIP3    H257638   6.640   3.446   2.537  0.9086  1.6442 -0.7814
12075TIP3   OH257639   3.381   4.743   5.920  0.4512  0.1196  0.3480
12075TIP3    H157640   3.422   4.696   5.992  2.3162 -0.0453 -0.7434
12075TIP3    H257641   3.295   4.702   5.910 -0.4427  1.0330  3.2713
12076TIP3   OH257642   6.584   4.120  16.212 -0.4085 -0.4993  0.2722
12076TIP3    H157643   6.654   4.145  16.273 -0.2805 -0.6057  0.1682
12076TIP3    H257644   6.520   4.076  16.268  0.0429 -1.2509  0.2166
12077TIP3   OH257645   5.649   1.562  14.671  0.1463  0.4273  0.0347
12077TIP3    H157646   5.688   1.592  14.589  1.0090  1.0744  0.6629
12077TIP3    H257647   5.687   1.475  14.685 -0.5804 -0.0106 -0.6138
12078TIP3   OH257648   3.563   3.634  14.844 -0.4992  0.1445 -0.5125
12078TIP3    H157649   3.631   3.635  14.777  1.3063  0.9381  1.2257
12078TIP3    H257650   3.487   3.674  14.801  0.4099  0.1195 -2.2287
12079TIP3   OH257651   0.370   1.242  13.446 -0.4914 -0.5147 -0.2751
12079TIP3    H157652   0.414   1.188  13.513 -2.5208  1.2996  2.7508
12079TIP3    H257653   0.288   1.196  13.428 -0.1067 -0.8162 -1.3537
12080TIP3   OH257654   1.576   0.553   5.737 -0.6253 -0.8394  0.4860
12080TIP3    H157655   1.490   0.591   5.718 -1.0009 -1.7186  0.4065
12080TIP3    H257656   1.557   0.469   5.780  0.1607 -1.8142 -0.9986
12081TIP3   OH257657   1.745   1.904  14.886 -0.0156  0.4895  0.2283
12081TIP3    H157658   1.658   1.876  14.914  0.0933  0.1023  0.1894
12081TIP3    H257659   1.729   1.954  14.806 -0.2194  0.5866  0.3292
12082TIP3   OH257660   0.450   5.981   1.543  0.2673 -0.2621  0.2589
12082TIP3    H157661   0.443   5.897   1.588  0.1563  0.3721  1.4602
12082TIP3    H257662   0.524   5.971   1.483 -0.1304 -1.4035 -0.0597
12083TIP3   OH257663   2.385   2.396   0.293  0.1272  0.1045 -0.5826
12083TIP3    H157664   2.362   2.374   0.203 -0.0307  1.0974 -0.7975
12083TIP3    H257665   2.301   2.400   0.338  0.1709  0.0684 -0.4975
12084TIP3   OH257666   6.377   1.247   3.465  0.0630  0.5687  0.1825
12084TIP3    H157667   6.328   1.216   3.541 -0.4286 -0.2965 -0.4747
12084TIP3    H257668   6.335   1.330   3.442 -2.0724 -0.8010 -1.2108
12085TIP3   OH257669   5.024   3.334   2.692 -0.0311 -0.0110  0.0380
12085TIP3    H157670   5.090   3.393   2.657  0.0708 -0.7302 -1.0322
12085TIP3    H257671   5.070   3.283   2.758  0.8451 -1.3077 -1.4936
12086TIP3   OH257672   6.428   6.791  10.547  0.0810 -1.0469  0.1089
12086TIP3    H157673   6.415   6.752  10.634  0.1703 -0.9409  0.1704
12086TIP3    H257674   6.484   6.867  10.564 -0.6738 -0.4823  0.0773
12087TIP3   OH257675   0.046   4.746   4.207 -0.3289  1.0942  0.3588
12087TIP3    H157676   0.111   4.677   4.219 -1.6730 -0.2598  0.2291
12087TIP3    H257677   0.090   4.826   4.235  1.6692  0.3855 -0.5958
12088TIP3   OH257678   6.081   5.216  14.865  0.3186 -0.1489 -0.7113
12088TIP3    H157679   5.993   5.246  14.890  0.3476 -0.8655  0.3391
12088TIP3    H257680   6.076   5.121  14.873  0.7400 -0.3167 -2.2444
12089TIP3   OH257681   4.288   2.113  14.079 -0.4001  0.3126 -0.2452
12089TIP3    H157682   4.318   2.203  14.095  0.4555  0.4796 -2.4757
12089TIP3    H257683   4.224   2.121  14.008 -0.3763 -0.8355 -0.4176
12090TIP3   OH257684   0.259   6.668   1.428  0.0334  0.3104 -0.5907
12090TIP3    H157685   0.200   6.592   1.422  1.6579 -1.0934  0.3260
12090TIP3    H257686   0.217   6.735   1.375 -1.7443 -1.0439 -1.0009
12091TIP3   OH257687   1.233   4.608   4.480 -0.3527  0.4278 -0.4025
12091TIP3    H157688   1.310   4.619   4.425  0.3343 -1.3321  0.1376
12091TIP3    H257689   1.268   4.610   4.570 -1.1495  1.0707 -0.0954
12092TIP3   OH257690   2.474   6.646  16.893 -0.1458 -0.3309  0.1180
12092TIP3    H157691   2.385   6.654  16.859 -0.3091 -1.2390  0.2981
12092TIP3    H257692   2.466   6.582  16.964  0.3513  0.8247  1.2525
12093TIP3   OH257693   6.140   3.141  15.197 -0.2382 -0.3425  0.0888
12093TIP3    H157694   6.206   3.103  15.255 -0.4691  1.1919  1.4466
12093TIP3    H257695   6.057   3.103  15.228 -0.4179  0.8433  1.1496
12094TIP3   OH257696   0.484   2.354  13.243  0.1262  0.3013  0.2683
12094TIP3    H157697   0.417   2.332  13.308  0.9973  0.2202  1.1608
12094TIP3    H257698   0.435   2.384  13.166 -1.0126 -1.5521  0.2014
12095TIP3   OH257699   2.852   2.764  16.023 -0.2658  0.1859  0.0108
12095TIP3    H157700   2.795   2.774  15.947 -1.0170  0.1391  0.5641
12095TIP3    H257701   2.843   2.847  16.071  0.6547  0.4460 -0.2441
12096TIP3   OH257702   2.399   5.488  13.467 -0.3321 -0.1508  0.3034
12096TIP3    H157703   2.468   5.542  13.506  1.1354 -1.2151 -0.6918
12096TIP3    H257704   2.377   5.534  13.385 -0.2302 -0.2107  0.2412
12097TIP3   OH257705   6.735   1.628  11.910 -0.1825  0.0695  0.0178
12097TIP3    H157706   6.773   1.716  11.907  1.2014 -0.4496  1.3559
12097TIP3    H257707   6.773   1.587  11.988  0.3948 -2.2551 -1.3730
12098TIP3   OH257708   2.610   0.621  16.668 -0.5533 -0.0953 -0.0957
12098TIP3    H157709   2.607   0.626  16.572 -4.0700 -2.0722 -0.2476
12098TIP3    H257710   2.671   0.550  16.686  2.3277  2.0528 -0.5825
12099TIP3   OH257711   6.255   1.345   1.240 -0.1991 -0.1540  0.8458
12099TIP3    H157712   6.245   1.387   1.154  0.6860 -0.7370  0.4394
12099TIP3    H257713   6.206   1.264   1.233  0.6122 -0.6275  0.5756
12100TIP3   OH257714   6.509   5.234   1.712 -0.2891  0.2954  0.2686
12100TIP3    H157715   6.525   5.139   1.711 -2.4373 -0.1117 -0.7812
12100TIP3    H257716   6.498   5.254   1.805 -1.8848 -0.9071  0.3741
12101TIP3   OH257717   2.085   0.592  10.926  0.3367  0.5750 -0.5504
12101TIP3    H157718   2.014   0.584  10.863 -0.2476 -0.8821  0.2502
12101TIP3    H257719   2.165   0.583  10.874 -0.1521 -1.2747 -1.0229
12102TIP3   OH257720   6.185   2.129   2.417 -0.5843  0.0288  0.0900
12102TIP3    H157721   6.199   2.113   2.324  2.5924  0.3258  0.4183
12102TIP3    H257722   6.219   2.050   2.460 -0.1230  0.7393  1.0586
12103TIP3   OH257723   0.576   0.663   4.443  0.0954  0.2080  0.1253
12103TIP3    H157724   0.490   0.644   4.406  0.8677 -0.7985 -1.2856
12103TIP3    H257725   0.632   0.675   4.366  1.1697  1.1026  1.0129
12104TIP3   OH257726   1.596   1.208  16.211  0.3062 -0.8669  0.5689
12104TIP3    H157727   1.626   1.193  16.121  0.6351  3.2350 -0.1998
12104TIP3    H257728   1.676   1.234  16.257 -0.5030  1.4111  0.8031
12105TIP3   OH257729   5.230   0.450   6.668  0.4962  0.4433  0.0984
12105TIP3    H157730   5.266   0.520   6.613 -2.6692  0.8902 -1.6095
12105TIP3    H257731   5.164   0.494   6.722  0.7047 -0.7145  1.3409
12106TIP3   OH257732   5.270   5.783   6.007 -0.1589  0.1226 -0.2442
12106TIP3    H157733   5.294   5.699   5.969 -0.5335  0.3584 -1.0395
12106TIP3    H257734   5.180   5.771   6.037  0.1576 -0.0803  0.6442
12107TIP3   OH257735   1.722   2.249   1.277 -0.7456 -0.4355 -0.2274
12107TIP3    H157736   1.764   2.165   1.295  0.3505  0.4210  1.5380
12107TIP3    H257737   1.636   2.241   1.317 -1.9048 -1.7644 -2.7862
12108TIP3   OH257738   0.412   4.119   4.609  0.4117 -0.0499 -0.5851
12108TIP3    H157739   0.504   4.142   4.619 -0.1315  1.1679  3.2997
12108TIP3    H257740   0.408   4.027   4.635  0.5865 -0.2991 -1.4128
12109TIP3   OH257741   2.214   6.217   5.989 -0.3684 -0.2957 -0.0185
12109TIP3    H157742   2.303   6.213   6.025 -1.3477 -1.0824  2.5474
12109TIP3    H257743   2.224   6.265   5.906  2.3782 -0.1174  0.3157
12110TIP3   OH257744   3.179   5.329  14.280  0.5344  0.2837  0.0347
12110TIP3    H157745   3.186   5.290  14.367  1.6787 -0.5760 -0.4128
12110TIP3    H257746   3.146   5.258  14.225  1.2961  0.3454 -0.5212
12111TIP3   OH257747   6.516   6.507   0.404  0.3974 -0.1366  0.1501
12111TIP3    H157748   6.444   6.496   0.343  0.2283 -0.9853  0.4943
12111TIP3    H257749   6.561   6.586   0.374 -0.6302  0.3594 -0.1048
12112TIP3   OH257750   3.289   4.370  13.370  0.1807  0.0546  0.1475
12112TIP3    H157751   3.319   4.413  13.450 -0.3239 -1.5596  1.2456
12112TIP3    H257752   3.358   4.389  13.306 -0.2738  2.9039  0.3686
12113TIP3   OH257753   1.230   5.457  12.635  0.0615 -0.2718  0.1428
12113TIP3    H157754   1.274   5.498  12.561  1.0243  1.0703  1.4133
12113TIP3    H257755   1.169   5.395  12.595 -1.1296  2.0158 -1.8768
12114TIP3   OH257756   4.434   5.909   0.916  0.2177  0.0935 -0.1658
12114TIP3    H157757   4.396   5.847   0.979  1.5694  0.6636  1.2600
12114TIP3    H257758   4.525   5.882   0.908  0.2871  0.5931 -1.2190
12115TIP3   OH257759   4.361   2.144   1.774 -0.0963 -0.6869  0.0742
12115TIP3    H157760   4.350   2.183   1.688  1.4088 -0.1637  0.0963
12115TIP3    H257761   4.387   2.216   1.831 -1.4771 -0.9387  1.0830
12116TIP3   OH257762   5.087   5.907   1.551 -0.6488 -0.2889  0.0812
12116TIP3    H157763   4.993   5.889   1.543 -0.6858 -0.0352 -0.0747
12116TIP3    H257764   5.127   5.855   1.481 -0.8044  0.6093 -0.6921
12117TIP3   OH257765   6.453   3.716   3.203  0.2526  0.2445 -0.4718
12117TIP3    H157766   6.440   3.635   3.154  1.8416  0.7963 -1.9152
12117TIP3    H257767   6.367   3.758   3.204 -0.3813 -1.0139 -0.5010
12118TIP3   OH257768   2.767   2.200  10.874 -0.6668 -0.4452  0.0635
12118TIP3    H157769   2.773   2.295  10.885 -0.6595 -0.5834  1.3774
12118TIP3    H257770   2.690   2.174  10.925 -0.8245 -1.1227 -0.4930
12119TIP3   OH257771   3.124   4.715  15.533 -0.1370 -0.4233 -0.1767
12119TIP3    H157772   3.113   4.646  15.598 -0.3536 -0.6721 -0.4693
12119TIP3    H257773   3.166   4.672  15.459 -0.8568 -0.4048 -0.6154
12120TIP3   OH257774   2.218   0.658   4.242  0.1803 -0.6152 -0.7307
12120TIP3    H157775   2.273   0.588   4.275 -0.2541 -0.2808  0.7599
12120TIP3    H257776   2.137   0.615   4.216 -0.5480 -0.5469  1.3124
12121TIP3   OH257777   1.916   0.780   4.216 -0.0210  0.0965  0.9471
12121TIP3    H157778   1.914   0.763   4.310  1.9371  1.8039  1.3703
12121TIP3    H257779   1.912   0.875   4.209 -0.0829 -0.0004 -0.7090
12122TIP3   OH257780   2.000   3.695   2.254  0.1429  0.5937 -0.5613
12122TIP3    H157781   2.014   3.650   2.337 -1.7521  0.8699 -0.0502
12122TIP3    H257782   1.996   3.788   2.276 -1.0918  0.6183 -0.8375
12123TIP3   OH257783   6.265   2.944  11.963  0.0452  0.0652  0.5795
12123TIP3    H157784   6.217   2.884  12.020  0.7710 -0.3510  0.7644
12123TIP3    H257785   6.297   3.013  12.022  0.0486  0.1093  0.5263
12124TIP3   OH257786   6.002   5.944   6.072  0.2316 -0.1780 -0.6649
12124TIP3    H157787   5.950   6.017   6.106  0.2690 -0.9423  1.1623
12124TIP3    H257788   6.048   5.909   6.149  1.2413 -1.3001 -1.7279
12125TIP3   OH257789   3.614   4.973   0.501  0.4925  0.1606  0.3324
12125TIP3    H157790   3.696   5.021   0.498  1.1825 -0.7021  2.6476
12125TIP3    H257791   3.639   4.885   0.528 -1.1364 -0.3122  0.4252
12126TIP3   OH257792   6.544   5.183   1.326  0.3572  0.2205  0.2594
12126TIP3    H157793   6.616   5.120   1.325  1.6339  1.6069  0.2357
12126TIP3    H257794   6.586   5.267   1.305 -1.0285  1.3176  1.6319
12127TIP3   OH257795   6.264   4.142   5.249 -0.2197 -0.1011 -0.2677
12127TIP3    H157796   6.194   4.080   5.226 -1.0494  1.0415 -0.9568
12127TIP3    H257797   6.219   4.227   5.254  0.8463  0.4124  0.8672
12128TIP3   OH257798   6.477   2.176   4.842 -0.0362 -0.1247  0.1302
12128TIP3    H157799   6.489   2.245   4.777 -2.5520  2.3695  2.0265
12128TIP3    H257800   6.521   2.100   4.805  0.0915  1.5597 -3.6693
12129TIP3   OH257801   3.461   6.031   1.381  0.3454  0.6161  0.0761
12129TIP3    H157802   3.379   6.068   1.416  0.3795  0.8788 -0.1216
12129TIP3    H257803   3.477   6.080   1.301 -0.4913 -0.9414 -1.0909
12130TIP3   OH257804   5.982   3.664   0.227 -0.0615  0.1038  0.9021
12130TIP3    H157805   5.947   3.751   0.206 -1.4044 -0.5576  0.2393
12130TIP3    H257806   5.904   3.608   0.229  0.7389 -1.0083  1.7340
12131TIP3   OH257807   0.936   2.942  16.117  0.0900  0.6933 -0.4015
12131TIP3    H157808   0.949   2.855  16.080 -0.8915  1.0096 -1.5448
12131TIP3    H257809   1.005   2.951  16.183 -0.2724 -1.2325  0.2885
12132TIP3   OH257810   0.487   2.770  10.792 -0.4011  0.2860  0.1166
12132TIP3    H157811   0.546   2.845  10.802  1.0718 -1.0514  2.4855
12132TIP3    H257812   0.399   2.809  10.789  0.3536  2.1334  0.5730
12133TIP3   OH257813   3.402   2.311   4.314  0.6353 -0.2994 -0.0519
12133TIP3    H157814   3.379   2.253   4.242  0.6764  0.5154 -0.7464
12133TIP3    H257815   3.420   2.253   4.388 -2.4100 -1.0419  0.2172
12134TIP3   OH257816   4.006   1.576   4.291 -0.4282  0.4305  0.2765
12134TIP3    H157817   4.059   1.521   4.347 -0.8858 -1.4716 -1.0729
12134TIP3    H257818   3.932   1.603   4.347  0.8553  1.4363  1.5514
12135TIP3   OH257819   5.421   4.300  16.767 -0.5224 -0.3030  0.3477
12135TIP3    H157820   5.387   4.217  16.800  0.0469 -0.0976  1.5369
12135TIP3    H257821   5.482   4.275  16.697  0.3327 -0.9817  1.2916
12136TIP3   OH257822   4.000   6.140   6.418  0.3257  0.4787  0.5026
12136TIP3    H157823   3.969   6.054   6.389 -0.3077  0.2953  1.6607
12136TIP3    H257824   3.920   6.186   6.444  0.7386  1.1364  0.6173
12137TIP3   OH257825   1.084   1.985   4.571  0.1977  0.6017  0.2251
12137TIP3    H157826   1.029   1.954   4.499  0.9861  1.4515 -0.7595
12137TIP3    H257827   1.089   1.910   4.631  1.6168 -1.0396 -1.8136
12138TIP3   OH257828   3.125   0.736  14.228  0.3256  0.0097 -0.1068
12138TIP3    H157829   3.119   0.645  14.255  0.7082 -0.0533 -0.2313
12138TIP3    H257830   3.039   0.773  14.249  0.0719 -0.4501 -0.3257
12139TIP3   OH257831   4.929   3.290  15.423  0.3919  0.3303 -0.6390
12139TIP3    H157832   4.952   3.226  15.355 -0.4831  1.0731 -1.6578
12139TIP3    H257833   4.918   3.372  15.376 -3.4583  0.2686 -0.2045
12140TIP3   OH257834   4.872   0.676   5.671 -0.4119  0.1922  0.4659
12140TIP3    H157835   4.947   0.727   5.640 -1.1532  0.6906 -0.5850
12140TIP3    H257836   4.877   0.681   5.766  1.9654 -1.3929  0.5027
12141TIP3   OH257837   1.235   0.170   4.183  0.4146 -0.0469  0.1907
12141TIP3    H157838   1.184   0.196   4.260  1.3779  1.2801  0.4025
12141TIP3    H257839   1.201   0.083   4.161  0.4080 -0.6573  2.3688
12142TIP3   OH257840   6.359   3.838  14.959  0.3209  0.0892 -0.2750
12142TIP3    H157841   6.351   3.743  14.966 -0.0686  0.0042 -1.5153
12142TIP3    H257842   6.423   3.851  14.889  1.8630  0.7651  1.2051
12143TIP3   OH257843   0.517   4.835   2.826 -0.2825 -0.5971 -0.6140
12143TIP3    H157844   0.537   4.792   2.909  1.1974  0.4403 -0.3954
12143TIP3    H257845   0.593   4.817   2.771  1.2159  2.9275  0.0111
12144TIP3   OH257846   0.654   6.478   1.020  0.2592 -0.1240  0.0629
12144TIP3    H157847   0.636   6.560   0.973 -0.2880  0.4244  1.1693
12144TIP3    H257848   0.570   6.454   1.059 -0.9527 -3.8871 -4.0726
12145TIP3   OH257849   3.833   4.890  16.711  0.5790  0.0726  0.3532
12145TIP3    H157850   3.860   4.805  16.677 -0.0862 -0.7596  1.8092
12145TIP3    H257851   3.748   4.906  16.671  0.1330 -0.5516  1.0358
12146TIP3   OH257852   2.559   4.227  15.090 -0.0006 -0.3704 -0.6549
12146TIP3    H157853   2.544   4.169  15.015 -1.2153 -0.4039 -0.4144
12146TIP3    H257854   2.634   4.188  15.135  1.5662  0.3429 -2.4955
12147TIP3   OH257855   5.468   4.932  10.816 -0.0419 -0.1530  0.4608
12147TIP3    H157856   5.410   4.860  10.791 -0.1706 -0.6563  2.0923
12147TIP3    H257857   5.480   4.982  10.735 -0.5989 -1.5422 -0.5231
12148TIP3   OH257858   5.618   3.515  11.395  0.4210  0.2119  0.7210
12148TIP3    H157859   5.614   3.536  11.302  0.2242  1.7984  1.0602
12148TIP3    H257860   5.625   3.600  11.439 -0.8481 -0.4014  2.2225
12149TIP3   OH257861   0.443   1.433   2.578  0.4957  0.0788 -0.3211
12149TIP3    H157862   0.437   1.353   2.630 -0.0163  0.9350  0.9806
12149TIP3    H257863   0.501   1.410   2.505  0.1025 -1.5608 -0.1533
12150TIP3   OH257864   0.096   1.696  13.430 -0.1831  0.4495  0.1364
12150TIP3    H157865   0.130   1.672  13.516  2.8124  0.2623 -0.9596
12150TIP3    H257866   0.142   1.637  13.370 -3.0933 -0.2728 -1.5576
12151TIP3   OH257867   3.047   2.074   2.809  0.2832  0.1145 -0.2421
12151TIP3    H157868   2.958   2.057   2.778  0.2492  0.3230 -0.2579
12151TIP3    H257869   3.103   2.029   2.746  0.2175  0.6350 -0.6737
12152TIP3   OH257870   2.797   6.575  14.839  0.0102 -0.1710  0.4487
12152TIP3    H157871   2.732   6.520  14.884 -0.3129 -1.4575 -1.4831
12152TIP3    H257872   2.876   6.522  14.836  0.2718  0.2271  0.2547
12153TIP3   OH257873   1.369   4.978   4.244 -0.1371  0.1452  0.2364
12153TIP3    H157874   1.414   4.909   4.194 -1.4216 -0.2140 -0.4750
12153TIP3    H257875   1.381   4.953   4.335  1.5912  0.3797  0.0996
12154TIP3   OH257876   6.589   5.646  15.064  0.5270 -0.0070  0.5581
12154TIP3    H157877   6.655   5.660  14.996  0.8973 -0.5200  0.8012
12154TIP3    H257878   6.566   5.553  15.056 -0.9303  0.3913 -0.1962
12155TIP3   OH257879   1.729   6.105  16.166  0.0624  0.4207 -0.1131
12155TIP3    H157880   1.818   6.111  16.132 -0.0789 -0.1343 -0.5940
12155TIP3    H257881   1.735   6.143  16.254  0.1528  3.0545 -1.1806
12156TIP3   OH257882   1.208   0.061  14.025 -0.2399  0.0466 -0.2767
12156TIP3    H157883   1.213  -0.022  13.979  0.5014  0.6195 -1.2706
12156TIP3    H257884   1.116   0.087  14.017 -0.7794 -1.2608  1.1590
12157TIP3   OH257885   5.514   3.509   3.594 -0.7542  0.3417  0.3000
12157TIP3    H157886   5.471   3.537   3.674 -2.6023 -1.2958 -0.0592
12157TIP3    H257887   5.449   3.524   3.525  0.0487 -0.1983 -0.5939
12158TIP3   OH257888   0.377   2.519   1.810  0.1444  0.4802 -0.0060
12158TIP3    H157889   0.347   2.434   1.778  0.1890  0.4967 -0.0908
12158TIP3    H257890   0.302   2.577   1.797 -1.2677 -0.3171  3.3716
12159TIP3   OH257891   4.864   3.702   1.595 -0.1366 -0.2572 -0.3628
12159TIP3    H157892   4.923   3.768   1.559 -1.5292 -1.0737 -4.7030
12159TIP3    H257893   4.778   3.743   1.593 -0.6519 -1.3261 -0.5511
12160TIP3   OH257894   5.966   4.916   0.676 -0.1534  0.6710  0.5221
12160TIP3    H157895   5.986   4.892   0.586 -2.6489  3.7248 -1.0448
12160TIP3    H257896   5.912   4.845   0.709  2.3994 -1.4685  0.4635
12161TIP3   OH257897   3.816   1.238   0.503  0.3000  0.4013 -0.0212
12161TIP3    H157898   3.857   1.168   0.553 -1.7675 -0.8492  0.0361
12161TIP3    H257899   3.810   1.311   0.564 -1.4376 -0.8310  1.3818
12162TIP3   OH257900   3.081   2.862  16.206 -0.1292  0.6294  0.0515
12162TIP3    H157901   3.121   2.839  16.122  0.6837 -1.0953  0.8596
12162TIP3    H257902   3.023   2.935  16.186 -2.1308 -1.5001 -2.5628
12163TIP3   OH257903   3.454   3.879  12.790  0.2417  0.0190 -0.3433
12163TIP3    H157904   3.547   3.854  12.792 -0.0507 -1.2314 -0.9799
12163TIP3    H257905   3.411   3.805  12.748 -1.0573  0.5827 -0.0470
12164TIP3   OH257906   2.942   2.011  16.997  0.1096 -0.0080  0.3997
12164TIP3    H157907   2.996   2.009  16.918 -0.4050 -1.4007  0.0621
12164TIP3    H257908   2.908   2.100  17.001 -2.2626 -0.6160 -2.6136
12165TIP3   OH257909   3.846   6.399  11.586 -0.3952 -0.0724  0.8630
12165TIP3    H157910   3.889   6.338  11.645  1.7502  1.4924  0.9963
12165TIP3    H257911   3.858   6.485  11.626  0.5624  0.9593 -1.4517
12166TIP3   OH257912   5.766   4.290  16.829  0.1867 -0.3041 -0.1463
12166TIP3    H157913   5.747   4.205  16.868  1.5469  0.1902  1.8150
12166TIP3    H257914   5.681   4.333  16.821 -0.3537 -1.2716  0.2880
12167TIP3   OH257915   0.457   5.307  11.530 -0.0911 -0.2932 -0.4268
12167TIP3    H157916   0.527   5.337  11.472 -0.1993 -0.4368 -0.6341
12167TIP3    H257917   0.425   5.386  11.572  0.4936 -0.2776  0.0032
12168TIP3   OH257918   4.580   1.015  15.747  0.4063  0.2209  0.5242
12168TIP3    H157919   4.609   0.968  15.668  0.5033 -0.8941  1.2023
12168TIP3    H257920   4.549   0.946  15.806 -0.4906  1.1152  1.1277
12169TIP3   OH257921   3.985   5.377  14.723  0.1949  0.0626  0.4335
12169TIP3    H157922   4.040   5.455  14.719  0.3669 -0.1035 -0.6645
12169TIP3    H257923   3.912   5.402  14.779 -0.9303  1.7929 -1.6904
12170TIP3   OH257924   0.306   3.945  13.357  0.4444  0.4301 -0.3137
12170TIP3    H157925   0.229   3.889  13.343 -0.0741  0.5955  1.6269
12170TIP3    H257926   0.368   3.888  13.403  0.1807  1.2152  1.0550
12171TIP3   OH257927   4.179   4.747   5.304 -0.1333  0.2261  0.0042
12171TIP3    H157928   4.134   4.797   5.372 -0.4056 -0.7992  0.5864
12171TIP3    H257929   4.268   4.736   5.338 -0.0590  0.3467 -0.1474
12172TIP3   OH257930   3.712   2.241  14.201  0.3151  0.5523 -0.3036
12172TIP3    H157931   3.680   2.323  14.239  0.8750  1.7960 -2.3619
12172TIP3    H257932   3.640   2.179  14.215  0.1515  1.1416  1.9128
12173TIP3   OH257933   6.405   0.999   1.932 -0.0312 -0.4176  0.1473
12173TIP3    H157934   6.356   1.036   2.004  2.3486  0.7237  1.2828
12173TIP3    H257935   6.366   1.038   1.853 -1.4958 -0.2917  0.9074
12174TIP3   OH257936   0.127   4.217   5.053 -0.0060 -0.3002 -0.0677
12174TIP3    H157937   0.192   4.201   5.121  0.6265 -0.5087 -0.7024
12174TIP3    H257938   0.057   4.154   5.071  1.5110 -2.4973 -1.3352
12175TIP3   OH257939   0.713   2.474   5.948  0.1946  0.2990  0.2940
12175TIP3    H157940   0.741   2.383   5.939  0.2764  0.0389  2.5118
12175TIP3    H257941   0.793   2.521   5.972  0.0591  0.8854 -0.3622
12176TIP3   OH257942   1.121   6.513   0.141 -0.3314  0.0729 -0.6800
12176TIP3    H157943   1.077   6.435   0.174  0.8092 -1.3145 -2.3184
12176TIP3    H257944   1.052   6.580   0.139 -1.2568 -0.7435  1.0545
12177TIP3   OH257945   2.551   2.859   1.031 -0.1762 -0.3583  0.7086
12177TIP3    H157946   2.638   2.844   0.994  0.1758 -0.3953  1.5523
12177TIP3    H257947   2.496   2.792   0.990  0.0856 -0.0778 -0.1396
12178TIP3   OH257948   0.672   2.580   3.251  0.1146  0.6073 -0.3299
12178TIP3    H157949   0.593   2.579   3.304  0.8187 -1.2002  0.7814
12178TIP3    H257950   0.738   2.622   3.307  0.2750  0.9255 -0.7489
12179TIP3   OH257951   0.380   6.345  16.366 -0.3404  0.2239 -0.0918
12179TIP3    H157952   0.353   6.262  16.327  1.0100 -0.3183  0.0772
12179TIP3    H257953   0.324   6.354  16.444 -0.2127 -0.7431  0.1289
12180TIP3   OH257954   0.913   3.625  15.061  0.1623 -0.2169 -0.0718
12180TIP3    H157955   0.841   3.671  15.017 -0.5308 -1.0067  0.1924
12180TIP3    H257956   0.937   3.682  15.134  2.3437  1.8519 -2.2200
12181TIP3   OH257957   6.685   2.687   6.011 -0.3485  0.3184  0.0003
12181TIP3    H157958   6.745   2.751   6.051 -0.0250 -0.8154  1.3932
12181TIP3    H257959   6.615   2.676   6.075 -0.2049 -0.9857 -0.0375
12182TIP3   OH257960   1.884   5.395   1.444  0.1284  0.5374 -0.5133
12182TIP3    H157961   1.803   5.446   1.442 -0.3323 -0.1718 -0.6506
12182TIP3    H257962   1.866   5.320   1.387  0.3669 -0.3726  0.5519
12183TIP3   OH257963   2.713   2.532   0.696  0.4131 -0.1713  0.4042
12183TIP3    H157964   2.709   2.452   0.748  0.7113 -1.1360 -1.0139
12183TIP3    H257965   2.623   2.565   0.696 -0.4326 -2.2637 -1.6022
12184TIP3   OH257966   3.451   6.139   1.122  0.1906 -0.0915 -0.0645
12184TIP3    H157967   3.527   6.089   1.094 -0.1783 -0.5547 -0.2523
12184TIP3    H257968   3.404   6.159   1.042 -0.2930 -0.4874  0.1101
12185TIP3   OH257969   2.450   2.457  14.243 -0.0166  0.1851  0.2120
12185TIP3    H157970   2.496   2.389  14.294 -0.2231 -1.8632 -2.1414
12185TIP3    H257971   2.359   2.427  14.241 -0.4938  1.5606  0.6801
12186TIP3   OH257972   1.448   6.750   2.851 -0.7685 -0.1226  0.0593
12186TIP3    H157973   1.496   6.732   2.932  0.0437  3.3342  0.4927
12186TIP3    H257974   1.461   6.671   2.798  0.4564 -1.6477  2.4278
12187TIP3   OH257975   5.947   5.390   9.991  0.2315  0.2168  0.0334
12187TIP3    H157976   5.975   5.480  10.007  0.2526  0.4138 -1.0741
12187TIP3    H257977   5.852   5.392  10.003  0.2417  0.3624  0.0949
12188TIP3   OH257978   3.228   3.826  15.552  0.4225  0.5360 -0.4231
12188TIP3    H157979   3.218   3.806  15.459 -0.0743 -1.4285 -0.0013
12188TIP3    H257980   3.138   3.829  15.586  0.5183  2.7068 -0.2393
12189TIP3   OH257981   1.033   4.555   5.752 -0.3261  0.0802  0.0167
12189TIP3    H157982   0.940   4.532   5.757  0.0951 -1.6798  0.8192
12189TIP3    H257983   1.079   4.475   5.780  1.5526 -0.1166 -3.1162
12190TIP3   OH257984   4.289   0.221  15.213  0.2782 -0.3885  0.1929
12190TIP3    H157985   4.318   0.268  15.134 -1.9089  0.2845 -0.3063
12190TIP3    H257986   4.324   0.272  15.286 -3.6819  3.6347 -0.2342
12191TIP3   OH257987   5.904   4.004  16.404 -0.1770 -0.1153 -0.3237
12191TIP3    H157988   5.942   4.004  16.316  0.7543 -1.4720  0.0457
12191TIP3    H257989   5.828   3.945  16.398  0.0688 -0.4529 -0.1562
12192TIP3   OH257990   4.115   3.910   5.742 -0.2830 -0.0540  0.0510
12192TIP3    H157991   4.040   3.966   5.765 -1.5512 -1.9449  0.8155
12192TIP3    H257992   4.131   3.927   5.650 -1.1504  0.9696  0.0712
12193TIP3   OH257993   3.762   5.302  16.956  0.1289  0.3357  0.0004
12193TIP3    H157994   3.816   5.361  17.009  1.0702 -1.3504  1.0174
12193TIP3    H257995   3.762   5.220  17.005 -1.8290 -0.2855 -0.9475
12194TIP3   OH257996   6.243   4.985  11.651  0.0838 -0.4566 -0.3415
12194TIP3    H157997   6.190   4.994  11.572  0.1716 -3.5107 -0.8716
12194TIP3    H257998   6.252   4.891  11.663  1.5692 -0.0676  2.3447
12195TIP3   OH257999   3.597   2.325  15.779 -0.1002  0.0344 -0.0284
12195TIP3    H158000   3.626   2.290  15.863 -1.8565  0.1934  0.6868
12195TIP3    H258001   3.596   2.250  15.720  2.3418  0.1462 -0.3055
12196TIP3   OH258002   3.664   4.848  14.101  0.5041 -0.6385 -0.2548
12196TIP3    H158003   3.594   4.914  14.105 -0.5861 -1.6180 -1.9036
12196TIP3    H258004   3.687   4.832  14.193  0.2585  1.4250  0.2218
12197TIP3   OH258005   1.120   4.559   0.764  0.4504 -1.0747 -0.0911
12197TIP3    H158006   1.145   4.533   0.852 -2.3181  1.8817  1.8064
12197TIP3    H258007   1.196   4.605   0.730  0.6574  0.2799  2.0186
12198TIP3   OH258008   3.491   4.306  15.501  0.5201 -0.1722 -0.3415
12198TIP3    H158009   3.495   4.222  15.547  1.0260  0.4285  0.7588
12198TIP3    H258010   3.536   4.367  15.559 -0.4298  1.0116 -0.8090
12199TIP3   OH258011   3.860   1.823  15.664 -0.3772 -0.4202 -0.0103
12199TIP3    H158012   3.818   1.799  15.747 -0.5669 -1.3564 -0.3692
12199TIP3    H258013   3.817   1.769  15.598  0.4961 -0.4489 -0.5717
12200TIP3   OH258014   5.652   1.690  16.442 -0.0648 -0.1744 -0.0531
12200TIP3    H158015   5.599   1.683  16.362  0.2153 -1.3452 -0.1561
12200TIP3    H258016   5.637   1.779  16.472 -0.4137  0.1993 -1.2495
12201TIP3   OH258017   5.491   4.063   4.830 -0.1031 -0.0557 -0.2128
12201TIP3    H158018   5.402   4.096   4.847 -0.8127 -0.8746 -2.0873
12201TIP3    H258019   5.500   3.988   4.889 -1.0868 -0.6207 -0.7482
12202TIP3   OH258020   5.615   5.173  13.472 -0.1390 -0.2195  0.0908
12202TIP3    H158021   5.601   5.246  13.533  0.4021 -1.5525  1.9329
12202TIP3    H258022   5.554   5.106  13.501 -0.5696 -0.5572 -1.5128
12203TIP3   OH258023   4.634   2.784  16.050  0.4284  0.4366  0.3305
12203TIP3    H158024   4.710   2.839  16.068  0.3823  0.5401  0.2107
12203TIP3    H258025   4.574   2.841  16.001  0.9531 -0.1221 -1.0094
12204TIP3   OH258026   4.662   6.022   3.023 -0.2505 -0.1139 -0.0303
12204TIP3    H158027   4.754   6.002   3.008 -0.6048 -2.1104  0.2576
12204TIP3    H258028   4.621   5.937   3.038 -1.9352  0.8307  0.9838
12205TIP3   OH258029   0.051   3.423  17.129  0.2609 -0.3346  0.3529
12205TIP3    H158030   0.055   3.337  17.170 -2.4388 -1.1379 -0.7975
12205TIP3    H258031  -0.006   3.409  17.052  0.8309  2.1963 -0.6020
12206TIP3   OH258032   0.572   4.997   0.123 -0.2287  0.5254 -0.2984
12206TIP3    H158033   0.618   4.914   0.134 -0.7577  0.2606  0.0162
12206TIP3    H258034   0.479   4.973   0.121 -0.3996  1.1241 -0.0344
12207TIP3   OH258035   4.412   6.389  12.015  0.0315 -0.0791  0.4005
12207TIP3    H158036   4.332   6.416  11.969  0.8085  1.5114 -0.1004
12207TIP3    H258037   4.483   6.413  11.956  1.0115  1.1156  1.9701
12208TIP3   OH258038   3.311   4.347   0.277  0.7157 -0.1057 -0.0207
12208TIP3    H158039   3.325   4.442   0.277  3.0113 -0.3485 -1.5472
12208TIP3    H258040   3.330   4.320   0.187  0.6820 -2.0741  0.5116
12209TIP3   OH258041   2.911   3.486   4.901  0.0157 -0.3360 -0.1819
12209TIP3    H158042   2.995   3.441   4.900 -0.5613 -1.4886 -1.6869
12209TIP3    H258043   2.897   3.512   4.810 -0.9433  0.4562  0.1750
12210TIP3   OH258044   3.874   5.034   1.008  0.0623  0.2864 -0.2326
12210TIP3    H158045   3.900   5.041   0.916  0.5854  0.2059 -0.0911
12210TIP3    H258046   3.903   4.946   1.034  0.2495  0.4512  0.1140
12211TIP3   OH258047   1.895   4.903   3.789  0.0714  0.1016  0.0109
12211TIP3    H158048   1.853   4.983   3.818  0.8027  0.3164  0.5243
12211TIP3    H258049   1.984   4.908   3.826  1.4509  0.8736 -3.0409
12212TIP3   OH258050   1.469   3.509   2.992 -0.5106 -0.3103 -0.3211
12212TIP3    H158051   1.413   3.437   3.021 -1.4134  0.5949  0.2547
12212TIP3    H258052   1.444   3.583   3.049  0.4085  0.4424 -0.8740
12213TIP3   OH258053   3.990   3.028  11.018 -0.1379  0.3818 -0.1089
12213TIP3    H158054   3.912   2.998  11.065  0.3202 -1.0154 -0.2025
12213TIP3    H258055   3.989   2.978  10.937 -0.8169  2.6203 -1.5691
12214TIP3   OH258056   2.874   0.681  12.517 -0.5999 -0.2027 -0.3080
12214TIP3    H158057   2.867   0.657  12.424 -1.5092 -0.0089 -0.2980
12214TIP3    H258058   2.874   0.597  12.563 -3.5464 -0.3075 -0.2902
12215TIP3   OH258059   1.818   0.474  15.409 -0.2809  0.0858 -0.5722
12215TIP3    H158060   1.884   0.520  15.357  0.7863  0.2382  0.8785
12215TIP3    H258061   1.830   0.507  15.498 -0.5347 -1.8436  0.2233
12216TIP3   OH258062   1.161   1.175  17.093  0.6218  0.4278  0.0703
12216TIP3    H158063   1.139   1.234  17.021  0.1474  1.2138  0.8464
12216TIP3    H258064   1.165   1.088  17.053  0.6957  0.8995 -0.9625
12217TIP3   OH258065   3.885   0.991  11.614  0.6110  0.0373  0.3245
12217TIP3    H158066   3.905   0.902  11.642  1.3107  0.4630  1.2190
12217TIP3    H258067   3.909   0.993  11.522  0.4538 -0.7352  0.2575
12218TIP3   OH258068   1.835   1.693   1.859  0.1575 -0.2280  0.5403
12218TIP3    H158069   1.928   1.676   1.875  0.2298 -0.5073 -0.1384
12218TIP3    H258070   1.790   1.659   1.937  0.6097 -0.2262  0.8027
12219TIP3   OH258071   0.931   5.687   5.447 -0.0720 -0.3839 -0.2290
12219TIP3    H158072   0.979   5.606   5.432 -0.7601 -1.3996  2.4251
12219TIP3    H258073   0.999   5.754   5.453  0.7007 -1.1335 -0.3807
12220TIP3   OH258074   0.828   5.849  13.597  0.3599 -0.2777 -0.3028
12220TIP3    H158075   0.761   5.800  13.549  0.7105 -0.9539 -0.1167
12220TIP3    H258076   0.840   5.929  13.546  1.0831 -1.2009 -1.6528
12221TIP3   OH258077   2.080   3.992  11.794 -0.1466 -0.3604  0.0801
12221TIP3    H158078   2.042   3.950  11.717  0.7910 -1.2430  0.0702
12221TIP3    H258079   2.006   4.037  11.836 -1.2911 -2.2633  0.2403
12222TIP3   OH258080   5.010   2.107  11.322  0.5274  0.0846 -0.1212
12222TIP3    H158081   4.945   2.135  11.257 -0.3002 -0.4855  0.4461
12222TIP3    H258082   5.006   2.012  11.321 -2.2693 -0.0356  3.3776
12223TIP3   OH258083   3.716   4.722   0.527 -0.5920 -0.1905  0.1686
12223TIP3    H158084   3.729   4.687   0.615  1.3725 -1.5457 -0.5920
12223TIP3    H258085   3.715   4.645   0.470  0.3560  0.7738 -1.2184
12224TIP3   OH258086   4.750   4.764  17.040 -0.3691 -0.2127  0.3373
12224TIP3    H158087   4.696   4.788  16.965  0.7840 -0.3951 -0.5796
12224TIP3    H258088   4.709   4.808  17.115 -1.5909 -0.1068 -0.3777
12225TIP3   OH258089   5.055   4.952  14.750  0.4487 -0.2353  0.3091
12225TIP3    H158090   4.970   4.995  14.748 -0.5385 -2.0922 -0.2236
12225TIP3    H258091   5.086   4.954  14.660 -1.4579 -3.9220 -0.6226
12226TIP3   OH258092   5.291   2.321   5.759 -0.5344  0.6445  0.3230
12226TIP3    H158093   5.317   2.246   5.814 -0.9422  0.6063  0.4684
12226TIP3    H258094   5.260   2.386   5.822 -2.0632  0.1812  0.0763
12227TIP3   OH258095   3.560   3.658   0.204 -0.5079 -0.2168  0.2174
12227TIP3    H158096   3.649   3.685   0.179 -0.5378 -1.0506 -0.8671
12227TIP3    H258097   3.505   3.732   0.181 -0.3102 -0.3433 -0.6999
12228TIP3   OH258098   2.890   3.681   6.071 -0.5643 -0.2111  0.8005
12228TIP3    H158099   2.929   3.595   6.054 -0.1470  0.1616 -0.1755
12228TIP3    H258100   2.961   3.733   6.109 -0.3124  0.2164 -0.2159
12229TIP3   OH258101   6.090   6.237  15.055  0.3649  0.1276  0.1393
12229TIP3    H158102   6.016   6.206  15.106 -0.4305 -0.9493 -1.5722
12229TIP3    H258103   6.150   6.275  15.119 -1.7649  1.3069  1.5566
12230TIP3   OH258104   0.575   4.697  15.805  0.5720  0.2137 -0.0227
12230TIP3    H158105   0.554   4.770  15.863 -0.9493 -0.7288  0.6751
12230TIP3    H258106   0.490   4.662  15.778  1.2593 -0.9167 -0.8179
12231TIP3   OH258107   5.041   1.960  11.729 -0.3847 -0.5927  0.0762
12231TIP3    H158108   5.021   2.046  11.765  0.0150 -0.3530 -0.2615
12231TIP3    H258109   5.102   1.921  11.791  0.3948 -0.1332 -0.3890
12232TIP3   OH258110   4.643   2.112  13.063  0.1378 -0.3748 -0.1922
12232TIP3    H158111   4.625   2.038  13.119  0.4930 -0.0991  0.2892
12232TIP3    H258112   4.560   2.162  13.061  0.5670  0.4382  1.3354
12233TIP3   OH258113   0.111   3.318  13.543  0.4512 -0.5627  0.1813
12233TIP3    H158114   0.176   3.315  13.474 -1.6269  0.5134 -1.9608
12233TIP3    H258115   0.127   3.402  13.587  1.4387 -1.0018  0.6848
12234TIP3   OH258116   0.995   6.289  12.898 -0.1361  0.5980  0.4267
12234TIP3    H158117   0.943   6.367  12.913 -0.4121  0.1123  2.3708
12234TIP3    H258118   1.085   6.320  12.893 -0.3339  1.1313  0.1741
12235TIP3   OH258119   0.790   4.024   1.935  0.1125 -0.1074  0.2097
12235TIP3    H158120   0.722   3.966   1.902  1.4199 -1.0560 -0.9436
12235TIP3    H258121   0.744   4.085   1.993 -1.7057 -0.6470 -0.6040
12236TIP3   OH258122   5.111   5.994   0.931 -0.2056  0.1720  0.7219
12236TIP3    H158123   5.074   5.981   1.018 -1.7170 -0.5064  0.0035
12236TIP3    H258124   5.071   5.927   0.877 -1.4476  2.2585 -1.1243
12237TIP3   OH258125   4.362   0.374   5.962 -0.4456  0.0996 -0.5072
12237TIP3    H158126   4.347   0.416   6.046 -1.0969 -0.8315 -0.1347
12237TIP3    H258127   4.323   0.433   5.897 -0.2948  0.6216 -0.1290
12238TIP3   OH258128   2.437   2.186  15.575  0.1697  0.6178 -0.1066
12238TIP3    H158129   2.436   2.187  15.670 -0.3020  0.4558 -0.1081
12238TIP3    H258130   2.451   2.278  15.550  1.0269  0.5529  0.1187
12239TIP3   OH258131   3.520   2.913   2.782 -0.4382  0.7837 -0.0781
12239TIP3    H158132   3.477   2.910   2.868 -0.7628  0.2336 -0.2627
12239TIP3    H258133   3.611   2.889   2.801 -0.7288 -0.3201 -0.0306
12240TIP3   OH258134   5.885   3.704  17.004  0.1884 -0.4236  0.0574
12240TIP3    H158135   5.806   3.651  16.994  1.1472 -1.7187 -1.3093
12240TIP3    H258136   5.888   3.726  17.097 -1.0411 -1.5365  0.3970
12241TIP3   OH258137   0.661   3.048   3.361 -0.5856 -0.6311  0.2846
12241TIP3    H158138   0.700   2.990   3.296 -2.2515 -0.9684 -0.4502
12241TIP3    H258139   0.646   2.992   3.437  0.8561 -0.3629  0.7934
12242TIP3   OH258140   5.084   0.539  17.034 -0.3200 -0.6241 -0.7397
12242TIP3    H158141   5.106   0.630  17.053  0.8539 -0.8300 -1.0693
12242TIP3    H258142   5.064   0.538  16.941 -0.7172 -0.6424 -0.6576
12243TIP3   OH258143   5.155   2.150   1.175 -0.3495  0.7253 -0.1602
12243TIP3    H158144   5.098   2.227   1.171 -0.3391  1.0016  2.7787
12243TIP3    H258145   5.096   2.076   1.163 -0.4787  1.1025 -2.2294
12244TIP3   OH258146   1.314   5.411   2.831  0.3867  0.0891 -0.1867
12244TIP3    H158147   1.259   5.339   2.862  2.2025 -1.3746 -0.2041
12244TIP3    H258148   1.268   5.444   2.753 -1.9472  0.9195  1.4096
12245TIP3   OH258149   6.426   2.469   6.285 -0.1792 -0.9902 -0.1129
12245TIP3    H158150   6.446   2.401   6.221  1.5434 -1.3255  0.7352
12245TIP3    H258151   6.352   2.434   6.334 -0.2435 -1.6009 -0.6273
12246TIP3   OH258152   5.134   4.947  16.620  0.0415  0.6197  0.1839
12246TIP3    H158153   5.225   4.977  16.613 -0.0689  0.6045 -1.7621
12246TIP3    H258154   5.128   4.912  16.709  1.9466  0.5919  0.3579
12247TIP3   OH258155   4.405   3.144  13.204  0.0997  0.3174 -0.2342
12247TIP3    H158156   4.441   3.057  13.220  0.7953  0.8010  0.9538
12247TIP3    H258157   4.322   3.128  13.160 -0.0412 -0.9786  0.4513
12248TIP3   OH258158   2.662   5.535  12.607  0.8075  0.2717  0.5677
12248TIP3    H158159   2.716   5.517  12.531 -0.3501 -2.1124  0.2342
12248TIP3    H258160   2.577   5.560  12.571  0.6873  0.6288  1.0854
12249TIP3   OH258161   1.028   1.633  11.853 -0.1489  0.3325 -0.0650
12249TIP3    H158162   1.071   1.620  11.938 -1.1536 -0.3728  0.3546
12249TIP3    H258163   1.072   1.572  11.794  0.3643  0.6244  0.0017
12250TIP3   OH258164   4.891   1.006  13.927 -0.6033  0.1781  0.8705
12250TIP3    H158165   4.908   0.947  14.001  0.5992  1.0520  1.3316
12250TIP3    H258166   4.977   1.042  13.906 -0.9340  0.0136 -0.9299
12251TIP3   OH258167   5.598   3.627  11.125  0.0603  0.3035  0.6076
12251TIP3    H158168   5.683   3.613  11.085 -1.1028  0.1067 -1.9684
12251TIP3    H258169   5.595   3.721  11.144  1.2631  0.1206  1.8890
12252TIP3   OH258170   5.713   5.487  11.456  0.2240  0.1109 -0.2870
12252TIP3    H158171   5.785   5.504  11.515  1.2081  2.1187 -1.9367
12252TIP3    H258172   5.717   5.558  11.392 -2.8272 -0.0642 -0.8244
12253TIP3   OH258173   3.475   6.018  12.378 -0.5106 -0.1647  0.4840
12253TIP3    H158174   3.563   6.037  12.409  0.3575  0.7734 -2.2065
12253TIP3    H258175   3.447   6.099  12.334 -1.7367 -1.1769 -0.7162
12254TIP3   OH258176   3.130   6.067  11.687 -0.3075 -0.2683 -0.3860
12254TIP3    H158177   3.155   5.982  11.652  1.0558 -0.3986  0.7862
12254TIP3    H258178   3.046   6.051  11.730 -0.5005 -0.8019 -0.9419
12255TIP3   OH258179   0.234   3.794   6.088  0.0365 -0.3723  0.0858
12255TIP3    H158180   0.226   3.726   6.155  1.3165 -0.4375  0.1950
12255TIP3    H258181   0.182   3.867   6.123 -2.7845 -1.7881 -0.8145
12256TIP3   OH258182   5.081   6.493   4.657 -0.7891  0.1652 -0.3659
12256TIP3    H158183   5.169   6.455   4.653 -1.4181 -1.3346 -0.5264
12256TIP3    H258184   5.024   6.425   4.622 -2.1740  0.5804  0.9877
12257TIP3   OH258185   4.163   5.478   4.909 -0.4680 -0.4872 -0.1268
12257TIP3    H158186   4.173   5.508   4.819 -1.1205  1.2778  0.3550
12257TIP3    H258187   4.187   5.385   4.906  1.4813 -0.0121 -1.7370
12258TIP3   OH258188   3.413   3.486   1.026 -0.1459  0.3867  0.1149
12258TIP3    H158189   3.324   3.458   1.045 -1.4668  1.5896 -3.3719
12258TIP3    H258190   3.413   3.580   1.045  0.4732  0.3305  0.3960
12259TIP3   OH258191   6.306   3.964  12.323 -0.1637  0.0027  0.4764
12259TIP3    H158192   6.279   3.898  12.388  0.2538 -0.3983  0.2528
12259TIP3    H258193   6.250   3.947  12.247 -1.0929  0.8793  0.9374
12260TIP3   OH258194   4.773   2.691   0.507  0.3579  0.1464  0.5218
12260TIP3    H158195   4.763   2.786   0.498 -0.4802  0.0611  0.4462
12260TIP3    H258196   4.709   2.654   0.447 -0.9436 -0.4544  2.1935
12261TIP3   OH258197   5.126   6.076  13.253  0.1809 -0.2104  0.4446
12261TIP3    H158198   5.129   6.005  13.316 -2.0851 -0.7801  0.0049
12261TIP3    H258199   5.171   6.149  13.296 -0.6110 -0.8144  2.4124
12262TIP3   OH258200   6.632   5.489   3.556 -0.4720  0.4670  0.8818
12262TIP3    H158201   6.696   5.463   3.490  0.3881 -1.2660  2.3022
12262TIP3    H258202   6.550   5.501   3.508 -0.3137 -2.4833 -0.3124
12263TIP3   OH258203   5.709   6.135  12.865 -0.1476  0.2360 -0.2207
12263TIP3    H158204   5.723   6.071  12.934  1.9270 -0.8323 -1.5248
12263TIP3    H258205   5.618   6.123  12.839 -0.5802 -0.2335  1.4321
12264TIP3   OH258206   1.273   5.758  14.821  0.4073  0.5108 -0.2167
12264TIP3    H158207   1.178   5.751  14.831  0.5933 -2.1364  0.4903
12264TIP3    H258208   1.303   5.796  14.904 -0.0898  2.4989 -0.9111
12265TIP3   OH258209   5.382   4.920   4.185  0.0404  0.1989 -0.2706
12265TIP3    H158210   5.364   4.848   4.126  1.0512 -1.8338  1.7466
12265TIP3    H258211   5.307   4.979   4.174 -1.2176 -1.5219 -1.4721
12266TIP3   OH258212   5.845   4.841   2.839  0.0890  0.0891 -0.0151
12266TIP3    H158213   5.896   4.828   2.760  0.8443 -0.1758  0.5079
12266TIP3    H258214   5.864   4.932   2.865  0.6256 -0.1408  0.4066
12267TIP3   OH258215   3.712   4.329  16.325  0.2366 -0.4218 -0.1460
12267TIP3    H158216   3.650   4.374  16.268 -0.8281 -2.8912 -1.0577
12267TIP3    H258217   3.796   4.338  16.279  0.0545  0.5140 -0.3380
12268TIP3   OH258218   1.768   2.160  16.546  0.4844 -0.1543 -0.0304
12268TIP3    H158219   1.722   2.183  16.465  0.8748  1.9158  0.3001
12268TIP3    H258220   1.861   2.167  16.523  0.6054  1.2256  0.7635
12269TIP3   OH258221   5.831   5.647  12.490  0.0146  0.3839  0.0550
12269TIP3    H158222   5.867   5.691  12.568  1.2310 -1.0487  0.3645
12269TIP3    H258223   5.909   5.626  12.437 -0.5089 -1.1904 -0.1519
12270TIP3   OH258224   2.204   1.727  14.945  0.2443 -0.0377  0.0103
12270TIP3    H158225   2.138   1.700  14.882  0.1870  1.0768 -0.4263
12270TIP3    H258226   2.154   1.748  15.024  0.3111 -1.3793  0.4325
12271TIP3   OH258227   2.196   0.593  11.939 -0.1927 -0.0360  0.1689
12271TIP3    H158228   2.157   0.561  12.021  0.2784  0.5625  0.6345
12271TIP3    H258229   2.121   0.606  11.881 -0.4772 -1.0299  0.2973
12272TIP3   OH258230   4.331   3.473   5.084 -0.1345  0.3380 -0.1676
12272TIP3    H158231   4.316   3.516   5.000  0.1260  0.2493 -0.2600
12272TIP3    H258232   4.339   3.545   5.146 -0.4879  0.4004 -0.1879
12273TIP3   OH258233   2.175   3.529   4.173  0.1193  0.0924  0.0987
12273TIP3    H158234   2.216   3.498   4.255  1.1924 -1.5246 -0.9841
12273TIP3    H258235   2.244   3.582   4.131 -0.7090  1.6046  0.5765
12274TIP3   OH258236   6.645   6.082   4.022 -0.2155  0.1848  0.2972
12274TIP3    H158237   6.670   6.066   4.113  3.0648 -1.4760 -0.7408
12274TIP3    H258238   6.576   6.018   4.004  1.9813 -2.4531  0.5906
12275TIP3   OH258239   6.509   2.662  14.853  0.1620  0.2267 -0.0514
12275TIP3    H158240   6.492   2.636  14.944  0.0810  1.7259  0.3981
12275TIP3    H258241   6.442   2.727  14.834  2.5389  3.0160  0.2751
12276TIP3   OH258242   4.857   1.483  15.930  0.3371 -0.3678  0.5067
12276TIP3    H158243   4.788   1.439  15.880  0.7682 -0.8958  0.3805
12276TIP3    H258244   4.851   1.445  16.018  0.2021 -0.1200  0.6061
12277TIP3   OH258245   1.635   5.530   1.573  0.0529 -0.3263 -0.6211
12277TIP3    H158246   1.545   5.513   1.603  0.0782  0.0064 -0.3488
12277TIP3    H258247   1.627   5.537   1.478  0.0378 -1.7742 -0.7545
12278TIP3   OH258248   4.655   0.769   3.175 -0.6338 -0.1915  0.7938
12278TIP3    H158249   4.571   0.738   3.143 -0.8530  1.3451 -0.2485
12278TIP3    H258250   4.719   0.731   3.114 -0.5446 -1.3756  1.5986
12279TIP3   OH258251   5.003   4.259  12.270  0.2006  0.2599  0.2562
12279TIP3    H158252   5.097   4.274  12.264 -0.0365  2.2866  0.9488
12279TIP3    H258253   4.964   4.339  12.235 -1.2633 -0.3098  0.5367
12280TIP3   OH258254   1.245   2.216   4.443 -0.3067  0.2094 -0.2517
12280TIP3    H158255   1.220   2.284   4.381 -1.6304  1.6376  1.7342
12280TIP3    H258256   1.278   2.263   4.519  0.5562 -1.4597  0.4630
12281TIP3   OH258257   5.111   1.173  11.723 -0.4054  0.3179 -0.9658
12281TIP3    H158258   5.068   1.089  11.708 -0.8418  0.6637 -1.7232
12281TIP3    H258259   5.045   1.225  11.769 -0.7825  0.8043 -2.0133
12282TIP3   OH258260   6.634   6.285  11.832  0.1397  0.0547 -0.5182
12282TIP3    H158261   6.634   6.253  11.922 -1.8571 -0.1748 -0.5678
12282TIP3    H258262   6.651   6.207  11.779  2.5890  0.3903 -0.3495
12283TIP3   OH258263   0.121   4.712  16.990  0.3058  0.5015  0.3326
12283TIP3    H158264   0.070   4.696  17.069 -0.0902 -1.1596 -0.2169
12283TIP3    H258265   0.149   4.625  16.962  0.9389  1.1192 -1.0302
12284TIP3   OH258266   2.486   3.501  12.476  0.1048  0.3918  0.5701
12284TIP3    H158267   2.443   3.423  12.443  2.2027 -0.4153 -0.3779
12284TIP3    H258268   2.559   3.469  12.529  2.2499  1.6049 -1.4607
12285TIP3   OH258269   4.206   2.787  15.549  0.4720 -0.7876 -0.0624
12285TIP3    H158270   4.246   2.700  15.557 -0.5667 -1.1657  1.5229
12285TIP3    H258271   4.129   2.783  15.605  0.4250  1.1804  0.0814
12286TIP3   OH258272   2.318   0.849  12.512 -0.5741  0.3160  0.3731
12286TIP3    H158273   2.321   0.766  12.560 -0.7457 -0.0345 -0.2088
12286TIP3    H258274   2.409   0.867  12.491 -0.5630  0.1029  0.2267
12287TIP3   OH258275   1.183   0.360   5.361 -0.1087  0.3345  0.4032
12287TIP3    H158276   1.277   0.375   5.354  0.2894 -2.2931 -1.2852
12287TIP3    H258277   1.173   0.309   5.441  0.1763 -0.8279 -0.2758
12288TIP3   OH258278   3.527   5.575   4.462  0.0987  0.2419  0.1252
12288TIP3    H158279   3.614   5.579   4.423 -0.4435  0.7200 -1.0892
12288TIP3    H258280   3.543   5.557   4.555  1.4002 -1.7969 -0.4378
12289TIP3   OH258281   3.306   6.531   3.138 -0.2740 -1.0106 -0.4902
12289TIP3    H158282   3.220   6.523   3.179 -0.4979  0.3540 -0.6804
12289TIP3    H258283   3.325   6.442   3.107 -0.3017 -2.0431  2.1134
12290TIP3   OH258284   2.197   3.560  14.440 -0.3884 -0.0929  0.1734
12290TIP3    H158285   2.222   3.601  14.522  1.0617  0.4451 -0.5009
12290TIP3    H258286   2.272   3.504  14.417 -0.0095  1.0659 -1.6057
12291TIP3   OH258287   2.863   5.804  14.617 -0.0670  0.2998  0.4753
12291TIP3    H158288   2.776   5.831  14.646 -0.6087 -0.0897 -0.7094
12291TIP3    H258289   2.852   5.785  14.524  0.9187 -1.3874  0.6749
12292TIP3   OH258290   0.331   6.446   0.036 -0.6373  0.0369 -0.6959
12292TIP3    H158291   0.326   6.509  -0.035 -0.6292  0.4343 -0.3509
12292TIP3    H258292   0.406   6.390   0.014  2.3518  2.9187  1.1528
12293TIP3   OH258293   2.081   3.632   1.433 -0.2064  0.2362 -0.5125
12293TIP3    H158294   2.002   3.654   1.383 -0.3806  0.5274 -0.1087
12293TIP3    H258295   2.093   3.538   1.418  0.6360  0.5854 -2.3992
12294TIP3   OH258296   2.357   5.329  15.940 -0.3177 -0.3672 -0.6072
12294TIP3    H158297   2.311   5.317  15.857 -0.9523  2.1086 -0.7009
12294TIP3    H258298   2.289   5.318  16.006 -0.8525  1.9822 -0.6851
12295TIP3   OH258299   5.046   3.585  12.212 -0.1621  0.4200  0.4618
12295TIP3    H158300   5.071   3.605  12.122 -1.9148 -1.7656 -0.6137
12295TIP3    H258301   5.127   3.555  12.253  0.6639  1.4527 -0.3459
12296TIP3   OH258302   3.265   0.086   1.372  0.2572 -0.3513  0.4516
12296TIP3    H158303   3.302   0.171   1.350 -2.2141  0.4216 -1.0376
12296TIP3    H258304   3.257   0.088   1.468  0.5555  0.9358  0.4694
12297TIP3   OH258305   2.138   1.111  14.734  0.4187  0.2377 -0.6740
12297TIP3    H158306   2.152   1.202  14.710  1.2413  0.1252 -0.6545
12297TIP3    H258307   2.206   1.092  14.799 -0.2135 -0.1773 -0.1235
12298TIP3   OH258308   0.666   0.795   2.210  0.1126 -0.3400 -0.1280
12298TIP3    H158309   0.629   0.707   2.216  0.0209 -0.3103 -0.2699
12298TIP3    H258310   0.717   0.804   2.291 -1.8176  0.3779  1.0613
12299TIP3   OH258311   5.339   2.670   5.849  0.6139 -0.8374 -0.0472
12299TIP3    H158312   5.282   2.645   5.777 -0.2310  0.8605 -0.0047
12299TIP3    H258313   5.281   2.708   5.914  1.6593 -0.0806  0.4709
12300TIP3   OH258314   2.485   0.462   4.654 -0.3684 -0.1079  0.0939
12300TIP3    H158315   2.492   0.558   4.661  0.6697 -0.0564 -1.3441
12300TIP3    H258316   2.568   0.429   4.687 -0.8691 -0.5685  0.9445
12301TIP3   OH258317   1.515   1.145  13.689 -0.0641 -0.2613 -0.0896
12301TIP3    H158318   1.523   1.187  13.775  1.3048 -1.3423  0.3338
12301TIP3    H258319   1.604   1.146  13.653 -0.5680 -0.0772 -1.3928
12302TIP3   OH258320   3.927   1.793  13.097  0.1612  0.1432 -0.2409
12302TIP3    H158321   3.877   1.871  13.073  0.4609  0.0582 -1.1765
12302TIP3    H258322   3.998   1.825  13.152  0.2488  0.5343 -0.5776
12303TIP3   OH258323   4.969   3.940   0.760  0.2171 -0.0948  0.0156
12303TIP3    H158324   4.937   3.885   0.831  0.2030  0.7986  0.7227
12303TIP3    H258325   4.895   3.948   0.700  0.8990 -2.7574 -1.3625
12304TIP3   OH258326   0.922   1.601  16.498  0.3966 -0.8422 -0.1928
12304TIP3    H158327   0.942   1.579  16.408  0.5198 -1.7930  0.0644
12304TIP3    H258328   0.833   1.567  16.513 -0.1520  0.4523 -0.3323
12305TIP3   OH258329   0.397   2.083  15.916  0.0067  0.0686 -0.0882
12305TIP3    H158330   0.388   2.045  15.829  0.4136  1.3019 -0.7014
12305TIP3    H258331   0.485   2.059  15.944  0.4995  1.0450 -0.7408
12306TIP3   OH258332   3.732   0.947   4.331 -0.2448  0.1952 -0.3985
12306TIP3    H158333   3.803   0.904   4.283 -1.3338 -1.4698 -0.6430
12306TIP3    H258334   3.666   0.878   4.341 -0.6785  0.8997  2.2382
12307TIP3   OH258335   3.219   1.171   4.615  0.1686 -0.4089  0.3466
12307TIP3    H158336   3.139   1.138   4.572 -0.2637 -0.1212  0.9236
12307TIP3    H258337   3.194   1.182   4.707 -1.0957  5.5534 -0.3159
12308TIP3   OH258338   2.665   2.897  12.649  0.3655  0.0488 -0.8369
12308TIP3    H158339   2.665   2.957  12.574  0.2262 -0.8151 -1.5392
12308TIP3    H258340   2.643   2.953  12.724  0.5494  0.9340 -1.4244
12309TIP3   OH258341   5.597   2.821  15.120 -0.0368  0.1418 -0.1711
12309TIP3    H158342   5.592   2.731  15.088  0.1326  0.2005 -0.3655
12309TIP3    H258343   5.524   2.828  15.182 -0.2402 -0.0390 -0.3836
12310TIP3   OH258344   5.012   2.613   2.178  0.6191  0.1469 -0.2210
12310TIP3    H158345   4.943   2.555   2.210 -0.1993  1.3574  0.2653
12310TIP3    H258346   5.066   2.630   2.254  0.0369  1.1378 -0.0152
12311TIP3   OH258347   6.155   3.354   2.232  0.0624  0.6235 -0.4951
12311TIP3    H158348   6.131   3.409   2.157  0.3657 -0.9082 -1.7881
12311TIP3    H258349   6.081   3.360   2.292 -0.2332  1.8109 -0.9634
12312TIP3   OH258350   1.395   3.696   0.688  0.1226  0.4188 -0.6189
12312TIP3    H158351   1.479   3.725   0.651  0.7076 -0.5178 -0.0806
12312TIP3    H258352   1.420   3.635   0.758 -0.9446  1.7826  1.0288
12313TIP3   OH258353   0.673   2.329   1.399 -0.4636 -0.3999 -0.2042
12313TIP3    H158354   0.623   2.395   1.447 -0.3085 -0.6647  0.3332
12313TIP3    H258355   0.761   2.365   1.393 -1.0237  0.8353 -2.6013
12314TIP3   OH258356   3.731   6.464  17.098  0.3017  0.4410 -0.1611
12314TIP3    H158357   3.650   6.438  17.142  0.3412 -0.8543 -0.8252
12314TIP3    H258358   3.800   6.443  17.161  0.2731 -0.4385 -0.4055
12315TIP3   OH258359   3.024   2.060  15.548 -0.0059  0.0551  0.9994
12315TIP3    H158360   2.947   2.091  15.594 -0.7586  1.7829 -1.2476
12315TIP3    H258361   3.022   2.105  15.463  2.5275 -1.1691  0.1668
12316TIP3   OH258362   4.279   2.593  13.327 -0.0596  0.1695 -0.0098
12316TIP3    H158363   4.342   2.536  13.370  0.5502 -0.0565 -1.1731
12316TIP3    H258364   4.318   2.680  13.332 -0.3894  0.2872  0.6287
12317TIP3   OH258365   1.918   2.089  15.035  0.1575  0.0197  0.0005
12317TIP3    H158366   1.936   2.072  15.127 -0.7192  1.5652  0.4963
12317TIP3    H258367   1.862   2.016  15.008  0.5156 -0.5054  0.6456
12318TIP3   OH258368   5.988   0.147  14.604  0.0675  0.4562 -0.3595
12318TIP3    H158369   6.048   0.213  14.637  1.0116 -0.4297 -0.2590
12318TIP3    H258370   6.041   0.092  14.547 -0.6518 -0.3513 -0.2740
12319TIP3   OH258371   6.733   5.576   1.485 -0.2209 -0.2766  0.0749
12319TIP3    H158372   6.729   5.605   1.394 -3.5566  0.2953  0.2782
12319TIP3    H258373   6.750   5.482   1.479 -0.5465 -0.2762 -1.1838
12320TIP3   OH258374   0.931   3.482   2.910 -0.7121  0.2187 -0.1402
12320TIP3    H158375   0.964   3.523   2.831  2.1372 -1.6230 -0.0442
12320TIP3    H258376   0.998   3.499   2.976 -2.2443  0.3226  1.4905
12321TIP3   OH258377   1.494   3.672  16.873  0.6445  0.4743  0.4390
12321TIP3    H158378   1.428   3.616  16.914  0.7406  0.1058  0.0975
12321TIP3    H258379   1.453   3.702  16.792  1.1242 -0.2827 -0.1039
12322TIP3   OH258380   1.515   2.241   2.860 -0.6989  0.0155  0.0096
12322TIP3    H158381   1.546   2.290   2.784 -0.9995  0.5890  0.2424
12322TIP3    H258382   1.419   2.243   2.852 -0.7011 -1.5832 -0.6151
12323TIP3   OH258383   3.952   5.927  12.715 -0.1032  0.4311 -0.0347
12323TIP3    H158384   3.972   5.879  12.796  1.8955  0.3554 -0.5421
12323TIP3    H258385   4.027   5.984  12.701 -1.8907  2.9240 -0.1062
12324TIP3   OH258386   5.641   6.040  13.738  0.4833 -1.0949  0.1620
12324TIP3    H158387   5.599   6.087  13.810 -1.7408 -0.5307 -1.3892
12324TIP3    H258388   5.686   5.967  13.780  2.2540  1.1104  2.4265
12325TIP3   OH258389   1.674   0.925  16.892  0.3268 -0.0348  0.4518
12325TIP3    H158390   1.673   0.829  16.902  0.4890 -0.1144 -0.2348
12325TIP3    H258391   1.603   0.943  16.831  1.2391  0.1355 -0.5903
12326TIP3   OH258392   1.167   4.494   0.121  0.2301 -0.4905 -0.1022
12326TIP3    H158393   1.251   4.515   0.080 -0.2843  0.5823 -0.6499
12326TIP3    H258394   1.129   4.426   0.065  1.1894 -1.7947  0.7641
12327TIP3   OH258395   5.273   6.765  14.211 -0.0316  0.6457  0.6445
12327TIP3    H158396   5.353   6.809  14.182  0.6237 -0.1209  1.2169
12327TIP3    H258397   5.207   6.788  14.146  1.1214 -0.2323 -0.9122
12328TIP3   OH258398   3.893   2.439  14.715 -0.4307 -0.2661 -0.2122
12328TIP3    H158399   3.809   2.477  14.688 -0.1219  0.6801  0.0918
12328TIP3    H258400   3.945   2.515  14.743 -0.2550 -1.0344  1.7268
12329TIP3   OH258401   4.982   5.074  14.033 -0.1054  0.5270 -0.0327
12329TIP3    H158402   5.036   5.021  13.975  1.0909 -0.8202  2.1829
12329TIP3    H258403   5.010   5.164  14.016  1.8724 -0.0243  0.0449
12330TIP3   OH258404   5.577   5.912  11.536 -0.4770  0.1561  0.2507
12330TIP3    H158405   5.643   5.952  11.593 -1.8294  1.1474  1.1832
12330TIP3    H258406   5.538   5.842  11.589  0.1149 -0.7358 -0.4642
12331TIP3   OH258407   5.720   2.845   5.814 -0.3128 -0.2818 -0.1331
12331TIP3    H158408   5.781   2.869   5.884 -1.9175 -1.0343  1.6186
12331TIP3    H258409   5.749   2.758   5.786  0.0450 -0.1848 -0.0749
12332TIP3   OH258410   2.136   1.535   4.530 -0.1831  0.2304  0.2617
12332TIP3    H158411   2.166   1.463   4.586  0.1139 -0.1229 -0.3441
12332TIP3    H258412   2.041   1.525   4.527 -0.0367 -1.0164 -0.9775
12333TIP3   OH258413   3.399   1.396   0.806 -0.2579 -0.0561 -0.8499
12333TIP3    H158414   3.335   1.459   0.774 -1.7307 -1.3837 -0.6239
12333TIP3    H258415   3.448   1.370   0.728  0.9715  1.9754 -0.8104
12334TIP3   OH258416   6.711   4.297   5.343 -0.4738  0.0718  0.0488
12334TIP3    H158417   6.645   4.232   5.320 -1.3477  1.2503 -0.9586
12334TIP3    H258418   6.781   4.248   5.386 -1.4140 -1.4036 -0.0645
12335TIP3   OH258419   6.613   0.718  16.023 -0.4827 -0.0506  0.4728
12335TIP3    H158420   6.530   0.701  15.978  0.1540  0.7180 -1.0813
12335TIP3    H258421   6.666   0.641  16.006 -0.5953 -0.2042  0.8029
12336TIP3   OH258422   4.914   4.921  11.444  0.3057  0.4457  0.1535
12336TIP3    H158423   4.969   4.991  11.477 -0.4780  1.7760 -1.2481
12336TIP3    H258424   4.832   4.931  11.492  0.2827  0.3378  0.1363
12337TIP3   OH258425   3.280   2.563  16.237  0.0651 -0.1039 -0.3859
12337TIP3    H158426   3.197   2.595  16.273 -0.0081 -1.6193  0.9395
12337TIP3    H258427   3.347   2.609  16.286 -0.0222 -0.1618 -0.2086
12338TIP3   OH258428   6.191   4.623   4.693  0.0306  0.1518 -0.1615
12338TIP3    H158429   6.120   4.686   4.685 -0.8569 -0.4036  2.2534
12338TIP3    H258430   6.152   4.539   4.668  0.3168  0.0876 -0.4011
12339TIP3   OH258431   0.375   2.986   4.935 -0.4318 -0.5073 -0.2126
12339TIP3    H158432   0.300   3.043   4.950  0.7089  0.7578  0.9581
12339TIP3    H258433   0.375   2.925   5.008 -0.6233 -0.8542 -0.5000
12340TIP3   OH258434   3.826   3.348  11.396  0.0573  0.0543 -0.1274
12340TIP3    H158435   3.902   3.296  11.368 -0.5662 -0.8451 -0.1915
12340TIP3    H258436   3.839   3.359  11.490  2.3395  3.3821 -0.6617
12341TIP3   OH258437   4.066   6.098  11.456  0.9171  0.0450 -0.1021
12341TIP3    H158438   4.020   6.014  11.450 -1.4305  1.1969  0.3874
12341TIP3    H258439   4.014   6.158  11.403  1.3617  1.6359  1.1688
12342TIP3   OH258440   0.847   5.233   2.007  0.1104 -0.7295 -0.0060
12342TIP3    H158441   0.899   5.272   1.937 -0.0350  0.1010  0.3332
12342TIP3    H258442   0.853   5.296   2.079  0.1100 -1.4838  0.6714
12343TIP3   OH258443   0.326   5.780   4.860 -0.4351  0.2407  0.1970
12343TIP3    H158444   0.349   5.688   4.851 -1.7276 -0.1443  0.6287
12343TIP3    H258445   0.307   5.809   4.771 -0.8812 -0.1491  0.1640
12344TIP3   OH258446   1.586   6.671  12.889  0.0110 -0.6002  0.3918
12344TIP3    H158447   1.533   6.728  12.946  0.3948  0.0205  0.1310
12344TIP3    H258448   1.625   6.730  12.825  0.1923 -1.1979 -0.0601
12345TIP3   OH258449   5.504   5.260  13.127 -0.5064  0.4550 -0.0497
12345TIP3    H158450   5.554   5.318  13.184 -0.9661  1.5025 -0.6743
12345TIP3    H258451   5.521   5.292  13.038  0.1866 -1.1395 -0.5213
12346TIP3   OH258452   2.280   5.576  12.068  0.3131 -0.3519 -0.6789
12346TIP3    H158453   2.261   5.662  12.107 -0.0540 -0.6266 -0.2415
12346TIP3    H258454   2.225   5.573  11.990 -1.3999 -1.0788  0.4931
12347TIP3   OH258455   6.552   6.273   5.021  0.5652 -0.0613 -0.1672
12347TIP3    H158456   6.591   6.222   4.951  0.2716 -0.4942 -0.0169
12347TIP3    H258457   6.610   6.261   5.096  1.4914  1.2842 -0.6163
12348TIP3   OH258458   6.751   4.148  13.277 -0.0473 -0.0466 -0.4221
12348TIP3    H158459   6.662   4.152  13.241 -0.7874 -0.9406  1.1861
12348TIP3    H258460   6.766   4.235  13.313 -1.1178 -0.4380  1.0886
12349TIP3   OH258461   0.529   0.145   1.334  0.0513 -0.0820  0.2698
12349TIP3    H158462   0.607   0.190   1.300 -0.0078 -1.4577 -1.8887
12349TIP3    H258463   0.460   0.166   1.272 -0.8245 -0.4617  1.0865
12350TIP3   OH258464   0.918   4.403   3.326 -1.1945  0.3670  0.1551
12350TIP3    H158465   0.969   4.335   3.370  0.9267  1.1188 -1.0006
12350TIP3    H258466   0.859   4.355   3.267  1.4252 -0.5854 -1.9107
12351TIP3   OH258467   5.738   5.994  11.753  0.1542 -0.2492  0.3517
12351TIP3    H158468   5.825   6.027  11.772 -0.0953  1.0060 -0.6063
12351TIP3    H258469   5.679   6.067  11.772 -0.7159 -1.1109  1.0994
12352TIP3   OH258470   0.156   3.525   2.516  0.5004 -0.0613  0.1691
12352TIP3    H158471   0.155   3.620   2.508 -1.9005  0.0307  0.6861
12352TIP3    H258472   0.223   3.507   2.581  1.0358  1.2603  0.0181
12353TIP3   OH258473   6.732   4.249  12.713 -0.0589  0.7384 -0.5075
12353TIP3    H158474   6.756   4.305  12.640  2.5705 -0.8012 -0.9511
12353TIP3    H258475   6.669   4.187  12.675  0.9063  0.2610 -1.3731
12354TIP3   OH258476   3.481   3.766  13.236  0.2129  0.0029  0.6432
12354TIP3    H158477   3.516   3.816  13.310  0.1370  2.5295 -0.9110
12354TIP3    H258478   3.495   3.822  13.160 -0.4860 -2.1287 -1.1630
12355TIP3   OH258479   3.439   6.106  16.706 -0.5002  0.2777 -0.0690
12355TIP3    H158480   3.518   6.069  16.665 -2.1884 -1.7704 -1.7429
12355TIP3    H258481   3.408   6.171  16.644 -2.2273 -1.7643 -1.5167
12356TIP3   OH258482   2.711   5.541  16.647 -0.2420 -0.7882 -0.1501
12356TIP3    H158483   2.745   5.541  16.557 -0.8646 -1.4619 -0.3945
12356TIP3    H258484   2.737   5.457  16.682 -1.0548 -1.0355 -0.1159
12357TIP3   OH258485   1.126   6.583   1.135  0.0421  0.1369 -0.3739
12357TIP3    H158486   1.115   6.494   1.100 -0.6484  0.2578 -0.4819
12357TIP3    H258487   1.192   6.574   1.204  0.1328 -0.4180 -0.5273
12358TIP3   OH258488   3.392   0.624  15.704 -0.3314  0.3568  0.3872
12358TIP3    H158489   3.441   0.636  15.785  0.0763  0.6647  0.0933
12358TIP3    H258490   3.434   0.681  15.641  0.2822 -0.9670 -0.4437
12359TIP3   OH258491   3.378   4.343  17.141  0.1249 -0.0136  0.4728
12359TIP3    H158492   3.319   4.298  17.081  0.2556  0.5933 -0.1256
12359TIP3    H258493   3.378   4.434  17.110  1.2515  0.0239  0.5573
12360TIP3   OH258494   4.938   0.951  14.740 -0.3966 -0.4391  0.3434
12360TIP3    H158495   4.989   0.905  14.673 -0.9279  0.0199 -0.3938
12360TIP3    H258496   4.918   1.036  14.700 -2.2109 -0.8064  0.3748
12361TIP3   OH258497   6.157   0.617   6.633  0.4526  0.6107  0.0238
12361TIP3    H158498   6.232   0.558   6.625 -0.7527 -0.9190 -0.7091
12361TIP3    H258499   6.192   0.696   6.674  1.7745 -1.3794  3.0604
12362TIP3   OH258500   6.437   1.586   5.939 -0.1635 -0.1808 -0.0150
12362TIP3    H158501   6.429   1.580   5.843  0.8821  1.5671 -0.2541
12362TIP3    H258502   6.459   1.497   5.967 -2.7107 -1.2677 -1.1000
12363TIP3   OH258503   3.916   6.496  10.715 -0.5346 -0.6812  0.5498
12363TIP3    H158504   3.830   6.481  10.677 -1.1176 -0.5068  1.7538
12363TIP3    H258505   3.956   6.408  10.720  0.4754 -0.5053 -2.4298
12364TIP3   OH258506   2.953   4.389  17.010  0.4614  0.5907 -0.0653
12364TIP3    H158507   2.980   4.472  16.972  1.8693  1.0989  1.8949
12364TIP3    H258508   2.875   4.411  17.061 -0.4584  0.2346 -1.2745
12365TIP3   OH258509   5.325   1.223   2.585  0.2481 -0.8555 -0.0146
12365TIP3    H158510   5.239   1.263   2.575  0.9965  0.6691 -0.7133
12365TIP3    H258511   5.308   1.139   2.627 -1.5851 -0.6586 -0.2896
12366TIP3   OH258512   0.704   6.644   4.241 -0.3503  0.7673 -0.2749
12366TIP3    H158513   0.666   6.611   4.160  0.2884 -0.5820 -0.0499
12366TIP3    H258514   0.629   6.679   4.290 -1.4891 -2.1473  0.3177
12367TIP3   OH258515   2.091   3.842  15.615 -0.3215  0.5487 -0.2312
12367TIP3    H158516   2.147   3.891  15.675  0.4717  0.7684 -1.1162
12367TIP3    H258517   2.002   3.871  15.635 -0.0354  0.8957  0.5727
12368TIP3   OH258518   5.022   3.095  11.780 -0.0808 -0.8832  0.1868
12368TIP3    H158519   5.093   3.105  11.717  0.5652  0.0874  1.0413
12368TIP3    H258520   5.061   3.051  11.855 -0.8049 -1.8769  0.0063
12369TIP3   OH258521   6.024   2.828  14.131  0.1785  0.0878 -0.7346
12369TIP3    H158522   6.062   2.741  14.117  1.4345  0.4341  0.2528
12369TIP3    H258523   6.043   2.848  14.222 -1.3035  0.8476 -0.5655
12370TIP3   OH258524   6.751   2.940  12.629 -0.0390 -0.6164  0.3483
12370TIP3    H158525   6.815   2.992  12.677 -1.7318  3.8737 -1.6493
12370TIP3    H258526   6.802   2.897  12.560  1.4821 -2.0578  2.2663
12371TIP3   OH258527   1.239   5.699  10.776 -0.1527  0.1539 -0.1647
12371TIP3    H158528   1.243   5.717  10.682  3.0052  3.4700  0.3802
12371TIP3    H258529   1.158   5.739  10.805  0.0138  1.2461 -1.1569
12372TIP3   OH258530   0.429   0.647  16.524 -0.5120 -0.3848  0.9345
12372TIP3    H158531   0.353   0.591  16.507  0.5568 -2.0121  1.2435
12372TIP3    H258532   0.392   0.731  16.549 -2.1964 -0.6116 -0.5765
12373TIP3   OH258533   5.692   4.668  11.188 -0.2288 -0.1489 -0.0548
12373TIP3    H158534   5.639   4.742  11.160 -0.9532 -1.2154 -1.6368
12373TIP3    H258535   5.669   4.597  11.128  1.3046 -1.3261  0.6609
12374TIP3   OH258536   5.183   1.902  14.899 -0.0482  0.2411 -0.2327
12374TIP3    H158537   5.230   1.854  14.967 -0.9491 -1.3373 -0.6676
12374TIP3    H258538   5.247   1.964  14.864  2.2488 -2.7036 -1.6950
12375TIP3   OH258539   5.866   6.215   3.190  0.1394  0.4752 -0.3452
12375TIP3    H158540   5.775   6.245   3.184  0.6855  2.1034 -1.2756
12375TIP3    H258541   5.862   6.121   3.174 -1.4964  0.2889  0.8770
12376TIP3   OH258542   3.885   5.023   0.495 -0.4785 -0.2493 -0.2280
12376TIP3    H158543   3.926   4.957   0.551 -0.7801 -0.7165 -0.5420
12376TIP3    H258544   3.911   5.107   0.533  0.7376 -0.5236 -0.4008
12377TIP3   OH258545   0.298   5.702   1.869  0.1718  0.8916  0.3262
12377TIP3    H158546   0.246   5.756   1.929 -2.2357  1.0428 -1.7747
12377TIP3    H258547   0.248   5.700   1.788  2.3371 -0.9609 -1.0844
12378TIP3   OH258548   2.285   0.028   0.803  0.0459  0.1543 -0.2298
12378TIP3    H158549   2.295   0.097   0.868 -1.3863 -1.0406  1.3698
12378TIP3    H258550   2.194   0.035   0.774  0.0850 -0.6042 -0.5678
12379TIP3   OH258551   1.907   4.116   3.410 -0.6640 -0.4694  0.4157
12379TIP3    H158552   1.884   4.177   3.481 -0.0623 -0.9931  1.0706
12379TIP3    H258553   1.951   4.171   3.345 -0.1794 -0.1821  0.9759
12380TIP3   OH258554   6.431   1.674  16.705 -0.3794  0.1914 -0.2230
12380TIP3    H158555   6.455   1.616  16.777 -0.4103 -0.5702 -0.8023
12380TIP3    H258556   6.417   1.614  16.631  0.7168  1.0348 -1.1511
12381TIP3   OH258557   1.125   5.638   4.259  0.3395 -0.1853 -0.3390
12381TIP3    H158558   1.141   5.549   4.229  1.2461 -0.3785  0.6652
12381TIP3    H258559   1.205   5.686   4.236  1.2761 -0.4443  2.0482
12382TIP3   OH258560   2.126   6.066   4.635  0.1605  0.3041  0.1535
12382TIP3    H158561   2.098   6.017   4.712  0.1465  2.2511  1.4514
12382TIP3    H258562   2.218   6.040   4.623  0.5565  0.9247  1.6410
12383TIP3   OH258563   2.052   6.409  15.414 -0.5385  0.0311 -0.2879
12383TIP3    H158564   1.966   6.372  15.396  0.1436 -1.0023 -1.6537
12383TIP3    H258565   2.050   6.496  15.375 -1.5542  0.7866  1.3494
12384TIP3   OH258566   0.898   1.921  16.254  0.0074 -0.0050  0.4656
12384TIP3    H158567   0.972   1.884  16.302 -1.1298 -3.2721 -0.0400
12384TIP3    H258568   0.822   1.901  16.309 -0.7566  1.4625  0.0056
12385TIP3   OH258569   5.109   0.275   5.621 -0.0243 -0.0854  0.2812
12385TIP3    H158570   5.081   0.318   5.702  0.4506 -0.1069  0.4577
12385TIP3    H258571   5.102   0.343   5.554 -0.8836 -0.1984  0.2418
12386TIP3   OH258572   5.987   4.684   3.548 -0.4105 -0.3054  0.1307
12386TIP3    H158573   6.004   4.769   3.588  0.2587 -0.1245 -0.5095
12386TIP3    H258574   5.909   4.698   3.494  0.8744  0.4936 -1.6216
12387TIP3   OH258575   5.264   4.028   6.077  0.2694  0.0531  0.3688
12387TIP3    H158576   5.229   3.990   5.996  0.3896  0.9034 -0.1010
12387TIP3    H258577   5.202   4.002   6.145 -1.2651  1.4244 -0.4271
12388TIP3   OH258578   5.989   4.872   5.858  0.1492 -0.2949 -0.0219
12388TIP3    H158579   5.910   4.833   5.820 -2.1202  2.1359  1.8210
12388TIP3    H258580   5.995   4.833   5.945 -0.7491  1.5396  0.9147
12389TIP3   OH258581   3.308   3.770  16.169 -0.3695 -0.4978 -0.0345
12389TIP3    H158582   3.388   3.723  16.194  0.4297  0.2981 -1.0036
12389TIP3    H258583   3.328   3.808  16.084 -1.8339 -0.3611 -0.3454
12390TIP3   OH258584   6.483   1.868  15.356  0.0447 -0.0245  0.2923
12390TIP3    H158585   6.404   1.815  15.369  0.4963 -1.0361 -0.8812
12390TIP3    H258586   6.474   1.903  15.268  0.4030  0.7637  0.5614
12391TIP3   OH258587   6.694   1.721  10.499  0.1869 -0.4500 -0.6280
12391TIP3    H158588   6.699   1.813  10.475 -0.2617 -0.5264 -1.0204
12391TIP3    H258589   6.770   1.681  10.457  0.2832 -0.2894 -0.6050
12392TIP3   OH258590   4.125   0.833  11.799 -0.3094 -0.6537 -0.5156
12392TIP3    H158591   4.109   0.819  11.705  1.0731 -0.6655 -0.7662
12392TIP3    H258592   4.054   0.785  11.842 -0.0545 -2.0081 -1.5319
12393TIP3   OH258593   4.446   4.431  12.932 -0.1065 -0.6614 -0.1834
12393TIP3    H158594   4.398   4.514  12.931  1.1794  0.1043 -0.8056
12393TIP3    H258595   4.524   4.448  12.878  0.1062 -2.3193 -0.4335
12394TIP3   OH258596   0.192   6.035  13.101  0.2815 -0.1215 -0.2352
12394TIP3    H158597   0.193   6.126  13.074  0.0474 -0.1722 -0.4206
12394TIP3    H258598   0.122   6.030  13.166  0.7882 -0.0169  0.3302
12395TIP3   OH258599   6.238   4.935   5.009 -0.3429 -0.5588  0.2094
12395TIP3    H158600   6.239   5.021   5.051  0.7813  0.4917 -1.8088
12395TIP3    H258601   6.295   4.881   5.064  1.3500  0.8632 -0.0300
12396TIP3   OH258602   4.568   6.274  15.804 -0.5888  0.0689  0.9429
12396TIP3    H158603   4.635   6.264  15.871  1.1180  0.5021 -0.6310
12396TIP3    H258604   4.507   6.338  15.841  0.3856  0.4204  2.0037
12397TIP3   OH258605   2.746   3.129  15.020 -0.1499 -0.2206  0.0611
12397TIP3    H158606   2.737   3.062  15.089  0.7646 -0.2418  0.1708
12397TIP3    H258607   2.674   3.111  14.960 -1.8333  0.6700  1.7286
12398TIP3   OH258608   3.802   0.834   2.102 -0.0557  0.1303  0.1027
12398TIP3    H158609   3.776   0.868   2.017 -0.4021  0.6831  0.4228
12398TIP3    H258610   3.877   0.888   2.128  1.2292 -1.2268 -0.6581
12399TIP3   OH258611   0.247   0.433   3.232 -0.0977 -0.1921  0.2664
12399TIP3    H158612   0.211   0.369   3.294 -1.1081 -0.1270 -0.2340
12399TIP3    H258613   0.268   0.381   3.154  1.6391 -0.3651  0.7958
12400TIP3   OH258614   3.034   0.182   0.753  0.6246  0.1546  0.2764
12400TIP3    H158615   3.051   0.248   0.686  0.9175  0.2913  0.4816
12400TIP3    H258616   3.009   0.232   0.831  1.1823  0.0466  0.5317
12401TIP3   OH258617   5.393   6.747   3.778 -0.3687 -0.4515 -0.0115
12401TIP3    H158618   5.487   6.738   3.761 -0.7930 -1.2772 -2.1963
12401TIP3    H258619   5.385   6.826   3.831  1.4900  0.0569 -0.4363
12402TIP3   OH258620   5.487   3.452   5.397  0.2781 -0.1556 -0.0909
12402TIP3    H158621   5.514   3.522   5.338  1.4133 -0.2657  0.2844
12402TIP3    H258622   5.411   3.413   5.354 -0.8966  1.8067  0.0882
12403TIP3   OH258623   3.689   4.422   5.268  0.4986 -0.1300  0.1978
12403TIP3    H158624   3.775   4.381   5.253  0.3110  0.1337 -1.9765
12403TIP3    H258625   3.710   4.507   5.306  1.2179 -0.1132 -0.1959
12404TIP3   OH258626   5.199   1.595   2.565 -0.1675 -0.3644 -0.4005
12404TIP3    H158627   5.164   1.523   2.512  1.6003 -0.9735 -0.8015
12404TIP3    H258628   5.127   1.619   2.623 -1.2354 -1.5507 -1.1801
12405TIP3   OH258629   3.869   2.286  11.501 -0.2399  0.2623 -0.4329
12405TIP3    H158630   3.800   2.226  11.528 -0.5154  0.3549 -0.9224
12405TIP3    H258631   3.868   2.355  11.568 -1.6671  1.0811 -1.2490
12406TIP3   OH258632   6.110   5.398  11.789 -0.6478 -0.0227  0.2141
12406TIP3    H158633   6.049   5.437  11.727  0.1184 -1.2248 -1.3659
12406TIP3    H258634   6.146   5.472  11.838 -0.0448  1.1580 -1.9185
12407TIP3   OH258635   1.648   5.624   1.302 -0.1743 -0.4919  0.1680
12407TIP3    H158636   1.565   5.594   1.265  0.3941 -1.8989 -0.0007
12407TIP3    H258637   1.712   5.612   1.231  0.2410  0.2804  0.3980
12408TIP3   OH258638   4.720   3.074  16.848  0.6900  0.1573 -0.1262
12408TIP3    H158639   4.692   2.997  16.797  1.3796 -0.1031 -0.1125
12408TIP3    H258640   4.656   3.079  16.919 -0.5729  0.7923 -1.2470
12409TIP3   OH258641   6.360   2.610   5.869 -0.6624 -0.8677 -0.5494
12409TIP3    H158642   6.333   2.700   5.852 -0.1129 -0.7097 -0.5915
12409TIP3    H258643   6.290   2.575   5.925 -1.7726 -0.9729 -1.9540
12410TIP3   OH258644   4.928   4.649  12.859  0.5316 -0.3835  0.4207
12410TIP3    H158645   5.012   4.631  12.817  2.0886  0.8255  2.8090
12410TIP3    H258646   4.950   4.668  12.950 -2.4340 -0.7378  1.3187
12411TIP3   OH258647   2.159   1.663   5.902 -0.2473  1.2715 -0.4373
12411TIP3    H158648   2.067   1.636   5.908  0.3601 -1.3449 -1.3652
12411TIP3    H258649   2.196   1.639   5.987 -0.1990  1.2947 -0.4524
12412TIP3   OH258650   1.407   6.134  15.897 -0.1026 -0.1624  0.1538
12412TIP3    H158651   1.367   6.076  15.962 -0.4470 -1.1338 -0.8920
12412TIP3    H258652   1.334   6.179  15.856  0.1568  0.9637  0.8729
12413TIP3   OH258653   6.468   5.668   2.166 -0.3245  0.0605 -0.4854
12413TIP3    H158654   6.447   5.761   2.162 -0.5933  0.0604  0.4944
12413TIP3    H258655   6.474   5.640   2.075 -1.0213  0.8677 -0.7905
12414TIP3   OH258656   1.852   6.498  11.545  0.6037  0.3395  0.3766
12414TIP3    H158657   1.893   6.573  11.503  1.3302  0.4637  1.2810
12414TIP3    H258658   1.902   6.423  11.515 -0.9778  0.0232 -1.6261
12415TIP3   OH258659   3.086   1.753   2.856  0.3625  0.1475 -0.6550
12415TIP3    H158660   3.061   1.693   2.786 -0.2054 -2.0467  1.2875
12415TIP3    H258661   3.011   1.752   2.916  2.1094 -0.8179  1.6736
12416TIP3   OH258662   5.154   5.876  13.418 -0.3729  0.2132  0.3757
12416TIP3    H158663   5.233   5.852  13.466 -0.5341 -0.5381  0.2807
12416TIP3    H258664   5.140   5.804  13.357 -1.0282  0.4237  0.2704
12417TIP3   OH258665   4.834   5.611   2.712 -0.3798  0.1540 -0.3716
12417TIP3    H158666   4.874   5.554   2.646  1.7099  1.4700 -0.3467
12417TIP3    H258667   4.798   5.684   2.662 -0.1246  0.4158 -0.1763
12418TIP3   OH258668   0.784   2.548  15.064 -0.0790 -0.4105 -0.4755
12418TIP3    H158669   0.795   2.465  15.017  0.1820 -0.7306  0.1448
12418TIP3    H258670   0.820   2.614  15.004 -1.7329 -0.5226 -1.6651
12419TIP3   OH258671   0.142   2.373   4.152  0.3323  0.2646  0.1694
12419TIP3    H158672   0.099   2.444   4.102 -0.5181 -1.0287 -1.0216
12419TIP3    H258673   0.228   2.365   4.111 -0.6995 -1.4361 -1.8841
12420TIP3   OH258674   0.309   4.929   6.171  0.4146 -0.3559  0.1525
12420TIP3    H158675   0.327   4.837   6.191  0.1221 -1.8549 -5.0102
12420TIP3    H258676   0.216   4.940   6.192 -0.5859 -2.5706 -2.5206
12421TIP3   OH258677   1.708   1.021   0.493 -1.0823  0.0881  0.1407
12421TIP3    H158678   1.637   0.998   0.433 -0.5260 -1.5387  0.0746
12421TIP3    H258679   1.684   0.978   0.575  0.1161 -1.0141 -0.0589
12422TIP3   OH258680   6.033   6.292   4.007 -0.2738  0.8770  0.1729
12422TIP3    H158681   6.057   6.212   4.055 -1.2261  0.2196 -0.4130
12422TIP3    H258682   6.110   6.348   4.015  0.6615 -0.3424  0.0932
12423TIP3   OH258683   0.022   1.018   3.466 -0.0726 -0.4449 -0.2601
12423TIP3    H158684  -0.048   0.994   3.526 -0.5434  0.9885 -0.1948
12423TIP3    H258685  -0.005   0.983   3.381 -0.0642 -1.3047  0.0892
12424TIP3   OH258686   1.996   1.228   3.952 -0.1254 -0.3211 -0.5056
12424TIP3    H158687   2.077   1.178   3.947  0.3122  0.2760  0.3634
12424TIP3    H258688   1.938   1.174   4.006 -0.4529 -0.9204 -1.4311
12425TIP3   OH258689   4.583   0.663   1.104 -0.1367 -0.5199 -0.3572
12425TIP3    H158690   4.554   0.628   1.188 -0.5904  0.8785  0.1043
12425TIP3    H258691   4.506   0.709   1.070  1.1447  2.4548  0.4354
12426TIP3   OH258692   3.147   4.732  14.029  0.1162 -0.1480 -0.9555
12426TIP3    H158693   3.181   4.647  14.057 -0.2079 -0.2089 -0.7435
12426TIP3    H258694   3.174   4.793  14.097 -0.3903 -0.2382 -0.6637
12427TIP3   OH258695   5.400   1.838   3.557 -0.1997  0.0252  0.3031
12427TIP3    H158696   5.484   1.804   3.526  1.1789  0.6573  3.0311
12427TIP3    H258697   5.335   1.779   3.520  1.3057  0.0155 -2.6075
12428TIP3   OH258698   5.420   3.002   2.600 -0.5524  0.0018  0.0561
12428TIP3    H158699   5.446   2.954   2.521 -0.2696  0.5924 -0.2142
12428TIP3    H258700   5.325   3.005   2.596 -0.6975 -1.8365  0.8448
12429TIP3   OH258701   2.969   0.423  14.699  0.2905  0.1832  0.0321
12429TIP3    H158702   2.981   0.353  14.635  0.8551 -1.4126  1.7667
12429TIP3    H258703   2.988   0.381  14.783 -0.2881  2.2087  1.2381
12430TIP3   OH258704   4.530   5.968  15.916 -0.1745 -0.7222  0.3416
12430TIP3    H158705   4.438   5.970  15.890 -0.2517 -1.7946  0.4929
12430TIP3    H258706   4.576   5.934  15.839 -0.0893 -1.5016  0.7241
12431TIP3   OH258707   3.670   4.578   2.691 -0.1024  0.0302  0.3599
12431TIP3    H158708   3.671   4.482   2.690  0.6288  0.0314  0.5374
12431TIP3    H258709   3.721   4.603   2.613 -0.5106  0.2760  0.1696
12432TIP3   OH258710   1.172   2.710  15.415 -0.6592  0.0391  0.0658
12432TIP3    H158711   1.239   2.641  15.414  0.6328  1.2476  0.3768
12432TIP3    H258712   1.215   2.785  15.375 -1.4225  1.2180  1.3887
12433TIP3   OH258713   5.558   0.392   4.943 -0.2874 -0.1755  0.0011
12433TIP3    H158714   5.538   0.392   5.036 -1.0328 -0.9217 -0.1502
12433TIP3    H258715   5.631   0.329   4.934  2.2363  2.4593  0.5357
12434TIP3   OH258716   6.302   3.812   0.210 -1.0811 -0.2196 -0.2350
12434TIP3    H158717   6.229   3.866   0.239 -1.5231 -1.7361  1.7096
12434TIP3    H258718   6.369   3.825   0.278  0.2778  0.6803 -1.6663
12435TIP3   OH258719   1.534   2.175   1.481 -0.0636 -0.1461  0.0969
12435TIP3    H158720   1.602   2.171   1.548 -1.7313 -0.4028  1.8565
12435TIP3    H258721   1.494   2.261   1.492  0.4877  0.3443 -1.4852
12436TIP3   OH258722   3.556   6.130   4.601 -0.2304 -0.3111 -0.3964
12436TIP3    H158723   3.542   6.055   4.659 -1.5003  0.4762  0.3537
12436TIP3    H258724   3.636   6.171   4.634 -1.2617  0.4800  1.2368
12437TIP3   OH258725   3.201   6.656   1.739 -0.4523  0.1141  0.3683
12437TIP3    H158726   3.296   6.643   1.732 -0.4704  0.2240 -0.1623
12437TIP3    H258727   3.188   6.749   1.717 -0.7389 -0.0485 -0.1693
12438TIP3   OH258728   0.066   2.596  15.383  0.3862 -0.3450 -0.3504
12438TIP3    H158729   0.157   2.589  15.413  0.2508 -0.7875 -0.0372
12438TIP3    H258730   0.073   2.596  15.287  0.7373 -0.0865 -0.3257
12439TIP3   OH258731   3.282   2.306  16.371  0.0652  0.3135  0.1971
12439TIP3    H158732   3.270   2.371  16.301  2.5580  1.8642  1.0711
12439TIP3    H258733   3.356   2.340  16.422  0.1250 -2.2064  1.9383
12440TIP3   OH258734   5.899   6.540  14.701  0.0502  0.3133  0.8831
12440TIP3    H158735   5.927   6.627  14.729  0.5272 -0.0700  1.6585
12440TIP3    H258736   5.971   6.482  14.728 -0.3123 -0.3366  0.4879
12441TIP3   OH258737   0.554   0.606   1.698 -0.4161 -0.1523  0.6506
12441TIP3    H158738   0.538   0.531   1.757  1.5183 -0.1149  1.2877
12441TIP3    H258739   0.596   0.671   1.754 -1.8323  1.3463  0.0366
12442TIP3   OH258740   2.430   3.629   1.954  0.5410 -0.1557  0.4050
12442TIP3    H158741   2.461   3.538   1.950  1.4721  0.1139  1.1443
12442TIP3    H258742   2.391   3.637   2.041 -0.3438 -0.0907  0.0040
12443TIP3   OH258743   0.026   1.636  16.926 -0.2550 -0.2717  0.3963
12443TIP3    H158744   0.053   1.725  16.947 -0.3540 -0.0385 -0.4148
12443TIP3    H258745   0.030   1.589  17.009 -0.6250  0.5934  0.9228
12444TIP3   OH258746   3.870   1.358   2.590  0.0821  0.1603  0.1474
12444TIP3    H158747   3.893   1.278   2.637 -1.5195 -0.6571 -0.4080
12444TIP3    H258748   3.780   1.345   2.562 -0.6071  2.6241  0.9642
12445TIP3   OH258749   1.223   4.426   2.464 -0.2205  0.3022  0.4383
12445TIP3    H158750   1.150   4.472   2.504 -1.5351 -1.6458  0.3929
12445TIP3    H258751   1.253   4.364   2.530 -0.3063 -0.7035 -0.4415
12446TIP3   OH258752   5.552   1.721  11.869 -0.2813  0.7847  0.1016
12446TIP3    H158753   5.618   1.651  11.862 -0.7829  0.2047  0.9709
12446TIP3    H258754   5.522   1.716  11.959 -0.3414  2.1336  0.1678
12447TIP3   OH258755   3.953   3.655  11.696 -0.1863 -0.1814 -0.5447
12447TIP3    H158756   3.967   3.587  11.762 -0.3288  0.1942 -0.1253
12447TIP3    H258757   3.931   3.606  11.617  0.0828 -0.6402 -0.3449
12448TIP3   OH258758   1.568   1.828  14.664  0.4433 -0.5343 -0.2944
12448TIP3    H158759   1.546   1.857  14.575 -0.2510 -0.5060 -0.1184
12448TIP3    H258760   1.565   1.733  14.660 -1.0188 -0.5172  0.0407
12449TIP3   OH258761   5.785   3.265  15.676 -0.4551 -0.0265 -0.2216
12449TIP3    H158762   5.854   3.288  15.614 -1.9986  0.0726 -1.9948
12449TIP3    H258763   5.704   3.292  15.633 -1.5929  0.4058  2.0456
12450TIP3   OH258764   5.127   4.104   1.713  0.8618  0.5201 -0.4271
12450TIP3    H158765   5.068   4.093   1.787  1.7390 -1.0711  0.0794
12450TIP3    H258766   5.111   4.194   1.683 -1.2112  0.4012  0.1754
12451TIP3   OH258767   0.509   4.694   0.101  0.1163 -0.3680  0.2114
12451TIP3    H158768   0.452   4.623   0.130  1.1202 -1.0037  0.6472
12451TIP3    H258769   0.583   4.693   0.161  0.5259  0.5564 -0.2472
12452TIP3   OH258770   3.025   6.191  15.664  0.2695  0.2261  0.2805
12452TIP3    H158771   3.052   6.283  15.675 -0.1715  0.4243 -0.2263
12452TIP3    H258772   2.964   6.193  15.590  1.4055 -0.7005 -0.7218
12453TIP3   OH258773   6.116   1.043   2.715  0.5099 -0.0634  0.2571
12453TIP3    H158774   6.173   1.086   2.779 -0.3212  1.8218 -0.2139
12453TIP3    H258775   6.170   1.034   2.637  0.6879  0.1369  0.3574
12454TIP3   OH258776   5.034   0.852  13.589  0.5979 -0.5157 -0.4819
12454TIP3    H158777   5.117   0.900  13.593 -0.0598  0.8248 -1.7796
12454TIP3    H258778   4.969   0.919  13.570 -0.2984 -1.9726 -3.0026
12455TIP3   OH258779   6.600   2.152  11.706  0.0151  0.2706  0.3934
12455TIP3    H158780   6.577   2.181  11.618  0.9258 -0.2278 -0.0218
12455TIP3    H258781   6.680   2.101  11.694  0.1261  0.1673  1.5074
12456TIP3   OH258782   1.406   2.972  12.015  0.8293 -0.1285  0.2784
12456TIP3    H158783   1.464   3.037  11.976  0.5765  0.0003  0.1179
12456TIP3    H258784   1.350   3.022  12.074 -0.1239 -0.0222 -0.6891
12457TIP3   OH258785   0.638   2.923  12.523 -0.5138 -0.6326 -0.1657
12457TIP3    H158786   0.656   2.873  12.602 -1.3083 -0.0792  0.3795
12457TIP3    H258787   0.557   2.969  12.542  0.1569  0.8136 -0.6726
12458TIP3   OH258788   5.823   2.151  12.210  0.4583  0.3516  0.5161
12458TIP3    H158789   5.848   2.193  12.292  0.5071  0.5795  0.3869
12458TIP3    H258790   5.901   2.101  12.184  0.3081 -0.0350  0.8067
12459TIP3   OH258791   0.865   6.273   0.696 -0.6447 -0.1236  0.4042
12459TIP3    H158792   0.863   6.178   0.691 -1.3908 -0.1144  0.4056
12459TIP3    H258793   0.931   6.299   0.631  0.6624 -0.6919  1.4443
12460TIP3   OH258794   5.146   3.821  13.488  0.0184 -0.3920  0.0513
12460TIP3    H158795   5.096   3.829  13.569  0.7901  1.9233  0.3825
12460TIP3    H258796   5.218   3.761  13.510 -1.3209 -2.0042  0.2063
12461TIP3   OH258797   5.480   5.777   1.184 -0.2894 -0.4125 -0.3351
12461TIP3    H158798   5.467   5.824   1.102 -0.3186  0.7348  0.3132
12461TIP3    H258799   5.405   5.802   1.239  1.4451  1.5864  1.2756
12462TIP3   OH258800   2.848   5.396  11.634 -0.0707  0.4045  0.8260
12462TIP3    H158801   2.797   5.390  11.554  1.1186  0.4629  0.0264
12462TIP3    H258802   2.887   5.484  11.630  0.9028 -0.0114  0.8768
12463TIP3   OH258803   5.053   3.317   4.696 -0.5054 -0.0838  0.0951
12463TIP3    H158804   5.077   3.327   4.604 -1.2148 -0.0201 -0.0891
12463TIP3    H258805   4.994   3.391   4.713 -0.3606 -0.0861  0.6031
12464TIP3   OH258806   3.365   4.957   2.434 -0.9524  0.3251 -0.3454
12464TIP3    H158807   3.376   4.955   2.339 -1.1587 -0.2556 -0.3612
12464TIP3    H258808   3.434   4.900   2.467 -0.4592  1.0512 -0.1000
12465TIP3   OH258809   5.419   4.906  11.900 -0.4901 -0.4997  0.6892
12465TIP3    H158810   5.401   4.894  11.807  1.0212  1.8598  0.0260
12465TIP3    H258811   5.382   4.991  11.922  1.1566  0.0187  1.6492
12466TIP3   OH258812   3.702   5.529  15.956  0.1443  0.1432  0.0689
12466TIP3    H158813   3.665   5.487  16.034 -0.1304  0.6282  0.2055
12466TIP3    H258814   3.650   5.494  15.884  1.8015 -2.0093 -0.1925
12467TIP3   OH258815   5.808   6.013  16.085 -0.5361  0.2716  0.5967
12467TIP3    H158816   5.761   5.951  16.140  0.8235  0.8407  2.4965
12467TIP3    H258817   5.778   6.099  16.113  0.9273  0.6043  1.2323
12468TIP3   OH258818   5.815   3.424   0.495  0.0331 -0.1649  0.6896
12468TIP3    H158819   5.800   3.518   0.486 -0.9330 -0.4320 -0.8876
12468TIP3    H258820   5.739   3.391   0.542  1.1780  0.0377  2.8015
12469TIP3   OH258821   5.874   5.311   2.290  0.0138 -0.2268  0.1771
12469TIP3    H158822   5.915   5.296   2.204  0.0232 -1.2791  0.3520
12469TIP3    H258823   5.939   5.280   2.353  0.1209  0.7993  0.5890
12470TIP3   OH258824   0.812   6.239   1.476  0.1723  0.1354 -0.5081
12470TIP3    H158825   0.819   6.154   1.520 -0.4846 -0.1323 -0.9038
12470TIP3    H258826   0.868   6.297   1.527 -0.0492 -0.3253  0.2820
12471TIP3   OH258827   0.842   0.732  13.463 -0.4546  0.2365 -0.2462
12471TIP3    H158828   0.905   0.756  13.395 -0.4831 -0.4069 -0.5152
12471TIP3    H258829   0.882   0.761  13.545  0.1865 -0.1493 -0.4158
12472TIP3   OH258830   4.667   2.362   0.565 -0.5325  0.1220 -0.1664
12472TIP3    H158831   4.749   2.315   0.554 -1.1129 -0.8589 -0.4160
12472TIP3    H258832   4.602   2.294   0.584 -0.7418  1.0957  3.2631
12473TIP3   OH258833   0.851   3.804  11.310  0.1178  0.5058  0.2262
12473TIP3    H158834   0.893   3.889  11.314  1.2632 -0.0277 -0.1298
12473TIP3    H258835   0.920   3.741  11.331 -0.0379 -0.5186 -1.9936
12474TIP3   OH258836   1.208   0.885  15.828 -0.4817 -0.2303  0.1112
12474TIP3    H158837   1.292   0.932  15.824 -0.3192 -0.3247  1.6119
12474TIP3    H258838   1.233   0.793  15.836 -0.7073 -0.2331  0.8550
12475TIP3   OH258839   2.735   0.309  13.598  0.2665 -0.0723 -0.2388
12475TIP3    H158840   2.752   0.397  13.632 -1.1445 -0.1500  0.7245
12475TIP3    H258841   2.786   0.251  13.655  0.0864  0.0100  0.0046
12476TIP3   OH258842   3.070   3.751  16.296  0.8894  0.4111  0.0813
12476TIP3    H158843   3.165   3.761  16.283  0.9461 -0.1801  0.0099
12476TIP3    H258844   3.039   3.714  16.213  0.6631  0.2020  0.2587
12477TIP3   OH258845   2.619   1.947  15.777 -0.4792 -0.0243 -0.2219
12477TIP3    H158846   2.588   1.901  15.699 -1.5190 -0.9800  0.7095
12477TIP3    H258847   2.539   1.978  15.820 -0.0546 -0.7167  1.1493
12478TIP3   OH258848   5.968   1.568  12.917  0.1661  0.3060  0.2461
12478TIP3    H158849   5.900   1.596  12.855 -0.0844  0.7524  0.7097
12478TIP3    H258850   6.032   1.522  12.863 -0.8838 -0.8114 -0.0884
12479TIP3   OH258851   1.287   4.764  16.057  0.4711 -0.0412 -0.0085
12479TIP3    H158852   1.313   4.673  16.048  0.1031 -0.2081  0.5731
12479TIP3    H258853   1.268   4.792  15.967  1.1228 -0.3669 -0.2547
12480TIP3   OH258854   3.825   3.660  12.745  0.5171  0.5337  0.3250
12480TIP3    H158855   3.904   3.606  12.740  0.3089  0.1154  1.3278
12480TIP3    H258856   3.802   3.678  12.653  1.9176  0.8921  0.0246
12481TIP3   OH258857   3.603   4.334  13.392  0.2917 -0.1275  0.2801
12481TIP3    H158858   3.562   4.388  13.324 -0.1580  0.1739  0.7883
12481TIP3    H258859   3.673   4.390  13.427  0.8271 -0.4538 -0.2394
12482TIP3   OH258860   4.068   5.248   1.333  0.2870  0.1202  0.0050
12482TIP3    H158861   3.981   5.211   1.322  0.1469 -0.1496  1.6970
12482TIP3    H258862   4.056   5.342   1.322 -0.3872  0.1646  1.0012
12483TIP3   OH258863   3.948   2.390   6.465 -0.4194  0.4705 -0.1173
12483TIP3    H158864   3.896   2.425   6.393  0.7771 -0.3143 -1.4327
12483TIP3    H258865   4.038   2.414   6.443  0.1598 -1.2289  0.2110
12484TIP3   OH258866   5.325   1.774  12.103 -0.5598 -0.3046  0.3318
12484TIP3    H158867   5.257   1.833  12.136 -0.2285 -0.0972  0.6575
12484TIP3    H258868   5.364   1.736  12.181 -1.8824 -2.2723  0.1071
12485TIP3   OH258869   1.628   1.758   4.698  0.3465 -0.1407 -0.5223
12485TIP3    H158870   1.706   1.703   4.689  0.4023 -0.0071 -0.8451
12485TIP3    H258871   1.654   1.843   4.665  0.2038  0.0335 -0.1890
12486TIP3   OH258872   0.275   2.883   5.727 -0.1115 -0.6520 -0.1682
12486TIP3    H158873   0.250   2.954   5.669  0.9836 -1.4553 -1.7158
12486TIP3    H258874   0.228   2.900   5.809 -2.3250  0.1095 -1.5235
12487TIP3   OH258875   2.126   4.925  13.003 -0.0815  0.3593  0.3196
12487TIP3    H158876   2.214   4.943  13.035 -0.5521  1.7820  0.9072
12487TIP3    H258877   2.119   4.830  13.005  1.1511  0.2583  1.0651
12488TIP3   OH258878   3.075   3.820   6.200  0.3161  0.2781  0.2102
12488TIP3    H158879   3.147   3.883   6.201  1.6274 -0.9458 -3.1810
12488TIP3    H258880   3.115   3.738   6.229 -0.2638  0.0204  0.2939
12489TIP3   OH258881   0.834   4.495   0.151 -0.3181 -0.2197  0.9309
12489TIP3    H158882   0.785   4.414   0.134 -2.2860  1.0086  0.4337
12489TIP3    H258883   0.840   4.538   0.066 -2.5161  1.8264  1.6961
12490TIP3   OH258884   2.565   0.831   1.350  0.3985  0.0148  0.0501
12490TIP3    H158885   2.502   0.782   1.298  0.4326 -0.1910  0.2018
12490TIP3    H258886   2.650   0.800   1.321  0.6713  3.0151 -2.9741
12491TIP3   OH258887   0.158   3.086   2.634  0.1589 -0.1675 -0.0070
12491TIP3    H158888   0.221   3.015   2.647  0.3818  0.0754  0.2589
12491TIP3    H258889   0.122   3.071   2.547 -0.7011 -1.3157  0.5247
12492TIP3   OH258890   0.471   5.231  15.928 -0.7414 -0.0316 -0.4153
12492TIP3    H158891   0.401   5.291  15.903 -1.6309 -0.9625 -0.1895
12492TIP3    H258892   0.521   5.217  15.847 -0.1386  1.4785 -0.3358
12493TIP3   OH258893   4.547   4.859   5.181 -0.1626  0.2238 -0.3048
12493TIP3    H158894   4.537   4.789   5.246 -0.8688  0.9900  0.4310
12493TIP3    H258895   4.463   4.861   5.135 -0.0049  0.3170 -0.5851
12494TIP3   OH258896   6.204   2.708  12.107 -0.3600 -0.1979  0.1821
12494TIP3    H158897   6.216   2.632  12.050  0.2215  0.0661 -0.0580
12494TIP3    H258898   6.269   2.696  12.176  1.1869  1.1178 -0.9868
12495TIP3   OH258899   2.635   1.818   6.159 -0.3061  0.1510  0.2016
12495TIP3    H158900   2.543   1.793   6.153 -0.2456  0.0644 -0.4060
12495TIP3    H258901   2.682   1.737   6.179 -0.4649  0.3735  1.6091
12496TIP3   OH258902   2.404   0.899   6.081 -0.2233 -0.3702  0.2812
12496TIP3    H158903   2.472   0.929   6.141  0.1888  0.3028 -0.4956
12496TIP3    H258904   2.397   0.969   6.016 -0.4397 -1.2164 -0.6326
12497TIP3   OH258905   5.218   5.801   4.074  0.0910 -0.1135  0.6054
12497TIP3    H158906   5.197   5.742   4.002  2.9338  0.4392 -0.8338
12497TIP3    H258907   5.249   5.743   4.144  0.5558 -0.4904  0.0962
12498TIP3   OH258908   3.196   6.065   0.069  0.4281  0.2269  0.6393
12498TIP3    H158909   3.252   6.130   0.113 -0.0676  1.1782 -0.1009
12498TIP3    H258910   3.114   6.068   0.118 -0.2564  1.5580 -0.5096
12499TIP3   OH258911   5.422   2.482  14.761 -0.5450  0.5738  0.1336
12499TIP3    H158912   5.455   2.415  14.820  0.9520  1.1742  0.0232
12499TIP3    H258913   5.409   2.437  14.678  0.7970  0.4761 -0.0421
12500TIP3   OH258914   4.099   5.828   4.204 -0.1729 -0.1093 -0.1166
12500TIP3    H158915   4.077   5.919   4.224 -0.1000  0.2350 -1.5209
12500TIP3    H258916   4.195   5.826   4.206 -0.1838 -0.4233  0.9482
12501TIP3   OH258917   6.252   5.363  13.761 -0.6296 -0.2370 -0.1389
12501TIP3    H158918   6.304   5.441  13.742 -0.8095 -0.4684 -1.6957
12501TIP3    H258919   6.307   5.290  13.733  0.1705 -0.8565  2.6588
12502TIP3   OH258920   5.792   6.108  16.646 -0.0002  0.2473  0.1943
12502TIP3    H158921   5.860   6.106  16.713 -0.9643 -0.9534  1.1854
12502TIP3    H258922   5.826   6.169  16.580  1.4600  0.6367  1.2366
12503TIP3   OH258923   5.255   1.790   5.714 -0.3127  0.3919  0.0380
12503TIP3    H158924   5.248   1.768   5.807  1.2780 -0.4991 -0.0193
12503TIP3    H258925   5.320   1.729   5.680 -0.0530  1.4392 -1.4219
12504TIP3   OH258926   4.620   4.527  11.492 -0.2713 -0.2733 -0.7266
12504TIP3    H158927   4.580   4.612  11.473  0.5774  0.2105 -0.4212
12504TIP3    H258928   4.574   4.466  11.435 -2.5455 -0.0476  0.7257
12505TIP3   OH258929   2.357   5.912  10.515 -0.5596 -0.1788 -0.0521
12505TIP3    H158930   2.354   5.856  10.593 -0.6883 -0.2478 -0.1058
12505TIP3    H258931   2.266   5.916  10.485 -0.8679  1.5108  0.9641
12506TIP3   OH258932   6.103   4.984   0.905  0.5953  0.1223  0.0647
12506TIP3    H158933   6.048   4.936   0.843 -0.7157  1.3020  0.2546
12506TIP3    H258934   6.133   5.061   0.856  1.7610 -0.2949  0.0946
12507TIP3   OH258935   5.366   5.166  11.519 -0.0201  0.1785  0.1476
12507TIP3    H158936   5.425   5.165  11.445  0.6695  1.4911  0.6430
12507TIP3    H258937   5.397   5.239  11.574 -1.8989  0.7283  0.5639
12508TIP3   OH258938   3.921   6.245  15.017 -0.2000 -0.6803  0.0627
12508TIP3    H158939   3.828   6.254  14.998 -0.3421 -0.3904  0.8323
12508TIP3    H258940   3.958   6.203  14.940 -0.7074  0.5761 -0.9121
12509TIP3   OH258941   3.113   0.307   2.014 -0.2995  0.0892  0.0849
12509TIP3    H158942   3.108   0.294   1.920 -0.0219  2.7494 -0.3710
12509TIP3    H258943   3.203   0.282   2.038  0.5313  1.9681 -0.8825
12510TIP3   OH258944   6.452   4.187   4.604  0.0285 -0.5314 -0.0731
12510TIP3    H158945   6.532   4.234   4.580 -1.2720  2.3182  0.7523
12510TIP3    H258946   6.406   4.175   4.522 -0.7985  2.1251 -0.0906
12511TIP3   OH258947   4.559   2.130   4.503 -0.2596 -0.0402 -0.2398
12511TIP3    H158948   4.541   2.036   4.500 -0.7736  0.0076  0.8635
12511TIP3    H258949   4.477   2.171   4.475 -0.2229  0.0790 -0.1748
12512TIP3   OH258950   5.151   0.163  11.875 -0.0911  0.3431  0.7421
12512TIP3    H158951   5.121   0.248  11.842 -0.1839  0.1038  0.2023
12512TIP3    H258952   5.127   0.101  11.807  0.2719 -0.0714  0.9877
12513TIP3   OH258953   3.413   0.926   1.360  0.4338  0.1102  0.3771
12513TIP3    H158954   3.491   0.938   1.415  0.3078  0.8453  0.4089
12513TIP3    H258955   3.438   0.858   1.298  2.2021  2.3066 -1.5500
12514TIP3   OH258956   3.611   5.259  13.979 -0.1989 -0.0750 -0.1340
12514TIP3    H158957   3.605   5.319  14.053 -0.4421  0.8930 -0.9249
12514TIP3    H258958   3.701   5.267  13.948  0.5766 -2.0945  1.3449
12515TIP3   OH258959   6.659   1.231  14.509 -0.0548 -0.1454  0.3707
12515TIP3    H158960   6.750   1.259  14.517  0.0996 -0.5237 -0.0851
12515TIP3    H258961   6.609   1.304  14.546  0.3889  0.3962 -0.0760
12516TIP3   OH258962   6.185   0.017   1.410 -0.6555 -0.4629 -0.2249
12516TIP3    H158963   6.140   0.099   1.426 -0.0120 -0.2699  0.6258
12516TIP3    H258964   6.150  -0.013   1.326 -0.6373  0.8470 -0.7193
12517TIP3   OH258965   0.496   3.786  13.453 -0.1465 -0.4177 -0.4680
12517TIP3    H158966   0.488   3.708  13.508  0.3072 -0.5817 -0.6313
12517TIP3    H258967   0.587   3.813  13.462  0.1968 -1.0025 -1.8755
12518TIP3   OH258968   0.778   2.538   2.264 -0.0572 -0.5342  0.0384
12518TIP3    H158969   0.866   2.542   2.228  0.2838 -1.8223  0.6782
12518TIP3    H258970   0.769   2.619   2.314 -0.2358  0.9060 -2.1366
12519TIP3   OH258971   6.316   4.587  13.222 -0.0232 -0.0285  0.6450
12519TIP3    H158972   6.273   4.637  13.291  0.6366 -0.2630  1.2372
12519TIP3    H258973   6.407   4.580  13.250  0.0313 -1.0367  0.2837
12520TIP3   OH258974   1.423   5.280   3.490  0.3134  0.4438  0.0727
12520TIP3    H158975   1.411   5.202   3.436  1.6422 -0.0920  0.5073
12520TIP3    H258976   1.517   5.298   3.487 -0.0249  2.4509 -0.5549
12521TIP3   OH258977   2.825   6.381  15.881 -0.3800  0.1109 -0.2562
12521TIP3    H158978   2.756   6.320  15.905 -0.8158  0.9783  0.7470
12521TIP3    H258979   2.901   6.352  15.931 -0.3191 -0.1653 -0.5032
12522TIP3   OH258980   3.166   4.600   6.095 -1.0187  0.2689  0.2039
12522TIP3    H158981   3.106   4.631   6.162 -1.7204 -1.0629  0.2280
12522TIP3    H258982   3.242   4.566   6.143 -0.6932  1.0131  0.2224
12523TIP3   OH258983   4.713   6.665  17.112 -0.1609 -0.2680  0.2610
12523TIP3    H158984   4.688   6.724  17.041 -3.4724 -0.5737  0.9913
12523TIP3    H258985   4.768   6.599  17.071 -0.7542  0.3782 -1.6763
12524TIP3   OH258986   0.286   1.685   5.081 -0.0779 -0.1964  0.5754
12524TIP3    H158987   0.332   1.601   5.080  2.6384  1.1483  1.1680
12524TIP3    H258988   0.282   1.710   5.173  1.5258  1.4232  0.2798
12525TIP3   OH258989   2.009   3.668  16.010 -0.3829  0.1122  0.1835
12525TIP3    H158990   2.041   3.579  15.992  1.7247  0.9868 -0.6666
12525TIP3    H258991   2.039   3.686  16.099 -1.0384 -0.1264  0.4522
12526TIP3   OH258992   5.908   0.609   4.694 -0.4653  0.3695  0.4145
12526TIP3    H158993   5.872   0.564   4.770  0.1639  1.2171  1.2430
12526TIP3    H258994   5.836   0.662   4.661 -0.4116  0.9166  1.1556
12527TIP3   OH258995   4.600   0.306   3.877 -0.4344 -0.1056 -0.0802
12527TIP3    H158996   4.568   0.282   3.964 -0.7016 -0.0965 -0.1753
12527TIP3    H258997   4.638   0.226   3.842 -0.6097 -0.1903 -0.0793
12528TIP3   OH258998   2.721   2.563   6.636  0.0011 -0.5198  0.7710
12528TIP3    H158999   2.811   2.564   6.603 -0.4051 -0.2219 -0.3361
12528TIP3    H259000   2.687   2.650   6.617 -0.8738 -0.9757  0.2004
12529TIP3   OH259001   4.649   6.744  15.516 -0.0854  0.5437  0.3754
12529TIP3    H159002   4.634   6.650  15.514  1.5505  0.2610 -1.1150
12529TIP3    H259003   4.739   6.753  15.547 -0.6710  1.7230  1.8597
12530TIP3   OH259004   1.427   4.408  14.079 -0.2075 -0.3298  0.3409
12530TIP3    H159005   1.447   4.314  14.084 -0.3531 -0.4173 -0.5519
12530TIP3    H259006   1.500   4.446  14.031 -1.5278 -0.4712 -1.9137
12531TIP3   OH259007   3.543   6.772   2.114 -0.8914  0.0519 -0.2403
12531TIP3    H159008   3.530   6.678   2.099 -2.1019  0.0001  0.8928
12531TIP3    H259009   3.462   6.813   2.085 -1.6796  0.3585  2.1987
12532TIP3   OH259010   2.593   3.076   4.513  0.5047 -0.0732 -0.5428
12532TIP3    H159011   2.571   3.169   4.519 -1.0323 -0.5063  1.3028
12532TIP3    H259012   2.666   3.065   4.574  1.3421  0.0461 -1.4773
12533TIP3   OH259013   2.775   0.992   2.807  0.4807  0.4439 -0.3744
12533TIP3    H159014   2.865   0.958   2.808  0.4041  0.1846  1.6251
12533TIP3    H259015   2.721   0.914   2.791  0.5232  0.2437  0.4006
12534TIP3   OH259016   0.712   3.146   0.712 -0.1084 -0.4381  0.6421
12534TIP3    H159017   0.685   3.054   0.701 -0.0307 -0.5735  1.5330
12534TIP3    H259018   0.701   3.184   0.625 -0.9824 -1.0715  0.4589
12535TIP3   OH259019   5.359   0.782  11.287  0.1044  0.1651 -0.3285
12535TIP3    H159020   5.304   0.847  11.243 -0.6979  0.6315  1.2770
12535TIP3    H259021   5.300   0.709  11.305  0.3421  0.0919  0.1797
12536TIP3   OH259022   4.945   6.773  14.428  0.4021 -0.0405 -0.0192
12536TIP3    H159023   4.927   6.690  14.471 -2.6597 -0.3413 -1.6275
12536TIP3    H259024   5.000   6.750  14.353 -0.7211 -0.7093 -0.6594
12537TIP3   OH259025   6.313   5.639  15.899 -0.2536  0.4205 -0.1494
12537TIP3    H159026   6.299   5.644  15.805  0.3778  2.0433 -0.1882
12537TIP3    H259027   6.312   5.546  15.918 -0.6394  0.0712 -1.7201
12538TIP3   OH259028   2.496   4.521   5.115 -0.1535  0.1119  0.5529
12538TIP3    H159029   2.423   4.526   5.177  0.2485  2.1750  0.9506
12538TIP3    H259030   2.571   4.555   5.164  0.4335  0.6594 -0.6793
12539TIP3   OH259031   4.625   0.640  15.805  0.1283  0.6472 -0.6259
12539TIP3    H159032   4.535   0.663  15.783 -0.2537  0.7759  0.9157
12539TIP3    H259033   4.655   0.712  15.860  0.6001 -0.1548  0.1966
12540TIP3   OH259034   5.929   1.481   2.797  0.4222  0.0850 -0.3914
12540TIP3    H159035   5.892   1.502   2.883  1.7961 -0.8498  0.4706
12540TIP3    H259036   5.900   1.392   2.779  0.3095  0.2044 -0.8104
12541TIP3   OH259037   3.707   0.805   4.675  0.0370  0.3484 -0.7740
12541TIP3    H159038   3.778   0.853   4.634 -0.6317  1.9283 -0.1483
12541TIP3    H259039   3.651   0.778   4.603  1.1932 -0.8635 -1.2660
12542TIP3   OH259040   3.767   5.570  10.866 -0.3858 -0.0976 -0.0780
12542TIP3    H159041   3.700   5.522  10.817  0.7018 -0.8286 -0.9001
12542TIP3    H259042   3.781   5.518  10.945  1.4626 -1.7813 -1.3939
12543TIP3   OH259043   0.939   3.261  14.540  0.2087 -0.1945  0.3454
12543TIP3    H159044   0.918   3.194  14.476 -1.6185 -0.1210  0.8136
12543TIP3    H259045   0.857   3.310  14.552  1.3685  1.8554  0.3347
12544TIP3   OH259046   1.092   0.250   5.616  0.3731 -0.9183 -0.4473
12544TIP3    H159047   1.153   0.189   5.657 -1.2849 -1.1939  1.8468
12544TIP3    H259048   1.013   0.245   5.670 -1.3872  0.0761 -2.7317
12545TIP3   OH259049   2.981   3.145   1.946  0.5553 -0.2719 -0.1636
12545TIP3    H159050   3.026   3.215   1.898 -0.7159  0.3868 -0.4426
12545TIP3    H259051   3.023   3.065   1.917  1.3812  0.3018 -0.5917
12546TIP3   OH259052   0.127   3.206  13.177  0.1659  0.2636  0.4779
12546TIP3    H159053   0.077   3.144  13.230 -0.4301 -1.2816 -1.7385
12546TIP3    H259054   0.151   3.156  13.098  1.8417  2.1361 -0.2865
12547TIP3   OH259055   6.396   6.211   1.601 -0.0436  0.4218 -0.3041
12547TIP3    H159056   6.350   6.234   1.682  1.5743 -0.5229  0.9502
12547TIP3    H259057   6.475   6.265   1.601  0.8100 -0.7752 -0.3611
12548TIP3   OH259058   2.949   1.519   0.068 -0.5968 -0.2725  0.0290
12548TIP3    H159059   2.974   1.459  -0.003  0.2431 -0.2842  0.3202
12548TIP3    H259060   2.923   1.599   0.023 -1.9686 -0.9175 -0.3806
12549TIP3   OH259061   3.932   5.632   0.361  0.3760  0.4799  0.0965
12549TIP3    H159062   3.845   5.602   0.388 -0.0850  2.2460  0.7359
12549TIP3    H259063   3.929   5.727   0.375  2.0139  0.7236 -1.0242
12550TIP3   OH259064   0.623   5.249  16.159  0.0753 -0.4967 -0.1207
12550TIP3    H159065   0.688   5.319  16.153  0.5645 -0.7610  1.5027
12550TIP3    H259066   0.572   5.256  16.079  0.9352  0.8990 -0.5747
12551TIP3   OH259067   6.047   5.853   2.842 -0.8362 -0.0683  0.3941
12551TIP3    H159068   6.025   5.946   2.830 -0.4490  0.2151  1.7119
12551TIP3    H259069   6.123   5.838   2.786  1.7592  1.5288  3.1968
12552TIP3   OH259070   0.076   0.845   4.387 -0.2889  0.4245 -0.1793
12552TIP3    H159071   0.139   0.885   4.327 -0.7141  3.0840  0.9647
12552TIP3    H259072  -0.010   0.866   4.350 -0.5337 -0.3400 -0.0654
12553TIP3   OH259073   2.317   4.201   6.268  0.2579  0.9393 -0.5070
12553TIP3    H159074   2.404   4.184   6.233 -0.1764  1.4304 -1.9223
12553TIP3    H259075   2.289   4.118   6.306  1.0414  0.5763 -0.7046
12554TIP3   OH259076   1.116   2.497  13.504  0.9633 -0.4318  0.5308
12554TIP3    H159077   1.079   2.464  13.422  1.6742  2.6462 -1.1937
12554TIP3    H259078   1.209   2.473  13.499  0.6874 -1.7413  1.3160
12555TIP3   OH259079   2.937   4.217  13.620  0.0205 -0.0198 -0.7974
12555TIP3    H159080   2.997   4.195  13.548  0.0261 -1.2804 -0.4285
12555TIP3    H259081   2.908   4.306  13.600 -0.1704 -0.4226 -2.5013
12556TIP3   OH259082   2.654   1.725  11.922 -0.3775  0.4339 -0.2656
12556TIP3    H159083   2.630   1.633  11.929 -1.3957  0.5648 -1.5989
12556TIP3    H259084   2.741   1.730  11.962 -1.0467 -0.7398  1.4870
12557TIP3   OH259085   3.394   0.585   5.758  0.0201 -0.1746 -0.5189
12557TIP3    H159086   3.422   0.574   5.849  1.1228 -1.1868 -0.9460
12557TIP3    H259087   3.307   0.544   5.755 -0.6019  1.0335  0.3479
12558TIP3   OH259088   2.176   2.728  16.729  0.1982  0.0349  0.2767
12558TIP3    H159089   2.137   2.698  16.811 -1.0934  0.2013 -0.2587
12558TIP3    H259090   2.241   2.661  16.707 -0.4693 -0.7617  0.6918
12559TIP3   OH259091   4.232   2.831   0.733  0.0353 -0.0638 -0.3991
12559TIP3    H159092   4.170   2.894   0.770  0.4732  0.6318 -0.8192
12559TIP3    H259093   4.259   2.870   0.650  1.1823 -0.2517 -0.1363
12560TIP3   OH259094   0.896   2.256  15.690  0.2351  0.8043  0.3646
12560TIP3    H159095   0.822   2.293  15.642  0.2744  0.9005  0.3775
12560TIP3    H259096   0.970   2.313  15.669 -0.1331  1.9363  1.9587
12561TIP3   OH259097   2.601   3.598   0.175 -0.0132 -0.5272  0.2620
12561TIP3    H159098   2.588   3.504   0.181 -0.1011 -0.5578 -0.3339
12561TIP3    H259099   2.637   3.612   0.087  0.5575 -0.0642  0.5632
12562TIP3   OH259100   4.730   4.496   4.006 -0.0731 -0.6349  0.1235
12562TIP3    H159101   4.671   4.421   4.014  0.1627 -0.7935  0.4281
12562TIP3    H259102   4.761   4.512   4.095 -0.5597  0.1890  0.1511
12563TIP3   OH259103   0.635   6.327  13.873  0.3257 -0.3034  0.0564
12563TIP3    H159104   0.669   6.412  13.843 -0.5970  0.3466  0.7986
12563TIP3    H259105   0.670   6.264  13.810  0.4952  0.7064 -0.9008
12564TIP3   OH259106   0.766   6.582   1.268  0.1739  0.4839  0.4442
12564TIP3    H159107   0.721   6.556   1.349 -0.4354 -0.8257 -0.2860
12564TIP3    H259108   0.719   6.537   1.198  1.1895  0.9411 -0.5787
12565TIP3   OH259109   3.660   2.578  15.072 -0.3857  0.3351  0.1674
12565TIP3    H159110   3.577   2.592  15.118  0.0931  0.4626  1.0135
12565TIP3    H259111   3.658   2.640  14.999 -2.2091 -1.5187 -1.4673
12566TIP3   OH259112   5.146   4.964  15.726 -0.5269 -0.1885 -0.2114
12566TIP3    H159113   5.134   4.940  15.634 -0.5370 -0.3234 -0.1751
12566TIP3    H259114   5.136   4.882  15.774  1.1575 -0.4341 -0.2258
12567TIP3   OH259115   6.577   1.032  16.287  0.1709 -0.0139  0.3766
12567TIP3    H159116   6.628   1.028  16.206  1.4212 -0.5598  1.1680
12567TIP3    H259117   6.491   1.066  16.259  0.1935 -1.2407 -1.3540
12568TIP3   OH259118   1.579   5.221  15.068  0.6993 -0.1146 -0.6219
12568TIP3    H159119   1.617   5.188  15.149 -0.5775  1.1550  0.5277
12568TIP3    H259120   1.655   5.248  15.016  1.4757  1.0985  1.0521
12569TIP3   OH259121   5.622   4.428  11.959  0.6393  0.3726 -0.1565
12569TIP3    H159122   5.563   4.371  12.009 -0.8014  1.1705 -0.8710
12569TIP3    H259123   5.629   4.386  11.873 -0.7907  1.4415 -0.8375
12570TIP3   OH259124   2.057   5.942   1.929  0.1362  0.5975 -0.5729
12570TIP3    H159125   2.069   6.028   1.971 -0.0071  0.8673 -1.0800
12570TIP3    H259126   2.093   5.953   1.841  1.2963 -0.2446 -0.2238
12571TIP3   OH259127   5.193   2.683   4.258  0.0170 -0.0789  0.3503
12571TIP3    H159128   5.242   2.636   4.326  0.2562 -2.8190 -1.5163
12571TIP3    H259129   5.258   2.703   4.191 -0.3274  1.9775  0.5876
12572TIP3   OH259130   2.960   2.295   1.941  0.8358 -0.2850  0.0989
12572TIP3    H159131   2.891   2.284   2.006  2.9041 -2.9785  2.1158
12572TIP3    H259132   3.033   2.333   1.989  0.9314  2.3850 -1.9358
12573TIP3   OH259133   0.207   4.741  14.105  0.6327 -0.0968 -0.1150
12573TIP3    H159134   0.170   4.674  14.163 -0.8137  1.5689  1.0004
12573TIP3    H259135   0.283   4.699  14.066  1.1141 -1.6444  2.2581
12574TIP3   OH259136   0.907   5.601  13.228  0.3442  0.1501 -0.7871
12574TIP3    H159137   0.979   5.662  13.243 -0.5792  1.6317 -2.0808
12574TIP3    H259138   0.949   5.515  13.219  1.5922  0.3994  1.9352
12575TIP3   OH259139   2.597   3.390  15.300  0.3114 -0.2276  0.7700
12575TIP3    H159140   2.565   3.387  15.210  0.8530  0.4654  0.5400
12575TIP3    H259141   2.644   3.308  15.312  0.0859 -0.4009  0.4809
12576TIP3   OH259142   4.830   1.088  15.720  0.0506  0.4032  0.2662
12576TIP3    H159143   4.878   1.062  15.799  0.7929  1.7061  0.2791
12576TIP3    H259144   4.738   1.088  15.747  0.3577  1.7360  1.4376
12577TIP3   OH259145   6.184   1.353  11.690 -0.6848 -0.4473 -0.5230
12577TIP3    H159146   6.272   1.326  11.715 -0.9378  0.1696  1.2192
12577TIP3    H259147   6.191   1.376  11.597  1.3613  1.0332 -0.0862
12578TIP3   OH259148   6.391   4.949   3.705  0.1628 -0.3154  0.1646
12578TIP3    H159149   6.392   4.891   3.781  1.4874 -0.6082 -0.0416
12578TIP3    H259150   6.482   4.980   3.697  0.0909 -0.3864 -1.3554
12579TIP3   OH259151   1.456   0.232   5.394  0.3574 -0.0495  0.3562
12579TIP3    H159152   1.549   0.209   5.395  0.3430 -0.3236 -1.6534
12579TIP3    H259153   1.410   0.149   5.405  0.3589 -0.3127 -1.3699
12580TIP3   OH259154   4.731   5.731  12.909 -0.1006  0.4407 -0.3105
12580TIP3    H159155   4.662   5.792  12.935 -0.7790 -1.0235  1.4979
12580TIP3    H259156   4.811   5.784  12.910 -0.7921  1.5136  0.3294
12581TIP3   OH259157   0.582   2.362   2.227 -0.1663  0.8981  0.1608
12581TIP3    H159158   0.507   2.422   2.229 -0.8035  0.1095  0.1438
12581TIP3    H259159   0.655   2.415   2.259 -0.4089  2.1015 -1.1348
12582TIP3   OH259160   6.625   0.171   3.902  0.6082 -0.3480  0.8254
12582TIP3    H159161   6.610   0.177   3.997 -0.1830 -0.2156  0.7006
12582TIP3    H259162   6.614   0.079   3.881  0.0573 -0.2681  0.7523
12583TIP3   OH259163   4.374   0.076  13.690 -0.3660 -0.0206 -0.0455
12583TIP3    H159164   4.316   0.011  13.650 -1.9317  1.2438  0.0551
12583TIP3    H259165   4.451   0.026  13.717 -1.8929 -2.0009  0.9029
12584TIP3   OH259166   6.164   2.015   4.609  0.0871 -0.1371 -0.2077
12584TIP3    H159167   6.178   2.001   4.702  0.5863 -1.0013 -0.3976
12584TIP3    H259168   6.213   2.095   4.589 -1.9587  1.4327  0.7049
12585TIP3   OH259169   6.642   2.190  13.540  0.1153  0.3192  0.4051
12585TIP3    H159170   6.624   2.107  13.495 -3.1567  2.0762 -1.9696
12585TIP3    H259171   6.569   2.200  13.601  0.5082  1.4180  0.7103
12586TIP3   OH259172   4.634   6.674  13.329  0.1796  0.2191 -0.8297
12586TIP3    H159173   4.690   6.645  13.401 -1.4220  1.8193  1.2301
12586TIP3    H259174   4.550   6.630  13.346 -0.7380  1.9265 -0.6066
12587TIP3   OH259175   5.528   4.993  15.942 -0.2126 -0.0286  0.2082
12587TIP3    H159176   5.558   4.951  16.023 -1.5805 -1.3004  0.0935
12587TIP3    H259177   5.450   5.042  15.967  0.7890  1.7108  0.1269
12588TIP3   OH259178   4.283   0.971   1.934  0.1970  0.1343 -0.0372
12588TIP3    H159179   4.258   0.881   1.910 -0.2990  0.1886  0.2757
12588TIP3    H259180   4.207   1.024   1.912  0.5037  0.4895 -0.2547
12589TIP3   OH259181   1.442   5.130   0.470 -0.2259 -0.1569 -0.1250
12589TIP3    H159182   1.505   5.183   0.519  0.6632 -1.0180 -0.2959
12589TIP3    H259183   1.357   5.171   0.487  0.3300  0.8208  0.4005
12590TIP3   OH259184   0.611   0.422   0.074  0.0614  0.3160  0.4831
12590TIP3    H159185   0.672   0.436   0.002  0.4560  0.6595  0.8749
12590TIP3    H259186   0.549   0.494   0.068 -0.8415 -0.5103 -0.4374
12591TIP3   OH259187   4.704   0.144  12.501 -0.2901  0.1514  0.0866
12591TIP3    H159188   4.669   0.057  12.519 -0.6359  0.3480  0.3643
12591TIP3    H259189   4.787   0.147  12.549  0.3936 -0.5080 -1.0030
12592TIP3   OH259190   5.494   1.492  13.483  0.1312 -0.9269  0.0735
12592TIP3    H159191   5.462   1.540  13.407 -0.7330 -2.4356 -0.5748
12592TIP3    H259192   5.589   1.493  13.474  0.0607 -0.5828 -0.7155
12593TIP3   OH259193   0.097   2.110   2.789 -0.1265  0.3375 -0.2138
12593TIP3    H159194   0.136   2.184   2.742 -0.3558  1.2365  0.9523
12593TIP3    H259195   0.139   2.113   2.875 -1.3042  0.0792  0.3782
12594TIP3   OH259196   2.354   6.216  11.028 -0.2513  0.7733 -0.3492
12594TIP3    H159197   2.311   6.142  10.985  0.8412 -0.1171  0.0375
12594TIP3    H259198   2.298   6.237  11.102 -0.5097  0.2507 -0.3940
12595TIP3   OH259199   0.328   4.158  13.163  0.7906 -0.7088  0.4481
12595TIP3    H159200   0.397   4.213  13.203  0.5072 -0.8591  1.1580
12595TIP3    H259201   0.324   4.081  13.220 -1.7886  0.4632  2.0311
12596TIP3   OH259202   4.508   5.243  13.482 -0.2091  0.0636  0.0722
12596TIP3    H159203   4.465   5.258  13.398 -1.9476  1.4413  1.1397
12596TIP3    H259204   4.602   5.246  13.462 -0.5687 -0.9880 -1.9999
12597TIP3   OH259205   2.808   6.573   2.505  0.0239 -1.0278  0.5829
12597TIP3    H159206   2.879   6.580   2.441  0.1873  0.7864  0.9008
12597TIP3    H259207   2.728   6.580   2.454  0.1566  1.1390  0.5758
12598TIP3   OH259208   2.691   6.571  13.063 -0.5684  0.1242 -0.1906
12598TIP3    H159209   2.714   6.573  13.156 -0.5579  0.1727 -0.1943
12598TIP3    H259210   2.727   6.487  13.032  0.1811  0.4857 -0.3407
12599TIP3   OH259211   0.326   5.015  11.219 -0.1706  0.4690 -0.1528
12599TIP3    H159212   0.409   4.990  11.179 -0.0583  1.5884 -0.6572
12599TIP3    H259213   0.343   5.014  11.314  0.6446  1.4097 -0.2767
12600TIP3   OH259214   3.441   5.349  12.708  0.3028 -0.4344  0.5360
12600TIP3    H159215   3.421   5.417  12.644  0.9720 -0.3200  0.4413
12600TIP3    H259216   3.508   5.295  12.666  0.9459 -0.2000  1.2412
12601TIP3   OH259217   3.667   2.506   0.465  0.1973 -0.0560  0.4927
12601TIP3    H159218   3.616   2.427   0.448 -0.9622  1.2063 -2.4343
12601TIP3    H259219   3.719   2.519   0.386  2.3595  0.7781  1.9372
12602TIP3   OH259220   1.395   1.643  16.578  0.2855  0.1287  0.0730
12602TIP3    H159221   1.357   1.730  16.575  0.4851  0.3705  2.6160
12602TIP3    H259222   1.322   1.586  16.603  0.6412 -0.0665  0.6877
12603TIP3   OH259223   3.821   0.448   3.636  0.3579  0.1255 -0.1215
12603TIP3    H159224   3.822   0.363   3.680 -0.0827 -0.3759 -1.0689
12603TIP3    H259225   3.763   0.437   3.561  0.2734  1.2711 -0.2534
12604TIP3   OH259226   6.801   4.039   1.043  0.2248  0.1664  0.2926
12604TIP3    H159227   6.786   4.127   1.080  0.0934  0.9460 -1.5084
12604TIP3    H259228   6.713   4.004   1.028  0.2725 -0.5011  1.4502
12605TIP3   OH259229   2.068   2.378   0.758 -0.4216 -0.3357  0.4169
12605TIP3    H159230   1.994   2.335   0.714 -0.1002 -1.3022  0.7969
12605TIP3    H259231   2.134   2.386   0.689 -0.5942 -0.1925  0.2686
12606TIP3   OH259232   2.419   6.781  14.238  0.0521  0.0930 -0.4547
12606TIP3    H159233   2.371   6.762  14.157 -0.7193  0.1952 -0.0294
12606TIP3    H259234   2.352   6.779  14.306  0.6258  0.4443  0.1233
12607TIP3   OH259235   2.195   5.046  16.747  0.4994 -0.0247 -0.3814
12607TIP3    H159236   2.208   5.140  16.729 -0.8690  0.1971 -0.2864
12607TIP3    H259237   2.115   5.042  16.799  0.2810 -1.2842 -0.7796
12608TIP3   OH259238   3.195   6.630   0.771 -0.1182 -0.3186  0.1297
12608TIP3    H159239   3.263   6.564   0.781 -0.1945 -0.2560  1.1875
12608TIP3    H259240   3.210   6.667   0.684 -0.3335 -1.9945 -0.6649
12609TIP3   OH259241   0.715   4.983  14.442 -0.5493  0.3600 -0.4553
12609TIP3    H159242   0.635   4.968  14.493 -0.2854 -1.6535 -0.5703
12609TIP3    H259243   0.740   5.073  14.463 -2.7347  0.9795 -0.2883
12610TIP3   OH259244   2.006   5.585   3.284  0.0468 -0.3762 -0.4472
12610TIP3    H159245   1.993   5.586   3.378  3.1307  3.1486  0.1928
12610TIP3    H259246   1.976   5.671   3.255 -0.5734 -1.2685 -2.6899
12611TIP3   OH259247   5.990   4.611  16.031 -0.4519  0.2939 -0.2767
12611TIP3    H159248   5.960   4.547  15.966  0.9723 -0.1016 -0.5958
12611TIP3    H259249   5.964   4.696  15.996  0.9003  0.1401 -1.7529
12612TIP3   OH259250   1.703   3.752   6.427 -0.1504  0.0227 -0.2082
12612TIP3    H159251   1.784   3.708   6.449 -0.6430 -0.3191  0.9997
12612TIP3    H259252   1.657   3.761   6.510 -0.8770  1.1754 -0.7061
12613TIP3   OH259253   1.211   1.942  13.865 -0.0194  0.3090 -0.1551
12613TIP3    H159254   1.274   1.934  13.937 -0.7476  0.3135  0.4971
12613TIP3    H259255   1.186   2.034  13.865 -0.2447  0.2486 -0.2151
12614TIP3   OH259256   1.702   5.243   1.730 -0.2675  0.0300  0.2545
12614TIP3    H159257   1.693   5.216   1.638 -0.6823  2.3357 -0.4454
12614TIP3    H259258   1.767   5.313   1.728  0.6111 -0.6821  1.9344
12615TIP3   OH259259   5.983   2.406  17.041 -0.1414  0.1798  0.3074
12615TIP3    H159260   6.054   2.348  17.015 -1.1882 -1.4721  0.8944
12615TIP3    H259261   5.917   2.396  16.972  0.1512  1.6738 -0.2246
12616TIP3   OH259262   3.006   5.345  16.272 -0.2793 -0.2546  0.2173
12616TIP3    H159263   3.046   5.260  16.252  0.6199  0.2930 -0.3867
12616TIP3    H259264   3.030   5.363  16.362 -2.7822 -1.8791  1.3339
12617TIP3   OH259265   3.632   6.347   5.207 -0.3540  0.8839 -0.5468
12617TIP3    H159266   3.537   6.358   5.217 -0.2207  0.7423  1.2351
12617TIP3    H259267   3.662   6.430   5.169 -0.9368  1.8448  1.0010
12618TIP3   OH259268   5.169   2.222  16.986 -0.1000 -0.6314 -0.5573
12618TIP3    H159269   5.255   2.216  17.028 -0.1150  0.2186 -0.3818
12618TIP3    H259270   5.185   2.275  16.908 -1.2708  4.0251  1.9810
12619TIP3   OH259271   4.497   6.396  12.649  0.1033  0.1078  0.1731
12619TIP3    H159272   4.454   6.324  12.603 -1.5194  1.4597 -0.5100
12619TIP3    H259273   4.472   6.384  12.741  0.5158 -0.6350  0.1969
12620TIP3   OH259274   0.241   5.508  12.712 -0.0134  0.1047  0.4567
12620TIP3    H159275   0.164   5.487  12.660 -0.1082  0.6072  0.3896
12620TIP3    H259276   0.267   5.425  12.751 -1.1499  0.0805  1.2332
12621TIP3   OH259277   1.938   5.819  15.863  0.2441 -0.1161  0.1551
12621TIP3    H159278   1.942   5.801  15.957  2.8670 -0.5297  0.0317
12621TIP3    H259279   1.888   5.745  15.827  0.3472 -0.6455  1.0642
12622TIP3   OH259280   5.124   4.679   1.554  0.1415  0.0810 -0.0061
12622TIP3    H159281   5.126   4.747   1.487  2.5508 -0.2368 -0.3825
12622TIP3    H259282   5.035   4.644   1.551 -0.0021  0.4702 -2.6623
12623TIP3   OH259283   4.427   3.841  12.674 -0.4457 -0.2055 -0.2626
12623TIP3    H159284   4.351   3.900  12.668 -0.7888 -0.8013 -3.2260
12623TIP3    H259285   4.438   3.807  12.586  2.3504 -1.3798  0.4314
12624TIP3   OH259286   0.198   3.341   5.751 -0.2126 -0.1079 -0.1851
12624TIP3    H159287   0.170   3.297   5.831 -1.0035  0.7944  0.0586
12624TIP3    H259288   0.164   3.430   5.760  0.0409  0.1201 -1.3414
12625TIP3   OH259289   2.553   5.312  15.518  0.4762 -0.3701  0.0986
12625TIP3    H159290   2.503   5.341  15.594 -0.2759  2.1651 -1.2509
12625TIP3    H259291   2.630   5.369  15.517 -0.0301  0.3432 -1.5429
12626TIP3   OH259292   2.753   3.015  16.119  0.2576 -0.4160 -0.2218
12626TIP3    H159293   2.706   3.026  16.202 -0.0924 -2.1445 -0.1592
12626TIP3    H259294   2.706   3.070  16.057 -0.7436 -0.7240  0.2514
12627TIP3   OH259295   3.950   4.707   2.541  0.1158 -0.5627  0.0765
12627TIP3    H159296   3.932   4.779   2.602  1.3922 -0.3577  0.2331
12627TIP3    H259297   4.037   4.676   2.566  0.4681 -0.7792 -1.3628
12628TIP3   OH259298   1.262   3.932  13.351  0.3053  0.0949 -0.0482
12628TIP3    H159299   1.279   3.860  13.291 -2.7458 -1.5629  0.8866
12628TIP3    H259300   1.230   4.003  13.295  0.7195 -0.2272 -0.6955
12629TIP3   OH259301   3.432   0.881  16.968 -0.5207 -0.1252 -0.2352
12629TIP3    H159302   3.506   0.937  16.991 -0.4757  0.2434 -1.2388
12629TIP3    H259303   3.398   0.918  16.887 -3.8907  1.7373  1.7851
12630TIP3   OH259304   2.047   4.626   4.918  0.0643  0.0007 -0.0766
12630TIP3    H159305   2.019   4.651   5.006  2.4080 -0.3166  0.8370
12630TIP3    H259306   1.975   4.653   4.861 -1.2195  0.8526  1.8472
12631TIP3   OH259307   1.382   6.096   3.028 -0.2893 -0.1900 -0.3965
12631TIP3    H159308   1.359   6.157   3.098 -1.7834  1.6447 -2.3517
12631TIP3    H259309   1.477   6.103   3.020 -0.1759  0.1158  0.9033
12632TIP3   OH259310   6.806   4.269   0.146 -0.2044 -0.3993 -0.1846
12632TIP3    H159311   6.722   4.228   0.130 -1.2498  1.4759  0.1882
12632TIP3    H259312   6.816   4.268   0.242  0.5410 -1.2271 -0.2590
12633TIP3   OH259313   1.865   4.525   2.644  0.5032  0.4641 -0.1642
12633TIP3    H159314   1.915   4.559   2.569 -0.1624  0.9229 -0.4057
12633TIP3    H259315   1.777   4.511   2.610  0.9860 -2.6359 -0.3868
12634TIP3   OH259316   1.282   6.217   4.737  0.3155  0.1485  0.5313
12634TIP3    H159317   1.232   6.295   4.713 -1.3159 -1.1921 -0.6274
12634TIP3    H259318   1.239   6.183   4.815  1.5324  0.8114  1.5308
12635TIP3   OH259319   1.913   2.402  13.825  0.0529  0.1426 -0.2161
12635TIP3    H159320   1.963   2.445  13.894  0.2122  0.5135 -0.5614
12635TIP3    H259321   1.826   2.444  13.828  0.2652  0.6331 -0.6753
12636TIP3   OH259322   4.534   1.927  14.894  0.1259  0.0537 -0.7762
12636TIP3    H159323   4.563   1.994  14.832  0.6685 -1.3868 -2.1387
12636TIP3    H259324   4.458   1.887  14.853  1.0813 -1.5830 -1.0205
12637TIP3   OH259325   1.580   2.658  15.864 -0.0074 -0.3602 -0.5745
12637TIP3    H159326   1.593   2.608  15.783 -1.5107  0.9940 -1.7413
12637TIP3    H259327   1.497   2.626  15.899  0.9139 -1.3339  0.7728
12638TIP3   OH259328   3.784   4.663  11.921  0.5759 -0.8565 -0.7946
12638TIP3    H159329   3.838   4.595  11.882  3.8045  1.2061 -0.2999
12638TIP3    H259330   3.775   4.636  12.013  0.4147 -1.3895 -0.9612
12639TIP3   OH259331   5.928   1.208  15.552  0.1586 -0.2648  0.1048
12639TIP3    H159332   5.870   1.190  15.478 -0.9842 -0.9021  1.1186
12639TIP3    H259333   5.965   1.122  15.574  2.1994  0.2409 -1.0411
12640TIP3   OH259334   0.365   0.177   1.111 -0.2016  0.0683  0.3298
12640TIP3    H159335   0.304   0.120   1.158 -1.7907  2.2963  1.1783
12640TIP3    H259336   0.329   0.184   1.023 -0.4234  0.3181  0.4386
12641TIP3   OH259337   6.638   2.920   4.507 -0.3318  0.2453  0.0415
12641TIP3    H159338   6.661   2.851   4.444  1.7776  1.0474 -0.1233
12641TIP3    H259339   6.557   2.957   4.473  1.2531  1.3512 -2.8763
12642TIP3   OH259340   5.510   2.341   1.719  0.1819  0.2096  0.0679
12642TIP3    H159341   5.465   2.424   1.703  0.0831  0.1267 -0.0832
12642TIP3    H259342   5.582   2.364   1.778  0.0646  0.3764  0.1449
12643TIP3   OH259343   2.570   1.230   1.588 -0.3382  0.3656 -0.3832
12643TIP3    H159344   2.488   1.211   1.634  0.1099 -0.0684  0.2589
12643TIP3    H259345   2.550   1.214   1.495 -0.9299  0.0810 -0.2123
12644TIP3   OH259346   2.354   3.560  11.725  0.2246  0.5810 -0.4280
12644TIP3    H159347   2.350   3.655  11.714 -2.1730  0.4728 -1.1136
12644TIP3    H259348   2.319   3.526  11.643  0.7080 -0.8827 -0.0416
12645TIP3   OH259349   3.196   5.316  11.591  0.2947  0.1221  0.3877
12645TIP3    H159350   3.190   5.221  11.580  2.1025 -0.2669  2.0197
12645TIP3    H259351   3.106   5.346  11.592 -0.5772 -2.1096  3.4692
12646TIP3   OH259352   4.963   4.879  12.552  0.3509 -0.1376  0.3247
12646TIP3    H159353   5.032   4.913  12.609  0.0914  2.2782 -0.6862
12646TIP3    H259354   5.009   4.841  12.478  0.6364 -1.8144  1.3099
12647TIP3   OH259355   0.567   6.499   2.060  0.4610  0.0717 -0.1227
12647TIP3    H159356   0.564   6.518   1.966 -1.6035 -1.0313 -0.3195
12647TIP3    H259357   0.556   6.404   2.066 -2.0007  0.3646  1.2869
12648TIP3   OH259358   1.299   2.062  16.290 -0.1585  0.4999  0.2686
12648TIP3    H159359   1.341   2.010  16.222 -0.9008 -0.9627  0.8859
12648TIP3    H259360   1.323   2.153  16.269 -0.6184  0.1440 -2.1062
12649TIP3   OH259361   6.335   0.883   3.274 -0.0741 -0.3270 -0.7939
12649TIP3    H159362   6.298   0.800   3.305 -2.2924  0.9810  0.3505
12649TIP3    H259363   6.261   0.929   3.235  0.7216  1.7417 -0.0207
12650TIP3   OH259364   5.139   4.473   6.187 -0.0147  0.1807 -0.1876
12650TIP3    H159365   5.125   4.508   6.275 -1.4554 -1.7013  0.3978
12650TIP3    H259366   5.060   4.496   6.139  0.5807  0.8219 -0.8952
12651TIP3   OH259367   2.158   0.589  13.389 -0.3211 -0.7848  0.5213
12651TIP3    H159368   2.187   0.675  13.359 -1.7801  0.7494  3.0992
12651TIP3    H259369   2.213   0.526  13.342  1.2558  1.5685 -0.9516
12652TIP3   OH259370   6.693   0.188  11.051 -0.1552  0.9197  0.1463
12652TIP3    H159371   6.721   0.156  10.965 -0.3829  2.1977 -0.4280
12652TIP3    H259372   6.773   0.225  11.089  0.5562 -1.8494  1.5946
12653TIP3   OH259373   4.455   6.041   5.298 -0.1512 -0.3517 -0.4616
12653TIP3    H159374   4.433   6.131   5.320  2.7099  0.1091  0.9399
12653TIP3    H259375   4.375   6.006   5.258 -2.0389  2.1264  0.8701
12654TIP3   OH259376   4.045   1.418  13.519  0.2090  0.7134  0.1129
12654TIP3    H159377   3.974   1.406  13.582 -0.7732  0.2422 -1.0449
12654TIP3    H259378   4.058   1.331  13.481 -1.5996  1.5480 -2.7510
12655TIP3   OH259379   3.625   0.300   2.469 -0.5042 -0.0901  0.4157
12655TIP3    H159380   3.665   0.255   2.395 -0.2090  2.0040 -0.7849
12655TIP3    H259381   3.698   0.324   2.525 -0.4860  0.2815  0.2353
12656TIP3   OH259382   4.465   4.320  12.588 -0.0614  0.0226 -0.2636
12656TIP3    H159383   4.393   4.355  12.642  0.2249  0.2593 -0.0264
12656TIP3    H259384   4.506   4.254  12.643 -0.8527 -0.9945 -0.8690
12657TIP3   OH259385   6.582   6.759   5.752  0.6847  0.5714  0.1864
12657TIP3    H159386   6.654   6.772   5.814  1.8038  0.0612 -0.9833
12657TIP3    H259387   6.594   6.670   5.719 -1.1827  0.0282  0.8292
12658TIP3   OH259388   5.572   1.399   1.387 -0.1518 -0.2550 -0.1710
12658TIP3    H159389   5.558   1.400   1.482  0.4862  2.1314 -0.0523
12658TIP3    H259390   5.658   1.438   1.375 -0.7186  0.5629 -1.7969
12659TIP3   OH259391   5.327   6.312  16.488 -0.2203 -0.7471 -0.6121
12659TIP3    H159392   5.379   6.393  16.483 -1.4857  0.2629  1.2453
12659TIP3    H259393   5.272   6.314  16.410  0.2244 -0.1384 -0.9178
12660TIP3   OH259394   0.725   1.288   5.536 -0.4409  0.1336  0.6591
12660TIP3    H159395   0.701   1.380   5.547  0.7618  0.4338  0.9641
12660TIP3    H259396   0.797   1.290   5.472 -1.8862 -0.8267 -1.0891
12661TIP3   OH259397   4.403   0.758  15.801 -0.3988 -0.4126 -0.4716
12661TIP3    H159398   4.393   0.746  15.896 -0.4897 -1.9673 -0.6472
12661TIP3    H259399   4.323   0.721  15.764 -0.6029  0.6685 -1.1412
12662TIP3   OH259400   5.617   6.621   1.614 -0.3447  0.4013  0.6979
12662TIP3    H159401   5.621   6.664   1.699  0.5071  2.6008 -0.3775
12662TIP3    H259402   5.704   6.583   1.602 -0.2790  0.5863  0.5806
12663TIP3   OH259403   4.801   4.402  13.194  0.3500 -0.1098 -0.5536
12663TIP3    H159404   4.888   4.374  13.224  0.1041 -1.8729 -1.3902
12663TIP3    H259405   4.794   4.367  13.105 -2.4257 -2.7854  0.5458
12664TIP3   OH259406   4.619   5.052   1.580  0.0719  0.6605 -0.4232
12664TIP3    H159407   4.606   4.969   1.533  0.4993 -0.1035  0.7424
12664TIP3    H259408   4.606   5.028   1.672  1.2765  1.6635  0.0286
12665TIP3   OH259409   0.177   2.075   5.811 -0.2168 -0.0508 -0.3298
12665TIP3    H159410   0.220   2.161   5.804 -0.8288  0.4188  1.2528
12665TIP3    H259411   0.225   2.020   5.749  2.4166  0.5560  1.0408
12666TIP3   OH259412   4.176   5.420   1.055  0.0324  0.2286 -0.5623
12666TIP3    H159413   4.117   5.345   1.063  0.5308 -0.0072  1.3905
12666TIP3    H259414   4.134   5.490   1.105  1.5017 -0.0527  1.1950
12667TIP3   OH259415   0.019   3.394  16.479  0.3963  0.0386 -0.6990
12667TIP3    H159416   0.060   3.403  16.393 -0.9916  1.3307 -1.2707
12667TIP3    H259417  -0.074   3.384  16.460 -0.1182  1.7079  0.6557
12668TIP3   OH259418   1.405   4.160   3.834 -0.3123 -0.4925  0.4494
12668TIP3    H159419   1.471   4.109   3.881  0.3701  0.6896  0.8252
12668TIP3    H259420   1.344   4.188   3.902  0.6656  1.2046  0.6684
12669TIP3   OH259421   2.157   3.505   0.498 -0.1648 -0.4477  0.1625
12669TIP3    H159422   2.215   3.438   0.534  0.0036  0.6043  1.9964
12669TIP3    H259423   2.188   3.517   0.408  1.6067 -0.8655  0.6678
12670TIP3   OH259424   0.307   5.317  10.541 -0.6530 -0.0878 -0.0643
12670TIP3    H159425   0.212   5.307  10.549 -0.7663  0.4905 -0.5730
12670TIP3    H259426   0.341   5.304  10.629 -0.7801 -4.4129 -0.4555
12671TIP3   OH259427   4.910   0.526   6.763  0.5755 -0.3606  0.0301
12671TIP3    H159428   4.971   0.582   6.811 -0.4363 -1.4924  2.8418
12671TIP3    H259429   4.836   0.583   6.743  1.5410  0.4460 -1.4331
12672TIP3   OH259430   2.980   5.511  14.193  0.4999 -0.4273  0.3690
12672TIP3    H159431   2.942   5.561  14.121  0.5483  1.2605  1.4666
12672TIP3    H259432   3.061   5.474  14.156 -0.0398 -0.5478 -0.7477
12673TIP3   OH259433   3.413   4.219   5.422 -0.6183 -0.1413 -0.0978
12673TIP3    H159434   3.324   4.185   5.428  0.1126 -2.4489 -1.1861
12673TIP3    H259435   3.428   4.229   5.328  0.5023 -0.4706  0.0334
12674TIP3   OH259436   2.880   3.577  11.499 -0.2179 -0.5340 -0.1260
12674TIP3    H159437   2.856   3.647  11.559  0.6420  0.0989 -0.5064
12674TIP3    H259438   2.845   3.605  11.414 -2.4128 -1.9449  0.2378
12675TIP3   OH259439   6.799   0.340  15.421  0.3337  0.1138  0.3038
12675TIP3    H159440   6.743   0.263  15.411  2.1718 -1.0312 -2.4350
12675TIP3    H259441   6.748   0.411  15.382  0.6051 -0.8846 -2.0423
12676TIP3   OH259442   3.299   4.301   4.354 -0.8731 -0.8663  0.3195
12676TIP3    H159443   3.280   4.371   4.291 -3.8213 -1.6112  0.2323
12676TIP3    H259444   3.329   4.347   4.433  0.8426  0.2077 -0.8905
12677TIP3   OH259445   1.923   4.828  15.994 -0.1126  0.5134  0.3383
12677TIP3    H159446   1.880   4.824  16.079  0.6359  1.2677  0.7620
12677TIP3    H259447   1.913   4.739  15.958  2.2784 -0.8075  2.5600
12678TIP3   OH259448   2.342   5.016  13.667 -0.1925 -0.4594 -1.0583
12678TIP3    H159449   2.360   4.923  13.676  1.1394 -0.0221  2.3802
12678TIP3    H259450   2.311   5.043  13.754  0.0263  2.3960 -1.7694
12679TIP3   OH259451   6.143   5.896   3.494 -0.0283  0.0726 -0.1101
12679TIP3    H159452   6.181   5.905   3.581  0.5403 -1.3676 -0.1726
12679TIP3    H259453   6.050   5.884   3.509 -0.0246  0.5077  0.2616
12680TIP3   OH259454   0.156   6.249  11.650 -0.1174 -0.1310 -0.1602
12680TIP3    H159455   0.240   6.205  11.667  0.5826  2.1526  3.1694
12680TIP3    H259456   0.090   6.184  11.675  0.7121 -0.9617 -0.0561
12681TIP3   OH259457   6.362   6.663   2.702  0.6273  0.1039 -0.1735
12681TIP3    H159458   6.375   6.690   2.792  0.9658 -0.9643  0.1122
12681TIP3    H259459   6.269   6.640   2.697  0.4817  0.6926 -0.2538
12682TIP3   OH259460   3.231   5.518  14.084  0.2318 -0.0194  0.0631
12682TIP3    H159461   3.260   5.594  14.134  0.8581 -0.4052  0.3016
12682TIP3    H259462   3.232   5.446  14.147  0.7771 -0.4594 -0.4390
12683TIP3   OH259463   4.085   4.376  16.226  0.0864 -0.2344  0.3718
12683TIP3    H159464   4.178   4.351  16.228  0.2960  0.5334  0.7949
12683TIP3    H259465   4.038   4.293  16.220  0.8383 -0.5697 -1.5868
12684TIP3   OH259466   5.929   0.793  14.844  0.7033  0.1756 -0.1160
12684TIP3    H159467   5.960   0.868  14.794  0.5568  0.3315  0.0259
12684TIP3    H259468   5.953   0.812  14.934  1.2551 -0.2525 -0.1633
12685TIP3   OH259469   6.605   3.116   5.569  0.1546 -0.1449 -0.0841
12685TIP3    H159470   6.549   3.118   5.492 -0.8424 -0.6364  0.6007
12685TIP3    H259471   6.672   3.051   5.549 -0.1637 -0.3453 -0.4905
12686TIP3   OH259472   0.713   3.263  14.085  0.8433 -0.1187 -0.0785
12686TIP3    H159473   0.734   3.319  14.010 -1.3052 -0.6543 -1.1681
12686TIP3    H259474   0.669   3.187  14.046 -2.3793  0.5850  1.7663
12687TIP3   OH259475   5.973   4.560   0.521  0.1416 -0.5177 -0.0508
12687TIP3    H159476   6.041   4.514   0.570  0.3246 -0.6430 -0.4178
12687TIP3    H259477   6.009   4.570   0.433  0.2230  0.6040  0.1076
12688TIP3   OH259478   1.863   1.011  13.428 -0.3113  0.1089  0.0919
12688TIP3    H159479   1.936   0.951  13.441  1.7242  1.6345 -3.0487
12688TIP3    H259480   1.811   0.970  13.358  0.2884  1.2389 -1.0540
12689TIP3   OH259481   1.959   0.408   4.287 -0.2777  0.5304 -0.1579
12689TIP3    H159482   2.010   0.379   4.212  0.2487  1.3680 -0.1336
12689TIP3    H259483   1.893   0.339   4.299 -0.9474  0.7898 -1.9315
12690TIP3   OH259484   2.384   2.216  16.744 -0.4582  0.2304  0.1013
12690TIP3    H159485   2.365   2.148  16.808  0.6219  0.1817  0.3946
12690TIP3    H259486   2.355   2.297  16.786 -0.8189  0.0650  0.1700
12691TIP3   OH259487   5.839   2.327  16.819  0.0013 -0.4976 -0.1190
12691TIP3    H159488   5.757   2.280  16.835 -0.8634  0.8751 -0.3790
12691TIP3    H259489   5.847   2.329  16.724 -0.4682  0.6784 -0.1488
12692TIP3   OH259490   6.403   3.392   0.138 -0.3006 -0.0539  0.3641
12692TIP3    H159491   6.319   3.433   0.117 -0.9668 -1.8300 -0.7271
12692TIP3    H259492   6.467   3.440   0.085 -0.8984  0.2143 -0.1334
12693TIP3   OH259493   3.110   6.513  16.485  0.1971 -0.1324 -0.0249
12693TIP3    H159494   3.160   6.543  16.409  0.9197 -0.2795  0.3734
12693TIP3    H259495   3.051   6.586  16.505 -1.1997 -0.7339 -1.7031
12694TIP3   OH259496   3.717   6.106   1.934  0.1066 -0.5209  0.4827
12694TIP3    H159497   3.626   6.075   1.935  0.1525 -0.6673  1.2804
12694TIP3    H259498   3.752   6.079   2.020  0.8169 -0.2170  0.2946
12695TIP3   OH259499   6.498   0.505  17.002  0.8263  0.1373 -0.7772
12695TIP3    H159500   6.465   0.482  17.089  0.3289 -0.7480 -1.1971
12695TIP3    H259501   6.454   0.588  16.982  1.2360  0.5490 -0.0322
12696TIP3   OH259502   5.006   3.419   1.021 -0.3938  0.2950 -0.0854
12696TIP3    H159503   4.959   3.345   1.060 -1.0352  1.4923  1.5768
12696TIP3    H259504   5.038   3.469   1.097 -0.9973  2.3361 -1.0977
12697TIP3   OH259505   5.473   6.253  14.925  0.7897  0.0793 -0.1028
12697TIP3    H159506   5.525   6.333  14.921  1.3293 -0.2363  0.4761
12697TIP3    H259507   5.503   6.209  15.004  1.3184 -1.2477 -1.0033
12698TIP3   OH259508   5.497   2.818  11.131 -0.3166 -0.0375 -0.5718
12698TIP3    H159509   5.491   2.913  11.120  2.0019 -0.0001 -2.5230
12698TIP3    H259510   5.436   2.782  11.067 -3.8523 -0.0503  2.4636
12699TIP3   OH259511   6.258   5.631   0.548 -0.5649 -0.1737  0.1820
12699TIP3    H159512   6.194   5.656   0.614  1.2010  1.0389  1.5422
12699TIP3    H259513   6.324   5.581   0.597  0.2439 -0.1680 -0.8606
12700TIP3   OH259514   4.439   2.574  14.736  0.4107 -0.5063 -0.8470
12700TIP3    H159515   4.368   2.625  14.696  0.2464  0.9798  1.1286
12700TIP3    H259516   4.401   2.488  14.752 -0.8120  0.1112 -0.2956
12701TIP3   OH259517   0.964   1.227  11.174  0.2059 -0.0097  0.4579
12701TIP3    H159518   0.901   1.273  11.119 -2.1412 -2.8749  0.5215
12701TIP3    H259519   1.032   1.198  11.112 -0.8514 -0.6204 -0.4618
12702TIP3   OH259520   5.639   2.540   4.182  0.3313 -0.8924 -0.6181
12702TIP3    H159521   5.553   2.523   4.143  0.3095  0.8148 -1.3910
12702TIP3    H259522   5.627   2.522   4.275 -2.2475  3.5641  0.2059
12703TIP3   OH259523   3.144   1.115  12.284 -0.0292 -0.2649  0.5555
12703TIP3    H159524   3.148   1.020  12.269  2.7305 -0.2901  0.9252
12703TIP3    H259525   3.157   1.124  12.379  1.7276  0.5092  0.2732
12704TIP3   OH259526   0.322   4.353   2.409 -0.1677 -0.0537  0.4816
12704TIP3    H159527   0.372   4.361   2.327 -0.5079  1.2505  0.3683
12704TIP3    H259528   0.365   4.283   2.457  1.1687  0.3771 -0.0371
12705TIP3   OH259529   0.109   3.126   3.957 -0.0381  0.1500  0.7341
12705TIP3    H159530   0.117   3.055   4.021  1.1315  0.8661  1.4173
12705TIP3    H259531   0.074   3.200   4.007 -2.5812 -0.2649 -0.2653
12706TIP3   OH259532   3.623   2.508  13.434  0.3124  0.2639 -0.2244
12706TIP3    H159533   3.548   2.502  13.492  1.0993 -1.2036  0.6970
12706TIP3    H259534   3.652   2.418  13.422  1.1834  0.6822 -1.5715
12707TIP3   OH259535   3.553   2.993   3.046  0.4984  0.0204  0.7135
12707TIP3    H159536   3.472   3.015   3.093 -0.1327 -0.4065 -0.1385
12707TIP3    H259537   3.602   2.938   3.108 -0.0977 -0.1298  1.0627
12708TIP3   OH259538   5.061   1.092   4.632  0.2858  0.8475  0.2334
12708TIP3    H159539   5.098   1.128   4.713 -2.5139  1.9713  1.1417
12708TIP3    H259540   5.055   0.998   4.648  1.9058  0.7377  0.3527
12709TIP3   OH259541   6.657   4.906  12.711 -0.3961  0.4346  0.1507
12709TIP3    H159542   6.663   5.000  12.724  2.5338  0.6446 -1.6933
12709TIP3    H259543   6.676   4.869  12.798  2.2081  1.6480  0.2020
12710TIP3   OH259544   2.528   5.097  11.967 -0.2131 -0.0679 -0.1476
12710TIP3    H159545   2.482   5.179  11.985  1.8593  1.0801  0.3415
12710TIP3    H259546   2.607   5.102  12.021  3.0133  0.4590 -4.3460
12711TIP3   OH259547   0.633   0.057   1.573 -0.2319 -0.3794 -0.4371
12711TIP3    H159548   0.581   0.069   1.493 -0.5992  0.4059 -0.0853
12711TIP3    H259549   0.722   0.082   1.546 -0.5101  0.6926 -0.3907
12712TIP3   OH259550   3.012   2.117  11.699  0.2409 -0.0862  0.0765
12712TIP3    H159551   2.925   2.156  11.706  0.4125  0.5179 -0.9200
12712TIP3    H259552   3.012   2.072  11.614  0.7093 -0.5644  0.3198
12713TIP3   OH259553   0.901   5.453  11.864 -0.0786 -0.4091  0.3272
12713TIP3    H159554   0.874   5.426  11.952 -0.5684 -0.9032  0.0328
12713TIP3    H259555   0.962   5.525  11.879  1.9028 -2.1663  1.1783
12714TIP3   OH259556   6.643   0.989   0.381  0.0874 -0.2995 -0.3694
12714TIP3    H159557   6.615   0.964   0.294 -0.1911 -1.9854  0.1723
12714TIP3    H259558   6.719   0.933   0.399  0.1728  0.0579  0.4439
12715TIP3   OH259559   1.485   6.319   4.921  0.6255  0.0552  0.1391
12715TIP3    H159560   1.439   6.245   4.962  1.1938  0.0434  0.7831
12715TIP3    H259561   1.416   6.377   4.892  0.1789 -0.4541  0.1587
12716TIP3   OH259562   4.156   3.711   0.001 -0.5646  0.1535 -0.6713
12716TIP3    H159563   4.251   3.699   0.011 -0.6367 -0.1944 -0.3726
12716TIP3    H259564   4.134   3.661  -0.078 -0.6284 -0.4640 -0.2701
12717TIP3   OH259565   1.432   3.723   0.271 -0.2855 -0.1368  0.2049
12717TIP3    H159566   1.440   3.773   0.353 -1.5908  2.0228 -0.9040
12717TIP3    H259567   1.375   3.650   0.294 -0.7605  0.5209  1.1974
12718TIP3   OH259568   5.706   1.927   2.115 -0.1212  0.2115  0.1742
12718TIP3    H159569   5.686   1.993   2.048 -0.8725 -0.4135 -0.2300
12718TIP3    H259570   5.621   1.906   2.154  0.3730  1.0270  1.7810
12719TIP3   OH259571   2.526   5.597   0.172  0.2809 -0.2424 -0.2169
12719TIP3    H159572   2.574   5.676   0.147 -1.2486  0.0537 -2.5453
12719TIP3    H259573   2.447   5.630   0.214  0.0651 -0.5459 -0.3838
12720TIP3   OH259574   6.308   2.028   1.877  0.0421  0.0631 -0.2711
12720TIP3    H159575   6.337   2.073   1.797  0.2162 -1.3974 -1.0626
12720TIP3    H259576   6.274   1.944   1.846 -0.4725 -0.2760  1.1436
12721TIP3   OH259577   6.318   4.933  16.899  0.8802  0.3708  0.6927
12721TIP3    H159578   6.279   4.924  16.986 -2.3784 -1.6654 -0.7825
12721TIP3    H259579   6.310   5.027  16.879 -0.0296  0.5697  1.8886
12722TIP3   OH259580   4.331   0.401   6.234  0.0406  0.2544  0.0769
12722TIP3    H159581   4.315   0.464   6.306  1.1348 -0.0561  0.6119
12722TIP3    H259582   4.422   0.374   6.246 -0.0199 -0.4407 -0.9473
12723TIP3   OH259583   0.122   2.625  16.993  0.0106  0.0435  0.2462
12723TIP3    H159584   0.115   2.544  16.943  0.9053  1.5426 -2.5664
12723TIP3    H259585   0.041   2.672  16.974 -0.1271  0.1825  1.1484
12724TIP3   OH259586   6.327   5.101   4.243 -0.4643  0.1677  0.3410
12724TIP3    H159587   6.381   5.025   4.265 -0.5378  0.3649  1.2345
12724TIP3    H259588   6.295   5.082   4.154  0.9084 -0.0309 -0.1314
12725TIP3   OH259589   2.063   0.120   5.265  0.3757  0.1064  0.2096
12725TIP3    H159590   2.057   0.027   5.286  0.2994 -0.2287 -1.1967
12725TIP3    H259591   2.025   0.164   5.341  0.7216 -0.9786  1.0459
12726TIP3   OH259592   3.587   2.827   1.044 -0.1513 -0.1021 -1.2740
12726TIP3    H159593   3.603   2.898   0.982 -1.7948  1.1920 -0.2672
12726TIP3    H259594   3.492   2.820   1.050 -0.0502 -0.3804  0.8845
12727TIP3   OH259595   2.972   5.951   2.903 -0.0527 -0.3595  0.2166
12727TIP3    H159596   2.960   6.040   2.871 -2.8614 -0.5117  0.6384
12727TIP3    H259597   2.902   5.900   2.862  1.5284 -2.4454 -0.0887
12728TIP3   OH259598   1.929   1.867   4.229 -0.7892  0.2217 -0.2582
12728TIP3    H159599   1.987   1.797   4.258 -0.7074  0.8895  1.2539
12728TIP3    H259600   1.843   1.825   4.221 -0.5346 -0.2816 -0.4348
12729TIP3   OH259601   1.818   0.243  12.154  0.0271  0.5337 -0.4182
12729TIP3    H159602   1.862   0.270  12.073  0.9780  0.1254 -0.0594
12729TIP3    H259603   1.885   0.254  12.222  0.3382 -2.2618 -0.1803
12730TIP3   OH259604   2.254   6.699   5.792 -0.2606  0.2168  0.4447
12730TIP3    H159605   2.241   6.705   5.887  0.7580 -0.4711  0.6457
12730TIP3    H259606   2.177   6.652   5.761 -0.1382 -0.4216  1.0723
12731TIP3   OH259607   3.602   0.223   1.015 -0.1921 -0.1986 -0.5763
12731TIP3    H159608   3.507   0.215   1.025 -0.0488 -1.5153 -0.1922
12731TIP3    H259609   3.615   0.314   0.987 -1.2100  1.4146  3.5558
12732TIP3   OH259610   3.288   1.377   0.310 -0.5310  0.4372  0.1326
12732TIP3    H159611   3.207   1.389   0.260 -0.8394 -0.8065  0.2959
12732TIP3    H259612   3.335   1.308   0.262 -0.1417  0.2914  0.7177
12733TIP3   OH259613   4.527   2.208   0.204 -0.0759  0.8020 -0.2304
12733TIP3    H159614   4.508   2.267   0.131 -0.1492  0.1498 -0.7529
12733TIP3    H259615   4.524   2.121   0.165 -0.4017  0.4259  0.6171
12734TIP3   OH259616   2.767   4.536   3.442  0.0100 -0.2794 -0.4572
12734TIP3    H159617   2.843   4.577   3.401 -0.5670  0.9047 -0.3741
12734TIP3    H259618   2.792   4.527   3.534  0.2503 -0.3786 -0.5311
12735TIP3   OH259619   0.169   0.342   1.455  0.0244 -0.0198  0.5046
12735TIP3    H159620   0.094   0.325   1.511  0.7361 -0.3118  1.3904
12735TIP3    H259621   0.184   0.437   1.463 -0.9163  0.2416 -0.5589
12736TIP3   OH259622   3.922   2.344   4.877  0.7267 -0.4684  0.3365
12736TIP3    H159623   3.924   2.313   4.968  1.0963  1.6814  1.1268
12736TIP3    H259624   3.872   2.278   4.830 -1.5661 -0.4855  2.5728
12737TIP3   OH259625   2.003   2.096   3.629  0.5469 -0.3750  0.5243
12737TIP3    H159626   2.009   2.032   3.700 -0.7572  1.3241  2.2298
12737TIP3    H259627   2.093   2.102   3.596  1.2719 -0.9337  2.2695
12738TIP3   OH259628   3.194   1.737  14.499  0.2236 -0.9010 -0.7617
12738TIP3    H159629   3.149   1.686  14.432  1.6641 -1.5092 -1.2943
12738TIP3    H259630   3.279   1.694  14.509  0.1712 -0.6661  1.2581
12739TIP3   OH259631   3.671   3.705   1.107 -0.3557  0.1756 -0.1647
12739TIP3    H159632   3.754   3.668   1.078 -0.1891  0.5616 -0.1958
12739TIP3    H259633   3.667   3.685   1.201  0.2441  1.0038  0.0524
12740TIP3   OH259634   4.149   4.912  11.377 -0.4871  0.4282 -0.0900
12740TIP3    H159635   4.154   4.900  11.472  0.0790  0.4110 -0.1210
12740TIP3    H259636   4.239   4.904  11.347 -0.9642 -3.3896 -1.0826
12741TIP3   OH259637   0.516   3.544   5.886 -0.2210 -0.2311 -0.3245
12741TIP3    H159638   0.603   3.583   5.879  0.2532 -1.2380 -0.2189
12741TIP3    H259639   0.487   3.564   5.974  0.4208 -0.9134  0.0519
12742TIP3   OH259640   4.016   1.949   3.344  0.9188  0.2079 -0.2198
12742TIP3    H159641   4.108   1.929   3.329  0.7346  0.5928 -2.0942
12742TIP3    H259642   3.968   1.886   3.291  0.1046  0.2931  0.3896
12743TIP3   OH259643   1.866   5.353   6.076  0.6507 -0.1030 -0.6352
12743TIP3    H159644   1.903   5.268   6.054 -2.1439 -1.5647 -0.1862
12743TIP3    H259645   1.917   5.383   6.152  1.9644 -1.1392 -1.0818
12744TIP3   OH259646   2.487   1.541   4.379 -0.3173  0.1758 -0.1246
12744TIP3    H159647   2.406   1.587   4.356  0.3842  0.7231 -1.6397
12744TIP3    H259648   2.544   1.553   4.302  1.0919 -0.4420  0.7844
12745TIP3   OH259649   4.514   0.584  17.084  0.3527 -0.2241  0.4613
12745TIP3    H159650   4.474   0.504  17.050  1.1793 -1.2514  1.8234
12745TIP3    H259651   4.602   0.558  17.112  1.1461  1.4667 -0.2922
12746TIP3   OH259652   3.531   5.408   3.490  0.4649 -0.8850  0.4542
12746TIP3    H159653   3.599   5.472   3.512  0.0066 -0.2995  0.2075
12746TIP3    H259654   3.534   5.402   3.395  1.6792 -2.5642  0.5485
12747TIP3   OH259655   3.476   2.421  13.124  0.6219  0.0887  0.4078
12747TIP3    H159656   3.439   2.364  13.057  0.0833  1.7028 -0.7196
12747TIP3    H259657   3.426   2.400  13.203  0.0185 -0.5773 -0.1367
12748TIP3   OH259658   2.681   6.651   5.555 -0.7170  0.3081 -0.1356
12748TIP3    H159659   2.729   6.698   5.487 -1.7414  0.1797 -0.9779
12748TIP3    H259660   2.685   6.560   5.528 -0.6573  0.1843  0.2849
12749TIP3   OH259661   3.843   1.019   3.027  0.1537 -0.0940  0.4229
12749TIP3    H159662   3.934   0.991   3.036  0.6964  0.9200 -1.3752
12749TIP3    H259663   3.795   0.939   3.006  0.7558 -0.5176  0.6269
12750TIP3   OH259664   1.862   5.675  12.513  0.0927  0.2410 -0.1720
12750TIP3    H159665   1.949   5.665  12.552  0.0371 -1.9073 -0.5021
12750TIP3    H259666   1.846   5.593  12.466 -0.6117  1.9863 -3.2600
12751TIP3   OH259667   5.710   1.151   3.373  0.1523 -0.3577 -0.2606
12751TIP3    H159668   5.737   1.104   3.453  2.4872 -0.8432 -1.2645
12751TIP3    H259669   5.704   1.082   3.307  1.5041  0.4327 -1.2453
12752TIP3   OH259670   2.204   2.319  14.270 -0.3258  0.1172  0.2163
12752TIP3    H159671   2.196   2.244  14.212 -0.6714 -1.3419  2.0424
12752TIP3    H259672   2.115   2.332  14.304 -0.2161  1.2038  0.1145
12753TIP3   OH259673   2.758   6.553  14.518 -0.2316  0.2477  0.1812
12753TIP3    H159674   2.666   6.577  14.509 -0.6522 -0.9785  1.0705
12753TIP3    H259675   2.775   6.555  14.612  0.5395  0.0453  0.0584
12754TIP3   OH259676   0.010   2.835   2.010 -0.2716  0.8418  0.2691
12754TIP3    H159677  -0.032   2.792   1.936  1.1531 -3.5042  1.6692
12754TIP3    H259678  -0.057   2.833   2.079 -0.0423  0.3232  0.4826
12755TIP3   OH259679   2.912   0.216   1.796  0.6760  0.4240  0.1750
12755TIP3    H159680   2.877   0.304   1.804 -0.2592 -0.0069  0.9439
12755TIP3    H259681   2.869   0.180   1.718 -1.3507 -0.4156  1.6176
12756TIP3   OH259682   4.992   6.196  13.053  0.1592  0.0312  1.1517
12756TIP3    H159683   5.036   6.281  13.061 -0.3189  0.2257  1.7942
12756TIP3    H259684   5.043   6.138  13.110  3.2311 -1.3181 -2.5312
12757TIP3   OH259685   6.342   4.938  15.787  0.2372 -0.5331 -0.1400
12757TIP3    H159686   6.423   4.986  15.804  0.4569 -1.1387  0.5953
12757TIP3    H259687   6.341   4.869  15.854 -0.2019 -1.3828 -0.9955
12758TIP3   OH259688   0.188   5.351  16.080  0.1492  0.5149  0.1509
12758TIP3    H159689   0.171   5.327  16.171  0.2990  1.5406  0.4611
12758TIP3    H259690   0.273   5.394  16.082  1.0913 -1.1528 -0.7907
12759TIP3   OH259691   0.214   6.328   2.139 -0.0012  0.0730 -0.3394
12759TIP3    H159692   0.263   6.274   2.076 -1.3210  0.3076 -1.6231
12759TIP3    H259693   0.278   6.352   2.205  0.9996 -1.7518 -0.5883
12760TIP3   OH259694   6.457   5.840   1.133 -0.2623  0.0015  0.1436
12760TIP3    H159695   6.423   5.887   1.058  1.2447  1.9608  0.6248
12760TIP3    H259696   6.472   5.751   1.100  0.4221  0.8155 -1.8813
12761TIP3   OH259697   2.390   4.656  14.052 -0.1419  0.1741 -0.0537
12761TIP3    H159698   2.295   4.653  14.053 -0.2100  1.5267 -0.3283
12761TIP3    H259699   2.417   4.568  14.026 -1.3516  0.0211 -0.8565
12762TIP3   OH259700   2.799   1.291   4.246 -0.2711 -0.1309  0.2034
12762TIP3    H159701   2.741   1.285   4.169  1.8807  1.0221 -1.6091
12762TIP3    H259702   2.795   1.203   4.286 -0.3807 -1.2209 -2.0515
12763TIP3   OH259703   2.210   4.104   0.779  0.1279  0.7896  0.7298
12763TIP3    H159704   2.252   4.029   0.821  0.8027  1.6533  1.6439
12763TIP3    H259705   2.117   4.090   0.793  0.3084  0.7162  1.9589
12764TIP3   OH259706   5.392   2.459   4.154  0.3947  0.0546 -0.3663
12764TIP3    H159707   5.405   2.381   4.099  2.3105 -0.6325  0.9214
12764TIP3    H259708   5.327   2.432   4.219 -1.0347  0.5010 -1.5629
12765TIP3   OH259709   4.207   0.826  13.416  0.3448  0.6237  0.0403
12765TIP3    H159710   4.220   0.752  13.356 -0.8021  0.2659  0.2159
12765TIP3    H259711   4.264   0.808  13.490 -0.4467 -0.4395  0.3960
12766TIP3   OH259712   0.265   5.615   5.134  0.3164  0.0067 -0.0752
12766TIP3    H159713   0.331   5.646   5.196 -0.8845  3.3225 -0.2336
12766TIP3    H259714   0.309   5.616   5.049  0.5138  0.7403  0.0281
12767TIP3   OH259715   2.524   4.445  13.929  0.0690  0.5436  0.6072
12767TIP3    H159716   2.617   4.445  13.906  0.7857  1.6384  3.1149
12767TIP3    H259717   2.487   4.373  13.879  2.1275  0.4383 -0.9168
12768TIP3   OH259718   3.055   2.650  16.360  0.2368 -0.1055  0.9623
12768TIP3    H159719   2.962   2.639  16.379  0.2112 -0.8227  0.4755
12768TIP3    H259720   3.061   2.737  16.320 -0.3455 -0.3585  0.3050
12769TIP3   OH259721   1.039   5.917  16.774  0.0382  0.4516 -0.0938
12769TIP3    H159722   1.086   5.968  16.840  0.2899 -1.1207  0.9876
12769TIP3    H259723   1.102   5.851  16.745  0.0316  1.2549 -2.1737
12770TIP3   OH259724   0.207   1.686  11.617  0.4229 -0.7629 -0.2454
12770TIP3    H159725   0.237   1.616  11.559  0.2273 -0.2945 -0.9123
12770TIP3    H259726   0.140   1.732  11.568  1.3651  0.6292 -0.2789
12771TIP3   OH259727   4.291   6.354   2.272 -0.4208  0.3448 -0.0159
12771TIP3    H159728   4.254   6.381   2.187  0.1491  0.9898 -0.0599
12771TIP3    H259729   4.292   6.258   2.267 -0.2312  0.3777 -0.8135
12772TIP3   OH259730   0.626   5.235   1.712 -0.0606  0.1144 -0.2922
12772TIP3    H159731   0.699   5.185   1.749 -1.7927 -0.9602  1.8223
12772TIP3    H259732   0.575   5.264   1.787 -2.1866  0.3114 -1.7184
12773TIP3   OH259733   3.018   2.483   5.648 -0.0465  0.5868 -0.6866
12773TIP3    H159734   3.053   2.558   5.599 -1.1862  0.4569 -1.7510
12773TIP3    H259735   2.925   2.504   5.660 -0.6097 -1.0627 -1.8341
12774TIP3   OH259736   4.786   3.235   2.598  0.3484 -0.1115 -0.1599
12774TIP3    H159737   4.831   3.289   2.662  0.2341  0.4643 -0.5611
12774TIP3    H259738   4.727   3.295   2.552  0.2689 -0.5553 -0.6579
12775TIP3   OH259739   6.349   0.905  14.739  0.2788  0.2017 -0.3117
12775TIP3    H159740   6.410   0.875  14.672 -0.3649  0.5439 -1.0752
12775TIP3    H259741   6.282   0.836  14.743 -0.4030  0.7985 -1.0028
12776TIP3   OH259742   4.423   3.613  14.351 -0.3929  0.1439  0.4689
12776TIP3    H159743   4.472   3.663  14.286 -1.0336  0.9308  0.5610
12776TIP3    H259744   4.484   3.547  14.383 -0.1777 -0.5324 -1.2125
12777TIP3   OH259745   1.132   4.959  14.097  0.3813 -0.2854  0.1313
12777TIP3    H159746   1.089   4.974  14.013  1.4358 -0.1377 -0.4075
12777TIP3    H259747   1.225   4.949  14.074  0.6912 -0.1674  1.2865
12778TIP3   OH259748   5.102   0.887   6.008 -0.0010  0.4046  0.5763
12778TIP3    H159749   5.103   0.982   6.020 -1.1128  0.4627  0.2634
12778TIP3    H259750   5.028   0.857   6.061  0.0746 -0.2355  0.3263
12779TIP3   OH259751   2.816   2.621  12.370  0.6408 -0.6244 -0.0141
12779TIP3    H159752   2.813   2.715  12.355 -1.2704 -0.5522  0.6574
12779TIP3    H259753   2.821   2.612  12.465  0.4944 -1.2151 -0.0598
12780TIP3   OH259754   4.522   6.432  14.822 -0.0050 -0.8834 -0.3501
12780TIP3    H159755   4.490   6.444  14.733  0.2696  0.7001 -0.2627
12780TIP3    H259756   4.579   6.507  14.837 -1.0969 -0.3833  1.6133
12781TIP3   OH259757   3.857   3.644   0.635 -0.1931  0.1373  0.9745
12781TIP3    H159758   3.841   3.683   0.549  1.1018 -0.5146  0.4156
12781TIP3    H259759   3.791   3.575   0.643 -3.4434  3.0576  2.5360
12782TIP3   OH259760   2.631   6.241  13.287 -0.0697 -0.3045 -0.1214
12782TIP3    H159761   2.719   6.257  13.252  0.8076  0.0192  2.0824
12782TIP3    H259762   2.599   6.327  13.314 -1.9508 -0.0952 -2.6757
12783TIP3   OH259763   5.953   1.447  12.553 -0.1598  0.7861 -0.0939
12783TIP3    H159764   5.889   1.403  12.610  0.0523 -0.7963 -1.0082
12783TIP3    H259765   5.924   1.538  12.550 -1.0456  0.5740  1.3251
12784TIP3   OH259766   4.340   2.465  15.042 -0.2754  0.3665 -0.1241
12784TIP3    H159767   4.415   2.427  14.995  0.2126  0.4397  0.5847
12784TIP3    H259768   4.270   2.401  15.032 -0.1739  0.3702 -0.9319
12785TIP3   OH259769   3.752   4.354   4.505 -0.6285 -0.5861  0.1887
12785TIP3    H159770   3.817   4.288   4.482 -0.6209 -0.0092 -1.6547
12785TIP3    H259771   3.803   4.434   4.521 -0.8446  0.0968 -2.1330
12786TIP3   OH259772   5.137   5.231  16.962  0.4132  0.3381 -0.3120
12786TIP3    H159773   5.226   5.232  16.926  0.5526  0.8472  0.0333
12786TIP3    H259774   5.129   5.145  17.004  0.3034 -0.1971 -1.4109
12787TIP3   OH259775   4.492   1.467   4.973 -0.2607 -0.4371  0.0749
12787TIP3    H159776   4.475   1.436   4.884 -0.7963 -1.2605  0.4505
12787TIP3    H259777   4.564   1.529   4.964  0.3743 -1.2831 -0.8112
12788TIP3   OH259778   4.661   0.921  12.683  0.6868  0.3107  0.9819
12788TIP3    H159779   4.631   0.954  12.768  1.8058  0.7091  1.2433
12788TIP3    H259780   4.692   0.999  12.637  0.1832  0.0829  0.2307
12789TIP3   OH259781   3.998   3.092  12.470 -0.1410 -0.1170  0.7269
12789TIP3    H159782   4.073   3.035  12.458 -0.5981 -0.4688 -0.6330
12789TIP3    H259783   3.954   3.059  12.547 -0.8667 -2.1816 -0.5009
12790TIP3   OH259784   4.824   5.636   0.245  0.0285 -0.3447 -0.4997
12790TIP3    H159785   4.820   5.588   0.328 -0.7345  0.2969 -0.1530
12790TIP3    H259786   4.830   5.728   0.271  1.8669 -0.2392 -1.1470
12791TIP3   OH259787   1.627   0.395  15.592 -0.2377 -0.2009  0.0502
12791TIP3    H159788   1.687   0.407  15.518 -0.1970 -0.2971  0.0671
12791TIP3    H259789   1.540   0.404  15.554 -0.2499 -1.2401 -0.2047
12792TIP3   OH259790   5.467   2.965   4.105  0.3013 -0.0385 -0.3882
12792TIP3    H159791   5.454   2.874   4.079  0.2826  0.0906 -0.8381
12792TIP3    H259792   5.561   2.981   4.091  0.3086  0.0070 -0.2903
12793TIP3   OH259793   0.613   4.523   0.445 -0.1497  0.3412 -0.0401
12793TIP3    H159794   0.672   4.593   0.471  2.7037 -1.8629 -0.0427
12793TIP3    H259795   0.641   4.447   0.496 -2.6571 -1.0132 -0.4731
12794TIP3   OH259796   6.202   5.468   4.437 -0.5129 -0.0183  0.5520
12794TIP3    H159797   6.181   5.516   4.517  1.6378  0.4041  0.9439
12794TIP3    H259798   6.235   5.383   4.468  1.6764  0.6654  0.2730
12795TIP3   OH259799   1.768   5.365   5.824 -0.1565  0.2656  0.3223
12795TIP3    H159800   1.770   5.459   5.807  0.3039  0.1863 -0.0760
12795TIP3    H259801   1.804   5.356   5.912 -2.6339  0.6844  1.4586
12796TIP3   OH259802   4.910   0.571  14.674 -0.6891  0.1560 -0.5796
12796TIP3    H159803   4.988   0.561  14.728  0.3462  2.6581 -1.4770
12796TIP3    H259804   4.926   0.650  14.622 -3.8139  0.7996 -0.8008
12797TIP3   OH259805   6.192   5.906  16.681  0.4769 -0.4480 -0.3319
12797TIP3    H159806   6.214   5.876  16.593 -0.0519  0.1428 -0.6728
12797TIP3    H259807   6.276   5.907  16.728  0.7342 -0.9354 -0.7715
12798TIP3   OH259808   6.693   6.372  11.189  0.4781 -0.0349 -0.1952
12798TIP3    H159809   6.752   6.332  11.253 -0.3008  1.3628  1.4838
12798TIP3    H259810   6.634   6.427  11.242  0.1566  1.6280 -2.1565
12799TIP3   OH259811   2.283   1.050  11.471  0.2176  0.1284 -0.4597
12799TIP3    H159812   2.264   1.090  11.556 -1.8292 -0.0792 -0.7684
12799TIP3    H259813   2.322   0.965  11.492 -0.0837  0.1688  0.2854
12800TIP3   OH259814   5.940   2.459  14.147 -0.0060 -0.0283 -0.2419
12800TIP3    H159815   5.923   2.464  14.241  0.3887  1.9915 -0.2256
12800TIP3    H259816   5.854   2.442  14.108 -0.3438  0.1192  0.4222
12801TIP3   OH259817   1.658   4.838  11.686 -0.1319  0.6134  0.6974
12801TIP3    H159818   1.586   4.873  11.633  0.3263  0.9674  0.3034
12801TIP3    H259819   1.656   4.743  11.670 -1.0842  0.4914  1.4109
12802TIP3   OH259820   0.818   1.688  12.652  0.0773  0.1963 -0.1417
12802TIP3    H159821   0.749   1.623  12.668  0.0959  0.1429 -0.2805
12802TIP3    H259822   0.865   1.694  12.735 -0.6452  0.8890  0.2266
12803TIP3   OH259823   4.934   5.170  14.646  0.1389 -0.1300  0.6178
12803TIP3    H159824   5.001   5.169  14.578  1.2753  0.8148  1.6763
12803TIP3    H259825   4.855   5.203  14.602  0.7064 -0.0139 -0.3405
12804TIP3   OH259826   0.649   6.058   4.959  0.5005 -0.4968 -0.0076
12804TIP3    H159827   0.730   6.010   4.940  0.8690 -0.3540  1.1047
12804TIP3    H259828   0.679   6.143   4.992 -0.1200 -0.1719 -0.2596
12805TIP3   OH259829   5.600   6.671  11.150  0.1456  0.4769  0.0143
12805TIP3    H159830   5.655   6.740  11.110  0.0856  1.0396  0.8898
12805TIP3    H259831   5.515   6.682  11.109  0.2719  0.5910 -0.2231
12806TIP3   OH259832   2.205   1.420   1.559  1.0284 -0.4544 -0.0490
12806TIP3    H159833   2.233   1.336   1.596 -1.3466 -1.5110 -0.5047
12806TIP3    H259834   2.140   1.452   1.621  0.5007  0.1050 -0.8919
12807TIP3   OH259835   3.324   2.078  12.627 -0.0745 -0.2863 -0.0680
12807TIP3    H159836   3.235   2.092  12.593  0.4922  0.7810 -1.1986
12807TIP3    H259837   3.327   2.131  12.707  0.0350  0.9861 -0.8946
12808TIP3   OH259838   3.921   3.319  13.826  0.5594  0.4101 -0.0180
12808TIP3    H159839   3.957   3.390  13.773  1.6492 -1.0228 -1.2834
12808TIP3    H259840   3.923   3.243  13.768  1.0613 -1.0517  1.8398
12809TIP3   OH259841   5.258   3.965  17.090  0.5239 -0.1554  0.3541
12809TIP3    H159842   5.351   3.981  17.106  0.6854 -0.1140 -0.5771
12809TIP3    H259843   5.248   3.871  17.102  0.2260  0.1030  2.6091
12810TIP3   OH259844   2.980   0.781   2.226 -0.2068 -0.1469 -0.0300
12810TIP3    H159845   2.918   0.721   2.184  0.7594  0.0121 -1.7459
12810TIP3    H259846   2.938   0.803   2.309 -1.6987 -1.3006 -0.4212
12811TIP3   OH259847   5.544   6.432  13.921  0.1735  0.4346 -0.0691
12811TIP3    H159848   5.616   6.369  13.928 -0.5492 -0.2981  1.1147
12811TIP3    H259849   5.492   6.401  13.847 -1.9334 -2.3501  2.3249
12812TIP3   OH259850   3.035   5.729  15.363  0.2175 -0.2089 -0.4741
12812TIP3    H159851   2.965   5.749  15.301  0.0699  0.5054 -0.0785
12812TIP3    H259852   3.004   5.763  15.446  0.8702 -0.2359 -0.2136
12813TIP3   OH259853   3.069   0.327   4.682 -0.0850 -0.0331  0.6743
12813TIP3    H159854   3.139   0.382   4.648  0.8570 -0.5479  1.7034
12813TIP3    H259855   3.072   0.248   4.628 -0.6402  0.4086 -0.0190
12814TIP3   OH259856   5.205   1.833   2.030  0.2671 -0.5993 -0.2691
12814TIP3    H159857   5.159   1.807   2.110  1.2714 -1.6229  0.0078
12814TIP3    H259858   5.135   1.861   1.970 -0.6060 -1.0032  0.5321
12815TIP3   OH259859   5.532   1.909  13.074 -0.0477  0.8587  0.2556
12815TIP3    H159860   5.602   1.901  13.009  1.7890  2.4328  1.8911
12815TIP3    H259861   5.502   2.000  13.065 -0.2222  0.8976  1.1470
12816TIP3   OH259862   5.212   6.647   1.706 -0.2271  0.1905 -0.4369
12816TIP3    H159863   5.117   6.651   1.696 -0.3209 -1.7130 -0.6704
12816TIP3    H259864   5.241   6.587   1.637  0.9314 -0.6463  0.7224
12817TIP3   OH259865   4.048   6.108   1.875 -0.1635 -0.0647 -0.0020
12817TIP3    H159866   3.998   6.027   1.871 -1.3260  0.4763  2.0128
12817TIP3    H259867   4.007   6.158   1.946  1.5754  1.5627 -0.0584
12818TIP3   OH259868   6.374   2.564   4.442  0.0942 -0.2289 -0.4828
12818TIP3    H159869   6.344   2.636   4.497 -0.3193 -0.8854  0.1744
12818TIP3    H259870   6.313   2.564   4.368  0.8390  0.8477 -1.1143
12819TIP3   OH259871   2.905   6.091   1.852  0.5071  0.3275  0.3130
12819TIP3    H159872   2.955   6.170   1.870  0.4887  0.2344  0.7905
12819TIP3    H259873   2.814   6.119   1.852  0.5171  0.3601  0.1935
12820TIP3   OH259874   3.416   6.677  16.619  0.2452 -0.1100  0.1481
12820TIP3    H159875   3.387   6.759  16.658 -1.2060 -0.1541 -0.7543
12820TIP3    H259876   3.447   6.625  16.693 -0.6333  0.5188  0.9885
12821TIP3   OH259877   3.127   1.428   3.128 -0.2963 -0.3533 -0.6432
12821TIP3    H159878   3.160   1.343   3.101 -4.1274 -1.8362 -1.2446
12821TIP3    H259879   3.078   1.460   3.052 -2.5595  0.2719  0.9720
12822TIP3   OH259880   2.417   2.713  10.649  0.9718  0.5924  0.3618
12822TIP3    H159881   2.416   2.729  10.555  1.1633  0.7552  0.3869
12822TIP3    H259882   2.479   2.777  10.684  0.7157  0.6971  0.6292
12823TIP3   OH259883   0.719   1.661   4.358  0.1180  0.0371  0.2365
12823TIP3    H159884   0.633   1.667   4.317 -0.5013 -2.0186  1.1304
12823TIP3    H259885   0.705   1.691   4.448  0.2502 -0.6461  0.4889
12824TIP3   OH259886   3.622   3.861  15.098 -0.4123  0.1773  0.0523
12824TIP3    H159887   3.663   3.776  15.086  1.1025  0.9940 -0.8458
12824TIP3    H259888   3.604   3.866  15.192  1.1588 -0.4015  0.4045
12825TIP3   OH259889   6.339   3.258  13.374  1.0173 -0.4690 -0.4251
12825TIP3    H159890   6.291   3.295  13.448 -1.6056 -1.6929 -1.4278
12825TIP3    H259891   6.414   3.214  13.415  0.7047  0.4929  1.3101
12826TIP3   OH259892   0.658   0.516  13.461  0.2164 -0.3014  0.0430
12826TIP3    H159893   0.715   0.592  13.458 -0.3374  0.1022 -0.4597
12826TIP3    H259894   0.705   0.448  13.412  0.3773 -0.0400 -0.1671
12827TIP3   OH259895   5.776   3.076  11.067 -0.6290  0.1839  0.4650
12827TIP3    H159896   5.836   3.008  11.038 -0.1721  0.8245 -0.1005
12827TIP3    H259897   5.815   3.158  11.037 -1.5306  0.6480  0.5152
12828TIP3   OH259898   3.121   1.182  11.645  0.7309 -0.2011  0.0512
12828TIP3    H159899   3.096   1.107  11.592  1.4052 -0.8244  0.5967
12828TIP3    H259900   3.081   1.165  11.731  3.3464 -1.4937  1.1153
12829TIP3   OH259901   4.209   0.374  12.276 -0.0954  0.1659 -0.2585
12829TIP3    H159902   4.198   0.279  12.278  0.5291  0.0340 -1.5722
12829TIP3    H259903   4.129   0.409  12.315 -0.0049 -0.8972  0.9343
12830TIP3   OH259904   4.967   0.914   5.302  0.1378 -0.1551  0.0933
12830TIP3    H159905   4.921   0.950   5.226  1.2242 -3.1534 -2.2089
12830TIP3    H259906   4.972   0.820   5.285  3.7808 -0.5072  1.9646
12831TIP3   OH259907   2.631   0.433  13.855 -0.9173  0.1454  0.0198
12831TIP3    H159908   2.700   0.373  13.882 -1.9957 -1.9502 -1.5723
12831TIP3    H259909   2.652   0.515  13.900  2.5977 -0.3418 -0.4282
12832TIP3   OH259910   0.221   4.085   2.963  0.0655 -0.0231  0.2219
12832TIP3    H159911   0.176   4.034   2.895  0.8385 -0.6246  0.1393
12832TIP3    H259912   0.158   4.089   3.035 -1.2524  1.6671 -0.9430
12833TIP3   OH259913   1.541   0.201   3.561  0.3466  0.3448 -0.2845
12833TIP3    H159914   1.503   0.113   3.552 -1.5530  1.2517 -2.0738
12833TIP3    H259915   1.501   0.236   3.640 -1.2631  0.5996 -1.1485
12834TIP3   OH259916   0.666   1.190  12.704  0.0741  0.0672  0.2198
12834TIP3    H159917   0.654   1.234  12.620 -0.5598  1.1493  0.8590
12834TIP3    H259918   0.589   1.134  12.712 -0.7993  1.3088  0.8649
12835TIP3   OH259919   3.435   1.253  11.445  0.3264  0.0292 -0.2457
12835TIP3    H159920   3.517   1.204  11.443  0.8129  0.8344 -0.6997
12835TIP3    H259921   3.388   1.224  11.367  0.7472  0.4817 -0.6802
12836TIP3   OH259922   2.799   5.245  13.099 -0.0723  0.6130  0.4040
12836TIP3    H159923   2.812   5.308  13.029  1.9825 -1.7433 -1.5242
12836TIP3    H259924   2.724   5.193  13.071  1.6622 -1.2999 -0.9654
12837TIP3   OH259925   0.166   1.869  13.941  0.7787 -0.4375 -0.0139
12837TIP3    H159926   0.156   1.939  14.006  2.1697  1.1396 -1.4296
12837TIP3    H259927   0.078   1.832  13.933  0.1882  0.5689  1.3828
12838TIP3   OH259928   4.334   4.683   1.833  0.6228 -0.1624  0.3015
12838TIP3    H159929   4.365   4.699   1.744  2.9128 -0.8293  0.9210
12838TIP3    H259930   4.357   4.592   1.850 -0.0228 -0.1211  1.5196
12839TIP3   OH259931   6.697   1.623   5.644  0.2672 -0.0393 -0.1484
12839TIP3    H159932   6.682   1.717   5.636  0.5450  0.1462  1.3457
12839TIP3    H259933   6.707   1.593   5.553 -2.7100  0.8591 -0.8958
12840TIP3   OH259934   4.219   4.184   3.234 -0.2759  0.1978 -0.2593
12840TIP3    H159935   4.234   4.278   3.246 -1.1815  0.3395 -0.1049
12840TIP3    H259936   4.306   4.145   3.233  0.1266  1.0847 -0.7058
12841TIP3   OH259937   1.385   6.178  15.538 -0.2363 -0.8393  0.3797
12841TIP3    H159938   1.479   6.169  15.553 -0.2264  0.8799  1.6572
12841TIP3    H259939   1.359   6.251  15.594 -2.3054 -1.1472 -0.1066
12842TIP3   OH259940   1.184   4.007   1.693 -0.1266  0.1216 -0.2346
12842TIP3    H159941   1.227   3.964   1.619  0.0764 -0.1425  0.0359
12842TIP3    H259942   1.204   3.952   1.768  0.1953  0.7298  0.1319
12843TIP3   OH259943   5.952   0.806   2.170 -0.1131  1.2014 -0.5627
12843TIP3    H159944   5.868   0.772   2.138  0.2650 -0.4581  0.1160
12843TIP3    H259945   5.972   0.752   2.246  1.2767  1.9954 -0.3416
12844TIP3   OH259946   6.616   1.375  14.887  0.0755 -0.1431  0.0064
12844TIP3    H159947   6.586   1.310  14.824 -0.9448 -0.0132  0.3318
12844TIP3    H259948   6.659   1.442  14.835 -2.4277  0.9399 -0.8535
12845TIP3   OH259949   5.353   5.852   2.330  0.4318 -0.4712  0.8057
12845TIP3    H159950   5.274   5.817   2.289 -0.9287  1.0701  1.9843
12845TIP3    H259951   5.362   5.940   2.293  1.0962 -0.3175  1.3149
12846TIP3   OH259952   3.822   0.842   0.150  0.7071 -0.8385 -0.2756
12846TIP3    H159953   3.891   0.892   0.194  0.3222 -1.1459  0.6978
12846TIP3    H259954   3.805   0.892   0.069  0.3583  0.6004  0.6476
12847TIP3   OH259955   5.077   6.480   0.054 -0.3482  0.4916  0.4731
12847TIP3    H159956   5.131   6.521  -0.013  2.7296 -1.3352  1.6562
12847TIP3    H259957   5.035   6.406   0.009 -0.6991  1.0295 -0.1014
12848TIP3   OH259958   5.007   1.132   2.319  0.0344  0.4979 -0.4142
12848TIP3    H159959   4.914   1.145   2.298 -0.2095 -1.7182 -1.0047
12848TIP3    H259960   5.006   1.063   2.386  1.2844 -2.5764 -3.2929
12849TIP3   OH259961   5.640   3.018  16.242 -0.3744 -0.0969  0.3979
12849TIP3    H159962   5.705   2.960  16.282  0.1799  0.4403  0.2841
12849TIP3    H259963   5.559   3.000  16.290  0.1742  0.2049  1.4641
12850TIP3   OH259964   4.795   1.619   4.114 -0.0320 -0.2214 -0.0648
12850TIP3    H159965   4.875   1.579   4.148 -0.7476 -1.2209  0.5031
12850TIP3    H259966   4.734   1.617   4.188 -0.7106  0.1512 -0.6031
12851TIP3   OH259967   3.903   4.122  14.630 -0.3402  0.1600  0.2227
12851TIP3    H159968   3.850   4.119  14.710 -2.0814 -1.4078 -0.9209
12851TIP3    H259969   3.992   4.136  14.662 -1.2400  1.8149  2.2908
12852TIP3   OH259970   4.084   2.110   4.716 -0.0549 -0.3885 -0.0391
12852TIP3    H159971   4.103   2.200   4.742 -0.1278  0.2658 -2.0563
12852TIP3    H259972   3.997   2.093   4.751  0.1994  0.0984  0.8706
12853TIP3   OH259973   3.859   4.607   4.532  0.8876 -0.1348  0.1407
12853TIP3    H159974   3.774   4.640   4.502  0.2795 -0.6337  1.2600
12853TIP3    H259975   3.888   4.672   4.597  1.7168  0.4105 -0.7486
12854TIP3   OH259976   1.279   4.917  14.867  0.2913  0.2082  0.4049
12854TIP3    H159977   1.225   4.931  14.789  0.2215  0.7496  0.5504
12854TIP3    H259978   1.363   4.958  14.845  0.1706  0.6370  0.7303
12855TIP3   OH259979   5.690   5.474   0.653  0.3811 -0.0179  0.7070
12855TIP3    H159980   5.621   5.427   0.607  0.5691 -0.0427  0.4478
12855TIP3    H259981   5.771   5.445   0.612  0.4991  0.5369  0.5393
12856TIP3   OH259982   2.840   2.311   5.905 -0.1343  0.1176 -0.6015
12856TIP3    H159983   2.797   2.311   5.819  0.9768 -0.5992 -1.1961
12856TIP3    H259984   2.876   2.222   5.913  0.7174  0.5127  0.1042
12857TIP3   OH259985   0.082   1.468  12.535 -0.3138  0.6865 -0.3743
12857TIP3    H159986   0.007   1.489  12.479  0.0459 -0.9001 -1.5252
12857TIP3    H259987   0.157   1.470  12.476  0.3516  0.8253  0.4589
12858TIP3   OH259988   5.534   6.497  13.603  0.4421  0.0660  0.4436
12858TIP3    H159989   5.476   6.534  13.536  1.5298  0.7853 -0.1393
12858TIP3    H259990   5.483   6.428  13.644 -0.5209  0.1161 -0.6289
12859TIP3   OH259991   2.080   5.899   3.549 -0.8255  0.4641  0.1652
12859TIP3    H159992   2.097   5.906   3.643 -0.3073  2.4318 -0.0440
12859TIP3    H259993   2.161   5.863   3.513 -0.0258  2.1653  0.1834
12860TIP3   OH259994   4.805   1.170  13.176  0.0627  0.1968  0.0523
12860TIP3    H159995   4.829   1.243  13.119 -0.1375  0.0819 -0.1823
12860TIP3    H259996   4.715   1.189  13.202 -0.5004 -0.7050 -1.1869
12861TIP3   OH259997   2.771   6.161   3.201 -0.0619 -0.5011  0.3412
12861TIP3    H159998   2.797   6.080   3.246 -1.5369 -0.4401  1.3816
12861TIP3    H259999   2.763   6.225   3.271  0.7263  0.4677 -0.4361
12862TIP3   OH260000   2.667   0.982   0.391 -0.3505  0.3903  0.3058
12862TIP3    H160001   2.653   0.909   0.451  0.6964  0.9776  1.2932
12862TIP3    H260002   2.661   0.943   0.304 -2.4573 -0.3774  0.7325
12863TIP3   OH260003   2.364   3.348   1.887 -0.1731  0.4471  0.0551
12863TIP3    H160004   2.435   3.308   1.837 -0.2750 -0.2413  0.4565
12863TIP3    H260005   2.296   3.365   1.822 -0.7491 -1.4446  0.0965
12864TIP3   OH260006   1.295   0.851  12.085  0.6959  0.6165  0.1340
12864TIP3    H160007   1.308   0.817  11.997  0.7268 -1.5822  0.9252
12864TIP3    H260008   1.220   0.909  12.077  1.8205  1.9087 -1.6546
12865TIP3   OH260009   4.623   2.462  12.990 -0.2252  0.0752 -0.3970
12865TIP3    H160010   4.545   2.409  13.009  1.9491 -2.7276  1.5526
12865TIP3    H260011   4.635   2.455  12.896 -1.2865 -1.0415 -0.4678
12866TIP3   OH260012   5.825   4.497  16.440  0.2787  0.0852  0.2159
12866TIP3    H160013   5.872   4.443  16.502 -0.7546 -0.9769  0.1062
12866TIP3    H260014   5.759   4.542  16.493 -0.2831 -0.4482 -0.0169
12867TIP3   OH260015   5.331   5.112  14.712  0.6305  0.2997  0.3804
12867TIP3    H160016   5.316   5.135  14.803  1.6045 -1.0322  0.9028
12867TIP3    H260017   5.349   5.018  14.713  2.7061  0.6180 -0.9134
12868TIP3   OH260018   1.887   5.787  14.542 -0.2314 -0.2473 -0.0994
12868TIP3    H160019   1.982   5.795  14.533 -0.1216  0.2158  1.2051
12868TIP3    H260020   1.857   5.754  14.457  1.1389 -0.7992 -0.3952
12869TIP3   OH260021   0.660   1.362  13.961  0.8556  0.4903 -0.0648
12869TIP3    H160022   0.650   1.457  13.965 -2.1750  0.3748 -1.7317
12869TIP3    H260023   0.665   1.342  13.867  1.2265 -1.0128  0.2503
12870TIP3   OH260024   3.552   2.245   6.816  0.8117 -0.5692 -0.0537
12870TIP3    H160025   3.531   2.335   6.792 -2.5044 -1.6660 -2.0524
12870TIP3    H260026   3.621   2.219   6.755  1.3843  0.4387  0.1529
12871TIP3   OH260027   5.370   5.301  11.158  0.0897  0.9602 -0.3213
12871TIP3    H160028   5.304   5.311  11.227 -1.0039 -1.1896 -0.9579
12871TIP3    H260029   5.450   5.279  11.205 -0.2464  1.1669  0.3627
12872TIP3   OH260030   2.072   5.282   0.541  0.3657 -0.1160 -0.0340
12872TIP3    H160031   2.129   5.244   0.474 -0.7067 -1.6255 -0.1058
12872TIP3    H260032   2.039   5.208   0.590  0.7173  0.9243  1.8903
12873TIP3   OH260033   4.517   2.673   0.038  0.4737  0.2575  0.1881
12873TIP3    H160034   4.537   2.688  -0.054  1.3693  1.3188  0.5353
12873TIP3    H260035   4.485   2.583   0.041  4.5376 -1.4437 -0.5818
12874TIP3   OH260036   1.786   4.121  13.768  0.1449  0.2510  0.2160
12874TIP3    H160037   1.858   4.177  13.742  0.0767 -1.0227 -3.1832
12874TIP3    H260038   1.827   4.050  13.817  1.3382 -0.6274 -1.9429
12875TIP3   OH260039   5.704   5.939   0.208 -0.6124  0.7212  0.3887
12875TIP3    H160040   5.706   5.916   0.115  1.3226  0.5722  0.4212
12875TIP3    H260041   5.663   5.864   0.250  0.2804 -0.1033 -0.1532
12876TIP3   OH260042   0.462   0.587   0.776  0.0642 -0.2813  0.5278
12876TIP3    H160043   0.380   0.608   0.730  1.0206  3.1182  0.1035
12876TIP3    H260044   0.446   0.615   0.866 -0.0459 -2.0730  1.1026
12877TIP3   OH260045   6.540   3.337  14.691  0.0712  0.1739  0.2249
12877TIP3    H160046   6.567   3.247  14.711 -1.2505 -0.0411  1.1633
12877TIP3    H260047   6.622   3.384  14.677  0.9688 -0.5175  2.6690
12878TIP3   OH260048   2.337   4.952   4.996 -0.5162 -0.1164  0.3127
12878TIP3    H160049   2.378   4.876   4.955  2.9960  1.6258  0.1704
12878TIP3    H260050   2.275   4.984   4.931  0.8649 -0.6344 -1.3532
12879TIP3   OH260051   1.371   3.210  15.142  0.4774  0.2891  0.3215
12879TIP3    H160052   1.416   3.128  15.124 -1.3416 -0.6620 -0.1088
12879TIP3    H260053   1.419   3.276  15.091  1.0067 -0.7676 -0.5744
12880TIP3   OH260054   6.414   5.870   4.331 -0.0853 -0.5979  0.4823
12880TIP3    H160055   6.364   5.869   4.249 -1.1543  0.0204  1.1029
12880TIP3    H260056   6.353   5.903   4.396  1.5722  1.7819  0.9746
12881TIP3   OH260057   3.754   1.974  11.982  0.1472  0.2784  0.4288
12881TIP3    H160058   3.702   1.941  12.056 -0.9864 -0.1931 -0.5534
12881TIP3    H260059   3.738   2.069  11.982  1.2434  0.4988  1.5894
12882TIP3   OH260060   4.011   4.709   4.143 -0.2720 -0.0792 -0.3940
12882TIP3    H160061   3.921   4.677   4.154 -0.7968  1.0017 -1.3324
12882TIP3    H260062   4.008   4.763   4.064  1.7133 -1.7493 -1.7007
12883TIP3   OH260063   0.336   5.510   5.966 -0.3917 -0.1713  0.1244
12883TIP3    H160064   0.383   5.561   6.033 -0.8476 -0.0159  0.3306
12883TIP3    H260065   0.389   5.431   5.955 -0.4699 -0.3403  0.8898
12884TIP3   OH260066   5.473   0.676  12.758 -0.2327 -0.2861  1.0670
12884TIP3    H160067   5.494   0.724  12.678  1.6258 -0.8033  1.1910
12884TIP3    H260068   5.508   0.730  12.828 -1.1921 -0.1957  1.4904
12885TIP3   OH260069   0.743   3.950   3.650 -0.2618 -0.7401 -0.3311
12885TIP3    H160070   0.685   4.015   3.691 -2.9730 -1.1972 -3.0774
12885TIP3    H260071   0.716   3.867   3.688 -1.2589 -0.9207 -1.4004
12886TIP3   OH260072   2.204   4.309  13.437 -0.2270  0.0654  0.1509
12886TIP3    H160073   2.240   4.340  13.354 -0.1790  2.3451  0.9283
12886TIP3    H260074   2.189   4.389  13.487 -1.9020 -1.1246  1.6856
12887TIP3   OH260075   6.717   2.968   1.630  0.1434  0.5239 -0.3600
12887TIP3    H160076   6.693   2.984   1.721  1.5808 -0.3447  0.2127
12887TIP3    H260077   6.813   2.961   1.632  0.1545 -0.0361 -1.8558
12888TIP3   OH260078   1.690   5.272   2.634  0.9746 -0.2622  0.2012
12888TIP3    H160079   1.615   5.219   2.663  2.4207 -2.0756  0.8840
12888TIP3    H260080   1.667   5.361   2.659 -2.0122 -0.2947 -1.8747
12889TIP3   OH260081   1.324   6.050  11.138  0.3530  0.2417 -0.1677
12889TIP3    H160082   1.389   6.083  11.200  1.1784 -1.9556  0.2055
12889TIP3    H260083   1.240   6.063  11.182  0.8659 -0.5517  1.0818
12890TIP3   OH260084   3.002   6.080  14.609 -0.8129  0.1122 -0.1454
12890TIP3    H160085   3.065   6.152  14.616 -0.4859 -0.1392 -0.4374
12890TIP3    H260086   2.919   6.123  14.589 -0.6472  0.4185 -0.1871
12891TIP3   OH260087   6.053   3.271   4.825  0.1154  0.1400 -0.1237
12891TIP3    H160088   5.985   3.232   4.770 -0.1593  0.2719  0.1216
12891TIP3    H260089   6.040   3.365   4.816  2.0189  0.2715 -2.3049
12892TIP3   OH260090   1.035   1.283   5.570 -0.3205  0.7813  0.2455
12892TIP3    H160091   0.958   1.318   5.616 -0.6041  1.7588 -0.9465
12892TIP3    H260092   1.103   1.282   5.637 -0.8655  1.6828  0.8466
12893TIP3   OH260093   6.628   2.048  12.058 -0.2093 -0.2514  0.1222
12893TIP3    H160094   6.551   2.062  12.003  0.0906 -0.6880 -0.4254
12893TIP3    H260095   6.632   1.953  12.068 -0.5452 -0.1506  1.3253
12894TIP3   OH260096   3.996   4.452   0.263 -0.1982  0.2292 -0.7348
12894TIP3    H160097   4.080   4.419   0.229 -0.0878  0.9175 -1.1428
12894TIP3    H260098   4.010   4.458   0.357  0.5469  1.2210 -0.8840
12895TIP3   OH260099   0.845   2.912  15.547  0.5714  0.0407 -0.7374
12895TIP3    H160100   0.778   2.972  15.579 -0.1992 -0.7785 -0.7837
12895TIP3    H260101   0.922   2.930  15.601  0.3069  0.9413 -0.6392
12896TIP3   OH260102   0.815   4.014   3.406  0.5576  0.7439 -0.6141
12896TIP3    H160103   0.766   4.016   3.488  0.9701  2.3587 -0.3729
12896TIP3    H260104   0.748   4.023   3.338  0.2775  0.1397 -0.4174
12897TIP3   OH260105   1.448   4.912  13.062  0.1711  0.0339  0.0809
12897TIP3    H160106   1.450   5.004  13.087 -3.2791  0.0820  0.6877
12897TIP3    H260107   1.427   4.865  13.143  0.5921 -1.1319 -0.4605
12898TIP3   OH260108   5.568   1.092  14.565  0.6708 -0.0962  0.0749
12898TIP3    H160109   5.490   1.053  14.527 -0.4730  0.7812  1.4312
12898TIP3    H260110   5.578   1.050  14.650 -0.6586  2.4827  1.6209
12899TIP3   OH260111   1.515   2.030   3.817 -0.5178 -0.5123 -0.1681
12899TIP3    H160112   1.591   2.052   3.763 -1.7552  0.2092 -1.7162
12899TIP3    H260113   1.552   2.008   3.903  1.4528 -0.6312 -0.9764
12900TIP3   OH260114   4.487   1.719   3.584 -0.4287  0.3319  0.4448
12900TIP3    H160115   4.430   1.771   3.526 -1.3911 -2.1731 -1.0554
12900TIP3    H260116   4.435   1.708   3.664 -1.0247  0.1550  0.0473
12901TIP3   OH260117   2.118   5.491  12.343  0.1537 -0.8078 -0.8401
12901TIP3    H160118   2.183   5.540  12.292  0.0363  1.3098  0.8426
12901TIP3    H260119   2.169   5.451  12.414 -0.1212 -0.6178 -0.5279
12902TIP3   OH260120   6.525   1.927  16.767  0.3580  0.1995  0.4022
12902TIP3    H160121   6.619   1.919  16.778  0.7241  0.1454 -2.0613
12902TIP3    H260122   6.494   1.837  16.758  0.3925  0.2879 -0.7193
12903TIP3   OH260123   2.161   2.014   4.203  0.3660 -0.4499 -0.2860
12903TIP3    H160124   2.085   1.964   4.234  1.3570 -1.0473  1.3493
12903TIP3    H260125   2.142   2.105   4.228  0.6981 -0.7781  1.2586
12904TIP3   OH260126   4.241   2.726  15.149  0.0309 -0.2100 -0.2422
12904TIP3    H160127   4.157   2.683  15.134  1.2122 -1.9794 -2.2964
12904TIP3    H260128   4.306   2.664  15.117  2.0875  1.5369  0.3323
12905TIP3   OH260129   3.049   3.802  13.941  0.3351 -0.0782 -0.0561
12905TIP3    H160130   3.035   3.837  13.854 -1.1479 -0.6236 -0.0648
12905TIP3    H260131   3.058   3.879  13.997  1.8680  0.2800 -0.7380
12906TIP3   OH260132   5.504   3.113   3.564 -0.4093  0.4738 -0.7599
12906TIP3    H160133   5.436   3.141   3.504 -0.1051 -1.5474 -2.1624
12906TIP3    H260134   5.492   3.018   3.572  0.7485  0.4154  0.8860
12907TIP3   OH260135   1.047   5.598   2.522 -0.2017 -0.2112  0.2152
12907TIP3    H160136   1.127   5.645   2.499 -0.0344 -0.6088 -0.0281
12907TIP3    H260137   1.045   5.599   2.618 -1.1834  1.9229  0.2243
12908TIP3   OH260138   4.671   4.698  11.921 -0.2876  0.1602  0.1593
12908TIP3    H160139   4.708   4.771  11.970  1.5200 -0.9183  0.5018
12908TIP3    H260140   4.701   4.711  11.831 -0.0314 -0.0992  0.2041
12909TIP3   OH260141   5.107   6.290  11.701 -0.8675 -0.4653 -0.5672
12909TIP3    H160142   5.123   6.234  11.777  3.4843  0.8578 -0.2714
12909TIP3    H260143   5.050   6.238  11.645 -1.0079 -3.1209  1.7927
12910TIP3   OH260144   2.090   3.548  13.480  0.0128  0.0420 -0.8965
12910TIP3    H160145   2.041   3.535  13.561  1.4486 -1.5377 -0.2350
12910TIP3    H260146   2.169   3.595  13.507 -0.4809  1.4445 -1.7549
12911TIP3   OH260147   2.337   0.353   6.461  0.1755 -0.1134  0.2354
12911TIP3    H160148   2.291   0.373   6.379  0.8854  1.0615  0.1003
12911TIP3    H260149   2.297   0.411   6.526  0.7138  0.1446  0.3473
12912TIP3   OH260150   3.911   6.582   3.635  0.5720  0.0514  0.5643
12912TIP3    H160151   3.895   6.514   3.569  1.5376  0.3396  0.0112
12912TIP3    H260152   3.844   6.567   3.702  0.5846 -1.2673  0.3113
12913TIP3   OH260153   3.008   3.612   2.153  0.2291  0.0509 -0.0052
12913TIP3    H160154   2.955   3.533   2.142 -0.0198  0.3144 -0.7651
12913TIP3    H260155   3.075   3.605   2.086  0.4522  0.2934  0.1904
12914TIP3   OH260156   2.791   1.789  13.578  0.2894  0.5241 -0.3507
12914TIP3    H160157   2.857   1.780  13.647  1.2378 -2.0420 -1.4485
12914TIP3    H260158   2.802   1.878  13.545  1.9382  0.7746  0.7474
12915TIP3   OH260159   1.939   5.549   5.145 -0.0086  0.0563  0.3294
12915TIP3    H160160   1.952   5.456   5.167 -1.0167 -0.2885 -0.5075
12915TIP3    H260161   2.010   5.569   5.084  1.1859  0.2984  1.7249
12916TIP3   OH260162   6.052   5.791  13.837  0.2436  0.1945 -0.2435
12916TIP3    H160163   6.146   5.790  13.819 -0.0245 -0.5201 -1.7418
12916TIP3    H260164   6.023   5.701  13.822 -0.7995  0.5582 -0.5154
12917TIP3   OH260165   1.419   0.593  14.912  0.2011 -0.7437 -0.4686
12917TIP3    H160166   1.471   0.586  14.992 -0.6484 -1.2452  0.0501
12917TIP3    H260167   1.357   0.520  14.917 -2.0887  1.1306  0.0653
12918TIP3   OH260168   2.648   6.505  13.806  0.5283  0.4293 -0.8990
12918TIP3    H160169   2.579   6.564  13.773  0.7386 -0.3921 -2.9291
12918TIP3    H260170   2.601   6.440  13.857  0.0374  1.0216 -0.5766
12919TIP3   OH260171   0.630   1.000   0.468  0.1604 -0.2070 -0.6853
12919TIP3    H160172   0.705   0.987   0.409 -0.0310 -0.7061 -0.8215
12919TIP3    H260173   0.637   1.092   0.495  1.7154 -0.6419  0.5093
12920TIP3   OH260174   6.642   1.083   2.688 -0.2842 -0.4757  0.4203
12920TIP3    H160175   6.719   1.027   2.701  0.4797  0.4116 -0.2073
12920TIP3    H260176   6.677   1.171   2.678 -1.2811 -0.2283 -1.2285
12921TIP3   OH260177   2.059   0.266   5.543  0.3464  0.1683 -0.2239
12921TIP3    H160178   2.145   0.223   5.548  0.2003 -0.1637 -0.5476
12921TIP3    H260179   2.008   0.224   5.612  0.4502  0.3871 -0.0110
12922TIP3   OH260180   5.052   4.823  17.024 -0.0722 -0.1187  0.7651
12922TIP3    H160181   5.108   4.834  17.102  0.3333  0.6275  0.3837
12922TIP3    H260182   4.964   4.816  17.059  0.1073  0.2148  1.3010
12923TIP3   OH260183   5.172   6.287  16.263  0.4979  0.3090  0.3775
12923TIP3    H160184   5.179   6.288  16.167 -0.4147  2.0564  0.2908
12923TIP3    H260185   5.117   6.211  16.282  0.5870  0.0115 -0.4862
12924TIP3   OH260186   0.236   0.843  14.522 -0.1444  0.2442 -0.0713
12924TIP3    H160187   0.148   0.876  14.538  0.2129  1.5151 -0.5972
12924TIP3    H260188   0.264   0.807  14.607 -0.6528  1.0871  0.4695
12925TIP3   OH260189   2.455   3.225  15.074  0.2602  0.6614  0.9128
12925TIP3    H160190   2.428   3.284  15.143  0.3325 -0.0107  1.5310
12925TIP3    H260191   2.386   3.159  15.069  0.3675  0.5693  0.5077
12926TIP3   OH260192   0.368   1.685   3.608  0.0681 -0.2637  0.2240
12926TIP3    H160193   0.374   1.779   3.627  1.4641 -0.4462  0.7680
12926TIP3    H260194   0.276   1.663   3.626 -0.0989  0.8345  0.8049
12927TIP3   OH260195   3.607   4.545  14.228 -0.3923 -0.1131  0.4769
12927TIP3    H160196   3.576   4.551  14.137 -0.3931  1.4017  0.5595
12927TIP3    H260197   3.701   4.564  14.223 -0.5584  0.8838  0.8822
12928TIP3   OH260198   3.799   0.757  15.505 -0.3491 -0.0740  0.3921
12928TIP3    H160199   3.749   0.835  15.485 -0.0650  0.2600  0.9476
12928TIP3    H260200   3.841   0.733  15.423  0.0468  0.7131  0.3591
12929TIP3   OH260201   2.767   2.707   0.227  0.0436 -0.0509 -0.3870
12929TIP3    H160202   2.721   2.685   0.307 -0.4669 -0.8512 -0.8840
12929TIP3    H260203   2.848   2.656   0.230 -0.5192 -0.9981 -0.9142
12930TIP3   OH260204   6.737   1.986  10.992  0.2828 -0.3588  0.1673
12930TIP3    H160205   6.779   2.064  11.028 -1.2394  0.8332 -0.5155
12930TIP3    H260206   6.799   1.953  10.927  1.3485 -0.3029  1.1116
12931TIP3   OH260207   6.303   6.133  14.481  0.5703  0.6042 -0.1957
12931TIP3    H160208   6.281   6.215  14.525 -2.0714  0.8161 -1.6739
12931TIP3    H260209   6.264   6.065  14.536 -0.9256  0.7153 -1.0661
12932TIP3   OH260210   5.451   2.932   5.798 -0.4820 -0.0878  0.1630
12932TIP3    H160211   5.417   2.843   5.798  0.6370 -0.5422 -0.8349
12932TIP3    H260212   5.546   2.922   5.810 -0.2254  0.8790 -0.8276
12933TIP3   OH260213   4.455   3.757  14.609  0.2060  0.1123 -0.2783
12933TIP3    H160214   4.421   3.797  14.529  0.0896  1.9333  0.6300
12933TIP3    H260215   4.443   3.824  14.677 -0.3737 -1.6472  1.4410
12934TIP3   OH260216   1.349   2.262  15.330 -0.3906  0.0183 -0.2136
12934TIP3    H160217   1.293   2.188  15.355 -1.6500  0.8139 -0.5733
12934TIP3    H260218   1.350   2.260  15.235  0.7674 -0.3795 -0.2049
12935TIP3   OH260219   6.334   0.875   3.877  0.4838 -0.8226 -0.0003
12935TIP3    H160220   6.240   0.863   3.881  0.3898 -0.0646  0.3983
12935TIP3    H260221   6.355   0.928   3.955  1.2633 -1.1617  0.0347
12936TIP3   OH260222   2.356   3.491   4.370 -0.1680  0.1428 -0.3488
12936TIP3    H160223   2.356   3.426   4.441 -0.1860 -0.3171 -0.7631
12936TIP3    H260224   2.326   3.571   4.411 -0.2571 -0.1406  0.1488
12937TIP3   OH260225   5.878   0.057   2.342 -0.2378 -0.0964 -0.2697
12937TIP3    H160226   5.878  -0.037   2.362 -1.0222 -0.0970 -0.2477
12937TIP3    H260227   5.934   0.096   2.409 -1.4579 -0.3140  0.9194
12938TIP3   OH260228   1.219   2.690  11.766 -0.1562  0.0719 -0.0954
12938TIP3    H160229   1.124   2.696  11.773 -0.3091 -1.8478 -0.0073
12938TIP3    H260230   1.237   2.596  11.759  1.7671  0.3573  0.3434
12939TIP3   OH260231   3.504   6.571  10.902  0.3899  0.4012 -0.0517
12939TIP3    H160232   3.571   6.503  10.913  1.2366  1.1023 -0.7852
12939TIP3    H260233   3.447   6.537  10.832 -1.0661 -0.9676  1.6795
12940TIP3   OH260234   5.392   4.453   4.647 -0.3308 -0.6020  0.1630
12940TIP3    H160235   5.308   4.416   4.674 -2.0076  1.5773 -1.7201
12940TIP3    H260236   5.427   4.494   4.726 -1.1457 -1.2906  0.8938
12941TIP3   OH260237   3.429   1.862  16.689  0.2118  0.3430 -0.0702
12941TIP3    H160238   3.343   1.895  16.663 -0.1626  0.8773  1.7224
12941TIP3    H260239   3.488   1.935  16.673 -0.1031  0.8536  0.9920
12942TIP3   OH260240   3.618   2.446  14.643  0.0678 -0.8160  0.2578
12942TIP3    H160241   3.636   2.352  14.651 -2.0623 -1.3099 -0.0766
12942TIP3    H260242   3.554   2.452  14.571  1.0772  1.0341 -0.5615
12943TIP3   OH260243   2.247   3.192  11.916  0.3383  0.0401 -0.1627
12943TIP3    H160244   2.205   3.277  11.905  1.1820  0.3299 -1.2418
12943TIP3    H260245   2.331   3.212  11.956 -0.4888 -0.5410  2.0255
12944TIP3   OH260246   0.426   5.040  12.661 -0.1798  0.6606 -0.0474
12944TIP3    H160247   0.468   5.042  12.747  1.6508  0.4566 -0.8964
12944TIP3    H260248   0.488   5.083  12.602  0.2318 -2.1596 -1.8958
12945TIP3   OH260249   5.951   2.618  14.913  0.1782 -0.3251  0.3100
12945TIP3    H160250   5.943   2.664  14.997  0.7544  1.2514 -0.4485
12945TIP3    H260251   5.904   2.673  14.851  0.9590 -0.7161 -0.6584
12946TIP3   OH260252   1.918   5.513  14.008 -0.2323  0.0006 -0.1701
12946TIP3    H160253   1.924   5.518  13.912 -0.1343  0.4057 -0.1464
12946TIP3    H260254   1.824   5.503  14.025 -0.1774 -0.8579 -0.3346
12947TIP3   OH260255   3.265   0.445  13.487 -0.0714 -0.2137 -0.6921
12947TIP3    H160256   3.312   0.515  13.533 -0.1402  0.5800 -1.7837
12947TIP3    H260257   3.260   0.374  13.550 -0.6572  1.0405  0.7312
12948TIP3   OH260258   0.145   2.661   2.611  0.2644 -0.1249 -0.3521
12948TIP3    H160259   0.195   2.677   2.691  0.5556  1.6574 -0.8494
12948TIP3    H260260   0.056   2.688   2.633  0.6371  1.8068 -1.0176
12949TIP3   OH260261   3.760   6.465  15.929 -0.0985  0.3103  0.0282
12949TIP3    H160262   3.844   6.438  15.968 -0.0639  0.0949 -0.1997
12949TIP3    H260263   3.709   6.497  16.004 -0.0789 -0.2203  0.2687
12950TIP3   OH260264   0.345   3.045  10.918  0.3511 -0.3542 -0.1191
12950TIP3    H160265   0.316   3.122  10.867  1.5752  0.4383  0.3407
12950TIP3    H260266   0.434   3.029  10.888  1.2500  0.3759  2.0254
12951TIP3   OH260267   6.203   4.677  14.851 -0.4193  0.1020  0.5696
12951TIP3    H160268   6.290   4.708  14.827 -0.8312  0.6993 -0.2139
12951TIP3    H260269   6.149   4.697  14.774 -1.7795  1.9449  1.9091
12952TIP3   OH260270   0.775   3.184   3.803  0.3736  0.3965  0.4933
12952TIP3    H160271   0.807   3.141   3.882 -0.1271  0.9277  0.9976
12952TIP3    H260272   0.683   3.205   3.822  0.1635  0.2857 -0.3319
12953TIP3   OH260273   1.210   4.395  12.338 -0.9851  0.2651  0.1530
12953TIP3    H160274   1.123   4.422  12.370 -0.7294  2.4843 -0.7957
12953TIP3    H260275   1.194   4.362  12.250 -0.9852 -0.4660  0.4176
12954TIP3   OH260276   5.370   6.211   4.247  0.7555 -0.3780 -0.0073
12954TIP3    H160277   5.292   6.155   4.250  1.2751 -1.0847  1.0371
12954TIP3    H260278   5.391   6.228   4.338  2.4608 -1.1340 -0.2115
12955TIP3   OH260279   2.217   3.709   6.224 -0.1372 -0.2822  0.1335
12955TIP3    H160280   2.177   3.640   6.278 -1.8631  0.1996 -0.4463
12955TIP3    H260281   2.216   3.673   6.135  3.1899 -1.2920  0.3828
12956TIP3   OH260282   1.401   3.997   3.304 -0.2235 -0.1334 -0.2811
12956TIP3    H160283   1.330   4.056   3.278  1.4778  2.6814  0.9140
12956TIP3    H260284   1.481   4.041   3.274  1.1307 -2.6747 -0.7064
12957TIP3   OH260285   5.694   2.363   5.067 -0.2554 -1.0370  0.1493
12957TIP3    H160286   5.768   2.340   5.011 -0.3147 -2.0967  0.4982
12957TIP3    H260287   5.732   2.418   5.136  0.0401 -0.8255 -0.1742
12958TIP3   OH260288   4.645   4.910  11.547 -0.3269  0.5905  0.3634
12958TIP3    H160289   4.617   4.851  11.477  0.6341 -0.4987  0.8696
12958TIP3    H260290   4.574   4.907  11.611 -0.5812  0.4977  0.0781
12959TIP3   OH260291   5.187   0.365  13.650  0.2456 -0.7054 -0.0093
12959TIP3    H160292   5.100   0.391  13.680  0.1998 -1.3862  0.4750
12959TIP3    H260293   5.175   0.342  13.558  0.3117  1.0387 -0.4937
12960TIP3   OH260294   6.572   1.234  10.896  0.2628 -0.1996 -0.7069
12960TIP3    H160295   6.542   1.167  10.958  0.7550  0.2176 -0.0071
12960TIP3    H260296   6.632   1.186  10.838  0.9519 -0.2921  0.0587
12961TIP3   OH260297   5.562   5.866   2.096  0.4302  0.3408  0.0328
12961TIP3    H160298   5.551   5.812   2.174  3.5274  1.0056  1.0538
12961TIP3    H260299   5.547   5.807   2.022 -0.8533 -0.7089  1.0928
12962TIP3   OH260300   5.871   1.838  15.326  0.3198  0.0215  0.0895
12962TIP3    H160301   5.885   1.777  15.254  1.0278  0.8131 -0.4567
12962TIP3    H260302   5.805   1.795  15.381 -1.0890 -0.0995 -1.6223
12963TIP3   OH260303   0.964   2.264   3.432  0.8516  0.2629 -0.3179
12963TIP3    H160304   0.974   2.169   3.438  0.7806  0.3660  2.8552
12963TIP3    H260305   1.053   2.296   3.414  1.4367 -0.2915  1.4227
12964TIP3   OH260306   4.298   1.069  13.580  0.0105  0.3188 -0.0744
12964TIP3    H160307   4.290   1.080  13.486  0.7984 -0.5175 -0.2519
12964TIP3    H260308   4.390   1.083  13.599  0.7699 -3.6128 -0.0737
12965TIP3   OH260309   4.422   6.578   3.340 -0.3291  0.3342 -0.0110
12965TIP3    H160310   4.356   6.619   3.285 -0.6258  2.6464  1.9117
12965TIP3    H260311   4.470   6.519   3.281 -1.6571  1.4287 -2.3016
12966TIP3   OH260312   4.403   0.092  14.585  0.1143 -0.1382 -0.4106
12966TIP3    H160313   4.352   0.045  14.651  1.4008 -0.0973  0.6689
12966TIP3    H260314   4.346   0.162  14.554 -0.4863 -0.1000  0.7381
12967TIP3   OH260315   6.366   1.985  16.237  0.4094 -0.2107 -0.4895
12967TIP3    H160316   6.434   1.936  16.192  1.2127  0.5081 -0.0803
12967TIP3    H260317   6.373   1.959  16.328  1.2319  1.0657 -0.1629
12968TIP3   OH260318   0.843   1.944  15.681 -0.0082 -0.7078  0.1875
12968TIP3    H160319   0.927   1.908  15.707 -0.5743 -1.8435  0.5056
12968TIP3    H260320   0.816   1.891  15.606 -0.1036  0.1380 -0.3990
12969TIP3   OH260321   1.902   1.031  16.740  0.5158 -0.0023 -0.3164
12969TIP3    H160322   1.941   1.097  16.797 -0.3231 -0.6711  1.0762
12969TIP3    H260323   1.814   1.017  16.776 -1.2505  1.6884 -3.5003
12970TIP3   OH260324   4.645   6.078   3.965 -0.1581  0.0434 -0.1389
12970TIP3    H160325   4.596   6.125   3.897 -1.2302 -1.0898 -0.1991
12970TIP3    H260326   4.728   6.125   3.972 -0.3105  0.6132 -1.7228
12971TIP3   OH260327   1.762   3.587   5.041 -0.3631  0.4068 -0.1459
12971TIP3    H160328   1.693   3.652   5.054  0.4022  0.9912  1.2558
12971TIP3    H260329   1.752   3.526   5.114  1.4590  1.3346  0.9413
12972TIP3   OH260330   2.783   3.053   4.695  0.2789 -0.0131 -0.4896
12972TIP3    H160331   2.839   3.126   4.723  0.1532  0.9117 -2.4345
12972TIP3    H260332   2.817   2.977   4.742  2.0366  0.8543 -0.2681
12973TIP3   OH260333   4.753   0.153   4.159 -0.4990  0.0635  0.0582
12973TIP3    H160334   4.840   0.128   4.190 -0.5291  1.4948  1.4634
12973TIP3    H260335   4.694   0.130   4.231 -1.1860 -0.3225 -0.6237
12974TIP3   OH260336   5.486   2.652  16.579  0.3786  0.0605  0.6122
12974TIP3    H160337   5.502   2.746  16.592  1.2171  0.0807 -0.3667
12974TIP3    H260338   5.571   2.617  16.553 -0.4142 -0.5098 -1.4043
12975TIP3   OH260339   0.941   6.283   2.087  0.1553 -0.0959 -0.0155
12975TIP3    H160340   0.984   6.368   2.076 -2.7014  1.4336 -0.1607
12975TIP3    H260341   0.991   6.224   2.031  2.0521  1.5189 -0.1467
12976TIP3   OH260342   3.678   2.473  13.881 -0.1982  0.0697  0.6469
12976TIP3    H160343   3.676   2.421  13.800  0.6784 -0.7702  1.1405
12976TIP3    H260344   3.639   2.557  13.856 -0.9145 -0.5361 -0.3776
12977TIP3   OH260345   4.892   4.678  15.068  0.0193  0.3494  0.5461
12977TIP3    H160346   4.880   4.596  15.114 -1.5033  0.4918  0.4515
12977TIP3    H260347   4.967   4.663  15.010 -0.7627 -1.2558 -0.0871
12978TIP3   OH260348   6.337   2.259   5.064 -0.4638 -0.0468  0.0566
12978TIP3    H160349   6.302   2.276   4.977  1.2402 -0.6999 -0.7982
12978TIP3    H260350   6.387   2.178   5.055  1.1172  0.7344  1.2031
12979TIP3   OH260351   0.317   2.436  13.042  0.3753 -0.4683  0.2253
12979TIP3    H160352   0.273   2.355  13.016  1.6581 -2.2196  3.0319
12979TIP3    H260353   0.251   2.504  13.033 -0.7472 -1.7689 -2.2642
12980TIP3   OH260354   6.006   5.515  13.859  0.4337 -0.1909  0.2542
12980TIP3    H160355   5.958   5.472  13.788 -1.6802 -0.6800  1.8502
12980TIP3    H260356   6.056   5.444  13.900  0.8843 -0.1024 -0.1351
12981TIP3   OH260357   1.895   0.240  16.213  0.6324  0.1659 -0.0316
12981TIP3    H160358   1.907   0.332  16.186 -1.0041  0.9264  1.6032
12981TIP3    H260359   1.968   0.223  16.273  1.4572  0.0709 -1.0301
12982TIP3   OH260360   0.187   5.632  14.178  0.7528  0.0074  0.2803
12982TIP3    H160361   0.243   5.640  14.256  1.1811  2.0596 -0.1803
12982TIP3    H260362   0.115   5.574  14.206  2.2376 -1.4040  1.3685
12983TIP3   OH260363   5.382   5.354   6.338 -0.0419  0.4832  0.7061
12983TIP3    H160364   5.436   5.400   6.275  2.7216  2.8814  4.4184
12983TIP3    H260365   5.418   5.265   6.341  0.5555  0.6944 -0.1965
12984TIP3   OH260366   1.421   2.992   2.902  0.1140 -0.2253 -0.1909
12984TIP3    H160367   1.383   2.958   2.821  0.1040 -0.6000 -0.0332
12984TIP3    H260368   1.428   2.915   2.959 -0.3239  0.1173  0.3400
12985TIP3   OH260369   4.941   2.239   0.077 -0.1544 -0.0713  0.8978
12985TIP3    H160370   4.946   2.264  -0.015 -0.6794 -1.7144  0.3803
12985TIP3    H260371   4.982   2.152   0.080 -0.9471 -0.4246  2.0522
12986TIP3   OH260372   3.351   1.264  16.246 -0.1413  0.0133  0.4232
12986TIP3    H160373   3.366   1.239  16.337 -1.2554 -1.7167  0.1907
12986TIP3    H260374   3.262   1.236  16.228  0.9921 -2.5179 -2.0154
12987TIP3   OH260375   3.260   3.943   5.164 -0.0866 -0.1174  0.2540
12987TIP3    H160376   3.199   3.996   5.113  1.1908  1.7521  0.5671
12987TIP3    H260377   3.232   3.953   5.255 -1.0646 -1.7174  0.1823
12988TIP3   OH260378   0.402   4.677   6.244 -0.6211 -0.3902  0.2776
12988TIP3    H160379   0.345   4.604   6.222  0.5262 -1.2855  0.1973
12988TIP3    H260380   0.478   4.666   6.187 -0.5898  1.0860 -0.0053
12989TIP3   OH260381   0.834   2.525  12.406  0.5001  0.6661 -0.3880
12989TIP3    H160382   0.862   2.474  12.483 -0.2982 -0.0663 -0.5580
12989TIP3    H260383   0.741   2.539  12.420  0.6134  1.6831 -0.5946
12990TIP3   OH260384   6.109   0.393  10.221  0.2642  0.3473 -0.1746
12990TIP3    H160385   6.034   0.364  10.170 -0.7581 -0.9186  1.9076
12990TIP3    H260386   6.124   0.322  10.283  0.7639  2.2027  1.9397
12991TIP3   OH260387   6.289   4.391  14.980 -0.2247 -0.3465  0.2934
12991TIP3    H160388   6.259   4.420  14.893 -0.5830 -0.7593  0.2742
12991TIP3    H260389   6.299   4.297  14.971  0.5634 -0.2840  0.4639
12992TIP3   OH260390   2.374   5.679  11.533  0.3320 -0.4976  0.6112
12992TIP3    H160391   2.326   5.597  11.536 -0.3824 -0.1891 -1.3301
12992TIP3    H260392   2.309   5.744  11.506  1.5640  0.1037 -1.0774
12993TIP3   OH260393   4.673   0.568   3.904  0.4803 -0.0226  0.5175
12993TIP3    H160394   4.666   0.474   3.888  0.1879 -0.0408  0.7377
12993TIP3    H260395   4.761   0.592   3.874  0.8217 -0.5034  1.1219
12994TIP3   OH260396   6.545   1.475   4.046  0.4028  0.0107 -0.0160
12994TIP3    H160397   6.455   1.504   4.058  1.1503  2.2102  0.8578
12994TIP3    H260398   6.581   1.471   4.135  0.8947 -1.8894 -0.2658
12995TIP3   OH260399   1.276   5.356   2.086 -0.3605  0.2508  0.1489
12995TIP3    H160400   1.273   5.405   2.004 -0.1459  0.3042  0.1728
12995TIP3    H260401   1.193   5.378   2.129 -0.0104  1.0577  0.4300
12996TIP3   OH260402   5.852   0.164   3.105 -0.4970  0.0868  0.3552
12996TIP3    H160403   5.914   0.098   3.136  0.6702  1.9479  2.2986
12996TIP3    H260404   5.905   0.225   3.054 -1.6066 -0.5447 -1.6514
12997TIP3   OH260405   6.151   1.114   0.524 -0.1102 -0.3833 -0.0326
12997TIP3    H160406   6.209   1.148   0.456 -1.4210 -0.5326 -1.2795
12997TIP3    H260407   6.140   1.186   0.585 -0.4878  0.4462 -1.0552
12998TIP3   OH260408   6.494   0.245   4.155 -0.2180 -0.2656  0.0282
12998TIP3    H160409   6.542   0.321   4.189 -2.0654 -0.1172  2.6089
12998TIP3    H260410   6.419   0.282   4.110  0.0957 -0.5482 -0.7365
12999TIP3   OH260411   5.218   2.279  16.217 -0.1741  0.0348  0.2711
12999TIP3    H160412   5.245   2.188  16.205  1.1602  0.5050 -0.5512
12999TIP3    H260413   5.259   2.307  16.298  1.6485  0.6393 -0.7931
13000TIP3   OH260414   5.272   2.701  15.056  0.0635  0.4113  0.1871
13000TIP3    H160415   5.288   2.682  15.148 -0.9566  0.1312  0.3177
13000TIP3    H260416   5.212   2.632  15.027  0.9277  0.0813 -0.8801
13001TIP3   OH260417   0.356   6.219  15.267 -0.1605 -0.7014  0.6886
13001TIP3    H160418   0.262   6.232  15.280 -0.1167  0.8154 -0.2723
13001TIP3    H260419   0.378   6.144  15.323 -2.0911 -1.6542  0.2570
13002TIP3   OH260420   0.194   3.009   3.587  0.3650 -0.1106 -0.6213
13002TIP3    H160421   0.239   2.926   3.571  1.3631  0.6722 -2.1201
13002TIP3    H260422   0.176   3.044   3.500  0.3210  1.4496 -0.0233
13003TIP3   OH260423   5.018   1.983   1.910  0.0599  0.3583 -0.1971
13003TIP3    H160424   5.049   2.069   1.882  0.9425  0.2696  0.4854
13003TIP3    H260425   4.950   1.960   1.846 -2.1458  2.7460  1.1257
13004TIP3   OH260426   0.987   6.142  13.178 -0.4805 -0.3831 -0.3508
13004TIP3    H160427   1.001   6.192  13.098  0.0523 -0.5019 -0.3340
13004TIP3    H260428   1.046   6.067  13.170 -2.9450 -2.3607 -1.5229
13005TIP3   OH260429   2.416   3.945   0.977 -0.9005 -0.2764 -0.3806
13005TIP3    H160430   2.500   3.911   1.008 -1.4399 -1.4430 -0.1293
13005TIP3    H260431   2.359   3.942   1.054 -1.2798  0.1315 -0.6410
13006TIP3   OH260432   2.012   3.706  12.621 -0.1215 -0.4095 -0.7940
13006TIP3    H160433   1.993   3.782  12.565  0.6101  0.9498  0.7020
13006TIP3    H260434   2.102   3.682  12.599  0.8948  1.3792  1.0556
13007TIP3   OH260435   5.880   6.673  16.576  0.0836  0.6936 -0.5589
13007TIP3    H160436   5.971   6.696  16.594  0.1388 -0.5057  0.8207
13007TIP3    H260437   5.877   6.656  16.482  1.0763  1.5830 -0.7654
13008TIP3   OH260438   2.941   1.189  11.224 -0.2971  0.4237 -0.3006
13008TIP3    H160439   2.915   1.101  11.251 -1.0953  0.5948 -0.4638
13008TIP3    H260440   3.007   1.216  11.288 -0.0575 -0.2836 -0.2446
13009TIP3   OH260441   6.450   1.162   0.704 -0.1512  0.4304  0.2068
13009TIP3    H160442   6.520   1.189   0.764  0.7618  0.8197 -0.9813
13009TIP3    H260443   6.471   1.071   0.682  0.6561  0.8801 -1.0052
13010TIP3   OH260444   3.848   6.442  14.316  0.7221  0.2015 -0.2136
13010TIP3    H160445   3.808   6.368  14.361  1.5213 -0.2728 -0.2629
13010TIP3    H260446   3.798   6.451  14.235  1.4310 -1.1287 -0.8297
13011TIP3   OH260447   0.757   4.887   3.380  0.6231  0.5133  0.2038
13011TIP3    H160448   0.784   4.978   3.398  1.8670  0.3359 -0.6900
13011TIP3    H260449   0.811   4.834   3.439  1.0933  0.2589 -0.4458
13012TIP3   OH260450   1.870   0.798  14.638 -0.3286  0.1638 -0.2520
13012TIP3    H160451   1.828   0.740  14.701 -1.6405 -1.2195 -2.2695
13012TIP3    H260452   1.801   0.860  14.613 -0.0749  0.1993 -0.8876
13013TIP3   OH260453   0.427   0.434   5.838  0.0245 -0.0361  0.8600
13013TIP3    H160454   0.359   0.379   5.798  0.5857 -0.0704 -0.0546
13013TIP3    H260455   0.380   0.487   5.902 -0.7147 -0.7404  0.9195
13014TIP3   OH260456   2.846   2.813   4.913  0.1119  0.1866 -0.7946
13014TIP3    H160457   2.777   2.796   4.849 -0.1779  0.2947 -0.5139
13014TIP3    H260458   2.884   2.727   4.930 -1.2028 -0.1892  0.4552
13015TIP3   OH260459   1.652   6.656   0.560  0.3250 -0.4911  0.3941
13015TIP3    H160460   1.664   6.747   0.532 -0.5622 -1.1852 -2.6628
13015TIP3    H260461   1.564   6.653   0.596 -0.0347 -0.2858 -0.4296
13016TIP3   OH260462   3.550   6.802   2.775 -0.1673  0.8327 -1.1195
13016TIP3    H160463   3.532   6.752   2.854 -1.2485  2.7219 -0.0841
13016TIP3    H260464   3.484   6.774   2.712  0.1294 -0.0306 -1.0567
13017TIP3   OH260465   1.049   5.842   2.898 -0.0269 -0.1665  0.0714
13017TIP3    H160466   1.062   5.864   2.991  0.6819  0.1725 -0.0999
13017TIP3    H260467   1.017   5.923   2.859  1.6524  0.3149 -0.3712
13018TIP3   OH260468   0.244   4.962   2.201  0.4132 -0.2419 -0.5447
13018TIP3    H160469   0.226   5.020   2.275  0.6030 -1.0530  0.1526
13018TIP3    H260470   0.270   4.879   2.242  1.8612 -0.2999 -1.5029
13019TIP3   OH260471   2.000   2.044   4.784  0.2136  0.5586 -0.0996
13019TIP3    H160472   2.049   1.968   4.815  0.2153  0.1770 -1.0117
13019TIP3    H260473   2.022   2.050   4.691  0.9624  2.2368  0.1401
13020TIP3   OH260474   4.521   0.841  16.738 -0.0838  0.3941  0.2133
13020TIP3    H160475   4.500   0.932  16.716 -0.7540  1.2715  3.8664
13020TIP3    H260476   4.438   0.802  16.765  0.5412 -0.6154  0.7491
13021TIP3   OH260477   5.996   2.223  14.477 -0.6872  0.4953 -0.2363
13021TIP3    H160478   5.932   2.211  14.546 -0.1207  1.1300  0.4156
13021TIP3    H260479   5.944   2.232  14.397 -1.3718  0.2559  0.1759
13022TIP3   OH260480   3.681   3.372   0.927  0.0436 -0.1531 -0.2258
13022TIP3    H160481   3.677   3.296   0.987 -0.8553  1.0529  1.3370
13022TIP3    H260482   3.600   3.420   0.945  0.9877  1.6460 -0.5341
13023TIP3   OH260483   6.574   0.919  13.497 -0.0827  0.1453  0.3166
13023TIP3    H160484   6.545   0.828  13.499 -0.7212  0.3349 -0.1276
13023TIP3    H260485   6.499   0.968  13.464  1.0548  0.5198 -1.9132
13024TIP3   OH260486   1.507   5.375   5.972 -0.1516 -0.8182  0.7991
13024TIP3    H160487   1.589   5.409   5.934 -0.7197 -2.3341 -2.1220
13024TIP3    H260488   1.459   5.453   5.999  1.1134  0.2870  0.0026
13025TIP3   OH260489   1.866   1.172   0.029 -0.1528  0.3074 -0.0227
13025TIP3    H160490   1.866   1.095   0.085  1.3576  0.3751  0.1113
13025TIP3    H260491   1.793   1.159  -0.031  0.3542 -1.4499 -0.3039
13026TIP3   OH260492   2.064   2.242   5.553 -0.1016 -0.4000  0.2494
13026TIP3    H160493   2.004   2.184   5.506 -0.1099 -1.5806  1.6394
13026TIP3    H260494   2.135   2.185   5.582 -0.2584  0.2053  1.9279
13027TIP3   OH260495   0.333   6.392  12.491 -0.3773 -0.5392  0.7651
13027TIP3    H160496   0.417   6.359  12.522 -0.2950 -0.1744  0.9490
13027TIP3    H260497   0.278   6.392  12.569 -1.1240 -2.4823  0.2909
13028TIP3   OH260498   2.903   4.678  16.918 -0.1703 -0.3178 -0.4192
13028TIP3    H160499   2.811   4.683  16.892 -0.0247 -0.1871 -0.9107
13028TIP3    H260500   2.952   4.707  16.841  0.3522 -1.8353 -0.6794
13029TIP3   OH260501   4.421   6.666   2.929 -0.2411  0.4898 -0.1097
13029TIP3    H160502   4.341   6.614   2.933  0.3965 -0.5244 -0.4174
13029TIP3    H260503   4.468   6.633   2.852  0.3541  1.2665 -0.0988
13030TIP3   OH260504   2.384   1.471   5.820  0.8765  0.1487 -0.1968
13030TIP3    H160505   2.333   1.486   5.740 -0.2385  0.7132  0.5819
13030TIP3    H260506   2.319   1.442   5.885  1.9922 -1.8618  0.1097
13031TIP3   OH260507   1.790   6.784  16.882 -0.8789 -0.5367 -0.8483
13031TIP3    H160508   1.705   6.771  16.926 -0.6397 -1.9296 -0.7645
13031TIP3    H260509   1.774   6.758  16.792 -0.4176 -1.3451 -0.7075
13032TIP3   OH260510   6.675   5.271  12.462  0.2294 -0.4128 -0.1361
13032TIP3    H160511   6.648   5.197  12.517 -2.7546  1.1535  0.7502
13032TIP3    H260512   6.594   5.298  12.418  1.7746  0.7340 -2.4811
13033TIP3   OH260513   5.800   0.761  16.111  0.2102  0.3536  0.0681
13033TIP3    H160514   5.759   0.847  16.117  1.2354  0.8132  0.9209
13033TIP3    H260515   5.889   0.779  16.080  0.2496 -0.4613 -0.3153
13034TIP3   OH260516   3.967   4.790   3.460 -0.5136  0.2172 -0.2957
13034TIP3    H160517   3.876   4.759   3.467 -0.7014  0.4448 -1.4428
13034TIP3    H260518   3.977   4.853   3.531 -1.9495  1.8221 -1.4301
13035TIP3   OH260519   3.649   4.559   4.879  0.2821 -0.4006  0.4904
13035TIP3    H160520   3.591   4.570   4.955 -0.4410 -1.8276  0.1878
13035TIP3    H260521   3.736   4.543   4.918  0.0945 -0.2381  0.9911
13036TIP3   OH260522   5.458   4.532   0.648 -0.1020 -0.2522  0.1020
13036TIP3    H160523   5.543   4.572   0.629 -1.9255  3.7247 -0.7108
13036TIP3    H260524   5.479   4.458   0.705  3.8559  0.8314  0.3765
13037TIP3   OH260525   2.813   4.387   2.058  0.3136  0.2398  0.5958
13037TIP3    H160526   2.810   4.325   1.984  0.0147  0.1148  0.7116
13037TIP3    H260527   2.868   4.458   2.027  0.6249 -0.0656  0.4428
13038TIP3   OH260528   3.070   2.032   3.349  0.0173 -0.7762  0.4618
13038TIP3    H160529   3.162   2.008   3.339 -0.3668 -2.6775  1.0191
13038TIP3    H260530   3.031   2.014   3.263  0.0266 -0.6415  0.4290
13039TIP3   OH260531   6.684   3.731   0.838  0.8699 -0.1877  0.5445
13039TIP3    H160532   6.649   3.783   0.910 -0.5400  0.5785 -0.6193
13039TIP3    H260533   6.638   3.647   0.844  0.3061  0.0874  0.2248
13040TIP3   OH260534   4.821   6.543   5.567 -0.5900 -0.1372 -0.2158
13040TIP3    H160535   4.915   6.544   5.582 -0.5987  0.2603 -0.1575
13040TIP3    H260536   4.785   6.601   5.635 -1.0907 -1.8792  1.0630
13041TIP3   OH260537   4.508   5.280   1.820 -0.2535  0.4251  0.4441
13041TIP3    H160538   4.602   5.263   1.830 -0.3580  0.6458  2.1173
13041TIP3    H260539   4.472   5.262   1.907 -1.4986  1.9924  0.2767
13042TIP3   OH260540   2.055   0.439  14.153 -0.5045 -0.2751 -0.2685
13042TIP3    H160541   2.090   0.375  14.215 -1.7648  0.4821  1.2958
13042TIP3    H260542   2.064   0.397  14.067 -1.7684 -2.7739  0.7351
13043TIP3   OH260543   5.598   4.874  12.799 -0.2023 -0.6076  0.2442
13043TIP3    H160544   5.636   4.844  12.716 -0.6895 -1.1278  0.2046
13043TIP3    H260545   5.660   4.845  12.866 -0.9122 -2.1710  0.2538
13044TIP3   OH260546   2.604   2.993   2.195 -0.4642 -0.1835  0.0680
13044TIP3    H160547   2.659   3.002   2.117  2.1682 -3.0886  1.3650
13044TIP3    H260548   2.523   2.953   2.163 -1.1583  2.3064 -1.6080
13045TIP3   OH260549   1.470   0.174   1.564  0.0007 -0.8450  0.4741
13045TIP3    H160550   1.533   0.177   1.492 -2.2542 -1.6812 -1.6665
13045TIP3    H260551   1.478   0.086   1.600 -1.7963 -2.0541 -1.7456
13046TIP3   OH260552   3.867   4.403   0.768 -0.1444  0.0849 -0.5966
13046TIP3    H160553   3.828   4.490   0.761 -1.3220 -0.4361 -0.7624
13046TIP3    H260554   3.848   4.376   0.858  0.2088 -0.0181 -0.5508
13047TIP3   OH260555   0.077   6.396  17.117  0.3989  0.1041  0.6524
13047TIP3    H160556   0.155   6.406  17.171 -2.2652  1.9392  4.6850
13047TIP3    H260557   0.039   6.313  17.145  0.2033 -0.1236 -0.2661
13048TIP3   OH260558   5.140   1.787  16.252 -0.5765 -0.4828 -0.1965
13048TIP3    H160559   5.069   1.815  16.310  0.1031  0.7845  0.0618
13048TIP3    H260560   5.126   1.837  16.172  0.9878  1.1330  0.4761
13049TIP3   OH260561   2.460   0.538  13.645 -0.0794  0.2066  0.0180
13049TIP3    H160562   2.523   0.496  13.703 -1.1317 -2.6649 -0.7474
13049TIP3    H260563   2.380   0.487  13.656 -0.5900  0.1316 -3.2281
13050TIP3   OH260564   2.004   4.317  15.949  0.2511 -0.2008 -0.4163
13050TIP3    H160565   2.017   4.385  15.883  1.7411 -1.4461 -1.4687
13050TIP3    H260566   2.016   4.362  16.032  3.0655  0.5392 -1.1297
13051TIP3   OH260567   4.095   5.159   3.478 -0.2831  0.0401  0.2144
13051TIP3    H160568   4.106   5.110   3.396  0.6093 -0.1576  0.4442
13051TIP3    H260569   4.016   5.211   3.464  0.3958  0.7733 -1.1645
13052TIP3   OH260570   5.260   6.618   5.097  0.6854  0.1163 -0.2237
13052TIP3    H160571   5.222   6.614   5.185  2.0017  0.0861  0.3654
13052TIP3    H260572   5.202   6.563   5.044 -0.6526  0.8701  0.3981
13053TIP3   OH260573   6.626   3.095   4.240 -0.1201  0.1017  0.4463
13053TIP3    H160574   6.613   3.157   4.312  1.2488  1.6549 -0.5683
13053TIP3    H260575   6.720   3.098   4.222 -0.3383 -0.7048 -1.0145
13054TIP3   OH260576   5.467   4.380   2.130  0.1812 -0.0388  0.1001
13054TIP3    H160577   5.459   4.415   2.042  0.0849 -0.9657 -0.2762
13054TIP3    H260578   5.401   4.426   2.181  1.4976  1.8890  0.1640
13055TIP3   OH260579   3.508   2.223   1.104  0.2682  0.1019 -0.0555
13055TIP3    H160580   3.578   2.174   1.147  0.5389  0.2723 -0.2986
13055TIP3    H260581   3.448   2.156   1.072  1.4022 -0.1727 -1.7186
13056TIP3   OH260582   2.731   2.992  16.662  0.8758  0.0736 -0.1388
13056TIP3    H160583   2.800   2.996  16.728  0.0002 -0.0293  0.7956
13056TIP3    H260584   2.678   2.916  16.686 -0.1868  0.7705 -0.2057
13057TIP3   OH260585   0.499   6.764   4.394  0.2455 -0.1177  0.1327
13057TIP3    H160586   0.419   6.727   4.434 -0.6065  0.1644 -1.2487
13057TIP3    H260587   0.468   6.837   4.341  1.4951  0.2951 -0.0592
13058TIP3   OH260588   6.059   2.473  14.597 -0.1896  0.7942  0.1452
13058TIP3    H160589   6.046   2.403  14.534 -2.8155  0.3936  0.9946
13058TIP3    H260590   6.082   2.429  14.679  1.3601  1.1842 -0.0525
13059TIP3   OH260591   0.880   1.754  14.046  0.2159  0.1332 -0.7798
13059TIP3    H160592   0.787   1.736  14.035  0.5670 -1.1366 -1.8131
13059TIP3    H260593   0.921   1.721  13.967  1.7267 -0.6636  0.2891
13060TIP3   OH260594   4.263   2.863  13.338 -0.4030  0.4965  0.3311
13060TIP3    H160595   4.190   2.863  13.276 -0.8462  1.1790  0.8431
13060TIP3    H260596   4.337   2.895  13.287 -0.3492 -0.5615 -0.2959
13061TIP3   OH260597   5.206   2.942   5.275 -0.1306  0.2872  0.3782
13061TIP3    H160598   5.127   2.980   5.237  0.3609  0.7585 -0.1715
13061TIP3    H260599   5.278   2.980   5.226  0.5993  1.6813  2.4160
13062TIP3   OH260600   0.233   6.461  11.820  0.1682  0.1086  0.0921
13062TIP3    H160601   0.265   6.377  11.787  2.0533 -0.4970  3.0517
13062TIP3    H260602   0.151   6.476  11.773  2.2912 -0.7389 -4.3589
13063TIP3   OH260603   1.685   4.326   1.671  0.7755  0.4776 -0.0117
13063TIP3    H160604   1.680   4.399   1.609  1.7415 -0.3679 -1.1325
13063TIP3    H260605   1.659   4.364   1.755 -1.1447  1.5288 -1.0107
13064TIP3   OH260606   3.110   4.607  15.248 -0.5303  0.0065  0.2879
13064TIP3    H160607   3.106   4.515  15.274 -1.5419 -1.0128 -3.0396
13064TIP3    H260608   3.024   4.625  15.210  0.9967  0.8869 -3.1734
13065TIP3   OH260609   6.161   0.656   1.607  0.6710  0.1350  0.7836
13065TIP3    H160610   6.253   0.679   1.620  0.7813 -0.5756  1.3073
13065TIP3    H260611   6.150   0.572   1.653  0.0954 -0.4626 -0.3785
13066TIP3   OH260612   4.865   1.969  15.188  0.3972  0.4759  0.0940
13066TIP3    H160613   4.936   2.018  15.145  1.4977  0.3234  1.6540
13066TIP3    H260614   4.910   1.907  15.245 -1.0098  0.1338  0.8767
13067TIP3   OH260615   5.931   6.351  14.402 -0.0701  0.4686 -0.4080
13067TIP3    H160616   5.861   6.300  14.443 -0.2623  0.7848 -0.3420
13067TIP3    H260617   5.885   6.414  14.347  0.1497  0.9446 -0.0536
13068TIP3   OH260618   2.404   5.420  15.293 -0.2769  0.0383  0.3089
13068TIP3    H160619   2.432   5.388  15.207 -1.9648 -2.9104  0.6952
13068TIP3    H260620   2.477   5.397  15.352  0.3289  0.8729 -0.0967
13069TIP3   OH260621   4.723   1.839   2.156  0.3274 -0.2753 -0.1180
13069TIP3    H160622   4.768   1.918   2.128 -0.3956 -0.1889 -1.0763
13069TIP3    H260623   4.649   1.830   2.096  0.4313 -1.7160 -0.0707
13070TIP3   OH260624   2.217   6.182  13.522  0.1263  0.9645 -0.3404
13070TIP3    H160625   2.239   6.264  13.567 -0.2513  1.6075 -1.2853
13070TIP3    H260626   2.124   6.190  13.503 -0.3229 -0.4521  1.0585
13071TIP3   OH260627   1.360   1.775   4.800  0.0780  0.0447  0.4865
13071TIP3    H160628   1.452   1.767   4.776 -0.2649 -0.3590 -0.7328
13071TIP3    H260629   1.362   1.816   4.887  1.3660  1.0691  0.0171
13072TIP3   OH260630   5.926   6.198  12.636 -0.0200 -0.0657 -0.0242
13072TIP3    H160631   5.837   6.183  12.604 -1.0497 -0.6252  2.7910
13072TIP3    H260632   5.936   6.136  12.708  1.5699  1.9772  1.6340
13073TIP3   OH260633   1.958   2.571  14.064  0.0011  0.1930  0.0117
13073TIP3    H160634   1.905   2.497  14.094 -0.4275  0.2030 -0.6919
13073TIP3    H260635   1.992   2.610  14.145  0.1888 -0.7329  0.3921
13074TIP3   OH260636   6.699   2.086   5.813  0.2964 -0.0397 -0.0029
13074TIP3    H160637   6.794   2.089   5.824  0.1931  0.9408  0.7407
13074TIP3    H260638   6.665   2.147   5.878 -0.8610 -0.5020 -0.1498
13075TIP3   OH260639   4.942   1.735   0.696  0.1964 -0.8020  0.2112
13075TIP3    H160640   4.912   1.792   0.767  1.0270 -0.7190  0.5042
13075TIP3    H260641   4.874   1.744   0.629 -0.0379 -0.0101  0.5328
13076TIP3   OH260642   3.121   1.012  16.393  0.3047 -0.2097  0.3946
13076TIP3    H160643   3.100   1.105  16.404 -1.3345 -0.4584 -0.3355
13076TIP3    H260644   3.095   0.971  16.475  1.7596  0.0552  1.0211
13077TIP3   OH260645   1.693   0.834   4.519  0.3350  0.0655  0.3097
13077TIP3    H160646   1.623   0.794   4.571  1.3189  0.0398  1.6639
13077TIP3    H260647   1.647   0.888   4.455 -0.9179  1.0610  1.9599
13078TIP3   OH260648   3.973   5.856  11.430  0.3061 -0.7176  0.4287
13078TIP3    H160649   3.896   5.805  11.403  0.2872 -1.2367  1.4333
13078TIP3    H260650   4.024   5.796  11.485  2.1011 -0.8231 -1.2368
13079TIP3   OH260651   2.155   1.239  11.661 -0.1695  0.1518  0.2335
13079TIP3    H160652   2.105   1.186  11.723 -1.3608  0.3784 -0.5195
13079TIP3    H260653   2.139   1.330  11.689  1.1151  0.1866  0.9493
13080TIP3   OH260654   4.937   3.058   5.384 -0.5348  0.1971 -0.1150
13080TIP3    H160655   4.900   2.975   5.353  0.6697  0.0080 -1.1298
13080TIP3    H260656   5.031   3.041   5.393 -0.4337  1.1245  0.8318
13081TIP3   OH260657   5.504   0.956   3.632 -0.9966  0.8136  0.4635
13081TIP3    H160658   5.587   0.937   3.588 -0.7281  0.0383  1.2681
13081TIP3    H260659   5.528   0.970   3.723 -1.9094 -1.0230  1.0347
13082TIP3   OH260660   1.494   3.203  12.979  0.3397  0.2791 -0.3897
13082TIP3    H160661   1.534   3.116  12.975 -0.0707  0.1041 -0.7616
13082TIP3    H260662   1.549   3.257  12.922  0.7544  0.3323  0.0548
13083TIP3   OH260663   5.179   4.102  12.648 -0.4125 -0.5896  0.0633
13083TIP3    H160664   5.092   4.065  12.637 -0.2490 -0.8263 -0.4332
13083TIP3    H260665   5.164   4.183  12.697 -0.7911 -1.1874  0.9576
13084TIP3   OH260666   2.368   1.432  11.497 -0.3054 -0.5164 -0.5763
13084TIP3    H160667   2.462   1.444  11.483 -0.4920  0.3197 -1.2056
13084TIP3    H260668   2.358   1.340  11.521  0.5940 -0.7888 -1.2218
13085TIP3   OH260669   0.122   4.009  14.135  0.1080  0.4331 -0.8264
13085TIP3    H160670   0.183   4.070  14.176  0.4434 -0.6484  0.3908
13085TIP3    H260671   0.119   4.035  14.043  0.6040  1.9490 -0.4449
13086TIP3   OH260672   2.080   6.330   0.185  0.1515  0.5711  0.5131
13086TIP3    H160673   2.007   6.365   0.133  0.1054 -0.5633 -0.2255
13086TIP3    H260674   2.049   6.332   0.275 -0.2513  1.4168  0.3664
13087TIP3   OH260675   3.296   4.150  13.156  0.5514 -0.7415 -0.0900
13087TIP3    H160676   3.290   4.081  13.089 -0.3715 -2.6322  1.8152
13087TIP3    H260677   3.366   4.121  13.214 -0.6721 -0.7999  1.4362
13088TIP3   OH260678   1.398   1.181  15.941 -0.0636 -0.6010  0.2807
13088TIP3    H160679   1.352   1.121  15.999 -2.1930  0.3664 -0.3047
13088TIP3    H260680   1.439   1.124  15.875 -0.1866 -1.5122  0.9789
13089TIP3   OH260681   5.183   1.716  12.616 -0.5291 -0.1704  0.2136
13089TIP3    H160682   5.243   1.788  12.639  1.0549  0.0250 -3.7298
13089TIP3    H260683   5.219   1.640  12.663  1.5701  0.4076 -0.3224
13090TIP3   OH260684   4.545   4.806  12.919 -0.1981 -0.3078 -0.3596
13090TIP3    H160685   4.549   4.812  13.014  1.2793 -1.0230 -0.3447
13090TIP3    H260686   4.566   4.715  12.899  2.5496  0.4586 -1.4439
13091TIP3   OH260687   1.609   2.744   2.536  0.2808 -0.3863 -0.2368
13091TIP3    H160688   1.646   2.793   2.609 -1.1728  2.0382 -1.0122
13091TIP3    H260689   1.547   2.682   2.576  1.2495 -0.7645  0.6923
13092TIP3   OH260690   4.701   1.136  10.627  0.3981 -0.2172  0.0118
13092TIP3    H160691   4.633   1.126  10.693 -0.0672 -0.4338 -0.4952
13092TIP3    H260692   4.728   1.046  10.606 -0.0706 -0.1966 -0.7187
13093TIP3   OH260693   4.442   2.396   0.008 -0.5183  0.1331  0.2173
13093TIP3    H160694   4.346   2.394   0.015 -0.5749 -0.1074 -0.4734
13093TIP3    H260695   4.459   2.384  -0.086  0.2209 -1.0487  0.4711
13094TIP3   OH260696   0.747   2.153  15.897  0.0875  0.4784  0.0830
13094TIP3    H160697   0.823   2.163  15.839  0.1889 -1.7143 -0.2593
13094TIP3    H260698   0.783   2.110  15.975 -0.6892  0.0555  0.2079
13095TIP3   OH260699   1.091   4.663   3.762 -0.4723 -0.0043 -0.0040
13095TIP3    H160700   1.090   4.700   3.850 -2.2861 -1.0244  0.4602
13095TIP3    H260701   1.091   4.739   3.704 -1.1995  0.7199  0.9037
13096TIP3   OH260702   1.986   2.996   4.023  0.0667  0.0688  0.0281
13096TIP3    H160703   1.988   3.030   3.933  1.5166  0.1499  0.0663
13096TIP3    H260704   1.982   3.074   4.078  1.1229  0.1144  0.0619
13097TIP3   OH260705   1.167   5.501   5.382  0.1002 -0.3898 -0.4908
13097TIP3    H160706   1.253   5.530   5.413 -0.1843  1.3560 -1.1982
13097TIP3    H260707   1.170   5.406   5.386  0.9937 -0.3389  2.3702
13098TIP3   OH260708   6.612   6.326   3.273 -0.2497 -0.3037  0.4822
13098TIP3    H160709   6.626   6.418   3.297  2.2021 -0.1200 -1.2822
13098TIP3    H260710   6.519   6.322   3.249 -0.2336  1.9588 -0.2425
13099TIP3   OH260711   4.958   6.612   3.588 -0.2923 -0.2921  0.0773
13099TIP3    H160712   4.952   6.619   3.493  1.5367  1.2636  0.0036
13099TIP3    H260713   5.017   6.538   3.603 -0.7127 -0.6425  0.0207
13100TIP3   OH260714   5.723   2.877  13.613 -0.0368  0.1636 -0.2018
13100TIP3    H160715   5.754   2.797  13.656 -0.2158  0.3835  0.3466
13100TIP3    H260716   5.768   2.878  13.529  0.0552 -0.4565 -0.1680
13101TIP3   OH260717   2.343   0.842   2.692 -0.3443 -0.2439 -0.2132
13101TIP3    H160718   2.333   0.841   2.596  0.8595  0.5251 -0.3733
13101TIP3    H260719   2.394   0.764   2.711  2.7394  1.4798 -0.6938
13102TIP3   OH260720   6.370   3.529  13.678  0.5759  0.6190 -0.0933
13102TIP3    H160721   6.343   3.612  13.717 -0.0512  0.6710 -0.6122
13102TIP3    H260722   6.400   3.553  13.590  0.0606  0.2524 -0.3716
13103TIP3   OH260723   5.151   2.216   1.869 -0.1886  0.3690 -0.3648
13103TIP3    H160724   5.174   2.309   1.859  0.7513  0.3186  1.0249
13103TIP3    H260725   5.233   2.169   1.855 -0.3221 -0.1336  0.4868
13104TIP3   OH260726   2.768   3.120   3.440 -0.4335  0.0123  0.8000
13104TIP3    H160727   2.756   3.213   3.421 -1.5039 -0.3482 -0.4216
13104TIP3    H260728   2.770   3.078   3.355  2.0817 -0.9038  1.2212
13105TIP3   OH260729   0.509   2.235  12.346  0.0907 -0.2176  0.1498
13105TIP3    H160730   0.533   2.278  12.428 -0.7064  0.4520  0.0419
13105TIP3    H260731   0.457   2.300  12.299 -2.8228 -1.9322  0.7949
13106TIP3   OH260732   5.204   0.264   1.758  0.2656  0.4502  0.3057
13106TIP3    H160733   5.136   0.265   1.825  0.0575 -0.1279  0.1110
13106TIP3    H260734   5.157   0.260   1.676  0.5327 -0.4377  0.1856
13107TIP3   OH260735   3.795   3.563  12.120  0.0583 -0.0303  0.1584
13107TIP3    H160736   3.773   3.635  12.062 -1.6195 -1.0409 -0.5256
13107TIP3    H260737   3.784   3.484  12.067  1.1768 -0.8506  1.0808
13108TIP3   OH260738   5.382   2.640   2.740  0.5549 -0.8847  0.3271
13108TIP3    H160739   5.470   2.676   2.753 -0.2594  0.9528  1.1028
13108TIP3    H260740   5.385   2.599   2.654  2.3946 -1.6142  0.6892
13109TIP3   OH260741   1.503   5.380   5.568 -0.0116 -0.2613 -0.0383
13109TIP3    H160742   1.587   5.352   5.601  0.6755  0.3902 -1.1569
13109TIP3    H260743   1.449   5.301   5.568  1.0880 -1.0394 -0.7579
13110TIP3   OH260744   2.558   1.701   0.494  0.2634 -0.6836 -0.2909
13110TIP3    H160745   2.558   1.749   0.576  0.5140 -0.1672 -0.5925
13110TIP3    H260746   2.530   1.612   0.518 -2.7769  0.2258 -0.1029
13111TIP3   OH260747   2.123   3.215  12.759 -0.0214  0.2050  0.2852
13111TIP3    H160748   2.212   3.199  12.791 -0.2515 -1.6595  0.1538
13111TIP3    H260749   2.067   3.175  12.825 -0.7741  1.2771  0.3160
13112TIP3   OH260750   2.629   0.645   3.806  0.1522 -0.3626 -0.1057
13112TIP3    H160751   2.642   0.551   3.793  0.2917 -0.3131 -0.3411
13112TIP3    H260752   2.577   0.652   3.886  0.1008 -0.6421 -0.1149
13113TIP3   OH260753   6.337   3.364   3.072  0.1363  0.5137  0.3000
13113TIP3    H160754   6.389   3.347   3.151 -1.2353 -1.9656  0.7407
13113TIP3    H260755   6.342   3.283   3.022 -2.6307  0.4460  0.0013
13114TIP3   OH260756   6.218   0.584   5.790 -0.0238  0.5530 -0.0016
13114TIP3    H160757   6.192   0.632   5.869 -0.8858 -0.1169  0.1408
13114TIP3    H260758   6.194   0.493   5.809  3.2523 -0.3211  0.4823
13115TIP3   OH260759   4.335   4.215  16.278  0.3578  0.2294  0.2258
13115TIP3    H160760   4.295   4.184  16.196 -1.5554  0.2952  1.0778
13115TIP3    H260761   4.402   4.149  16.298 -0.2282 -0.6439 -0.5820
13116TIP3   OH260762   4.830   3.490   5.116  0.3240  0.1134  0.6356
13116TIP3    H160763   4.760   3.553   5.135  2.9446  3.1791  1.0660
13116TIP3    H260764   4.807   3.454   5.031 -1.6885  1.1016  0.6900
13117TIP3   OH260765   3.234   0.685   0.021  0.0353 -0.4891  0.2063
13117TIP3    H160766   3.286   0.685   0.102 -1.1573 -0.4263  0.9892
13117TIP3    H260767   3.170   0.615   0.033 -1.5320  0.8820  0.2494
13118TIP3   OH260768   1.950   4.664  14.942 -0.0447  0.3670 -0.3535
13118TIP3    H160769   1.907   4.749  14.948 -0.1713  0.2477  0.6166
13118TIP3    H260770   2.039   4.680  14.973  0.0087  0.1916 -0.4153
13119TIP3   OH260771   6.021   4.002   2.321 -1.0980  0.4957 -0.2859
13119TIP3    H160772   6.025   3.915   2.280  1.7525 -1.0008  2.6863
13119TIP3    H260773   6.112   4.021   2.345 -1.8364  3.7396  0.3864
13120TIP3   OH260774   1.674   5.407  14.070 -0.4125 -0.6931  0.5308
13120TIP3    H160775   1.613   5.437  14.139  0.4747  0.7742  0.7286
13120TIP3    H260776   1.687   5.314  14.088 -1.7397 -0.7902  1.1390
13121TIP3   OH260777   1.129   6.049  10.354  0.2486  0.0715  0.3239
13121TIP3    H160778   1.088   6.006  10.429 -0.3454 -0.9461 -0.5615
13121TIP3    H260779   1.057   6.093  10.309  0.6222  0.7815  0.4123
13122TIP3   OH260780   5.783   3.381  16.683 -0.2107  0.2166 -0.0660
13122TIP3    H160781   5.869   3.418  16.662 -0.5274  0.4388 -0.9972
13122TIP3    H260782   5.721   3.436  16.636 -0.8563 -0.0888  0.4111
13123TIP3   OH260783   2.949   0.695  14.699  0.1634  0.2545 -0.0129
13123TIP3    H160784   3.032   0.730  14.665  0.5281  0.9943  1.5801
13123TIP3    H260785   2.963   0.600  14.702  1.2060  0.4113  0.8259
13124TIP3   OH260786   0.835   4.017  14.952  0.1293  0.9681  0.4132
13124TIP3    H160787   0.774   4.088  14.972  0.0977  0.6247  1.6013
13124TIP3    H260788   0.919   4.048  14.985  0.7192  1.5815 -1.5037
13125TIP3   OH260789   5.891   0.586   4.125 -0.0306  0.9199  0.1841
13125TIP3    H160790   5.971   0.616   4.167 -0.0750  0.8464  0.3216
13125TIP3    H260791   5.908   0.595   4.031  1.1829 -1.6178  0.0613
13126TIP3   OH260792   1.188   6.182  13.634 -0.4571 -0.0771  0.0691
13126TIP3    H160793   1.216   6.239  13.561  0.6267  0.2553  0.7187
13126TIP3    H260794   1.198   6.237  13.712  0.9202 -1.2430  0.7458
13127TIP3   OH260795   1.522   5.584  11.250  0.0266  0.1631  0.2293
13127TIP3    H160796   1.540   5.513  11.188 -1.4597  1.3753 -1.7029
13127TIP3    H260797   1.595   5.646  11.237  0.2270 -0.0335  0.4101
13128TIP3   OH260798   1.136   0.700   6.635 -0.2773  0.4874  0.5960
13128TIP3    H160799   1.141   0.623   6.579 -1.4929 -0.0767  1.2426
13128TIP3    H260800   1.167   0.670   6.720 -1.0756  0.6225  0.9386
13129TIP3   OH260801   3.436   6.035   1.950  0.2093 -0.2711 -0.0986
13129TIP3    H160802   3.376   6.109   1.949  0.5554  0.0151 -1.2978
13129TIP3    H260803   3.414   5.988   2.030  0.6721  1.6623  1.2243
13130TIP3   OH260804   1.695   1.211   3.804  0.3204 -0.2233  0.3932
13130TIP3    H160805   1.732   1.259   3.730 -0.5962  0.9832  0.6839
13130TIP3    H260806   1.657   1.279   3.859  0.6746 -1.1350  1.8051
13131TIP3   OH260807   4.725   4.718  12.395 -0.6440  0.0571 -0.3903
13131TIP3    H160808   4.709   4.754  12.482 -1.0309  1.3255 -0.9719
13131TIP3    H260809   4.718   4.793  12.336  0.6002 -0.5958 -1.4161
13132TIP3   OH260810   5.204   5.638   3.839  0.1994  0.3225 -0.0514
13132TIP3    H160811   5.193   5.655   3.746 -1.5211 -0.8280 -0.1078
13132TIP3    H260812   5.116   5.618   3.871  0.9738 -0.9471  1.4723
13133TIP3   OH260813   5.573   2.050   1.012 -0.3309 -0.8602 -0.0522
13133TIP3    H160814   5.662   2.054   0.977 -0.3850 -2.1924 -0.4174
13133TIP3    H260815   5.542   2.140   1.011  1.2725 -0.2685  0.7736
13134TIP3   OH260816   6.652   2.602  13.436 -0.1461 -0.3067 -0.0058
13134TIP3    H160817   6.649   2.644  13.350  1.6471 -0.1277 -0.0163
13134TIP3    H260818   6.695   2.667  13.492  0.3113 -1.1128  0.5902
13135TIP3   OH260819   0.146   1.193  15.266  0.0606  0.1326  0.1492
13135TIP3    H160820   0.117   1.196  15.175  1.6395  1.1788 -0.3636
13135TIP3    H260821   0.071   1.228  15.315 -0.5796  0.1529 -0.8069
13136TIP3   OH260822   0.068   6.300  14.781  0.0100  0.9568 -0.2876
13136TIP3    H160823   0.027   6.263  14.859  1.3390  0.7793  0.3552
13136TIP3    H260824   0.118   6.375  14.813  0.6072  0.8563 -0.9458
13137TIP3   OH260825   2.120   5.165   2.482 -0.1828  0.4460  0.8730
13137TIP3    H160826   2.069   5.238   2.517 -0.3645  1.3130 -1.0526
13137TIP3    H260827   2.061   5.121   2.421  0.9152  0.6532 -0.3784
13138TIP3   OH260828   2.824   4.500   5.668  1.0911  0.0494 -0.0563
13138TIP3    H160829   2.732   4.525   5.654  1.1375 -0.2139 -0.8439
13138TIP3    H260830   2.861   4.574   5.716  0.6822  0.5366 -0.4792
13139TIP3   OH260831   4.096   6.516  14.694 -0.4325 -0.1822 -0.0639
13139TIP3    H160832   4.007   6.552  14.692 -1.2981 -1.9864  2.1176
13139TIP3    H260833   4.101   6.469  14.777  2.8528  0.4799  0.2485
13140TIP3   OH260834   3.503   2.652  16.375  0.4812  0.2391  0.1048
13140TIP3    H160835   3.569   2.695  16.429  1.2350  0.1318 -0.7015
13140TIP3    H260836   3.516   2.558  16.392  1.3599  0.1449 -0.9315
13141TIP3   OH260837   4.532   5.293   2.130  0.2424  0.0759 -0.3598
13141TIP3    H160838   4.553   5.214   2.179 -0.9618  0.1134  0.2481
13141TIP3    H260839   4.555   5.365   2.190  1.8517  0.2354 -1.1128
13142TIP3   OH260840   1.591   0.081   0.070 -0.2064 -0.4067 -0.1242
13142TIP3    H160841   1.683   0.081   0.043  0.1019 -1.6866  0.8300
13142TIP3    H260842   1.586   0.013   0.137 -1.8599 -0.3466 -0.1580
13143TIP3   OH260843   6.507   6.555  16.723  0.9033 -0.9011 -0.1285
13143TIP3    H160844   6.557   6.634  16.702 -0.8738  0.2279 -0.2990
13143TIP3    H260845   6.533   6.492  16.655  0.1419  0.5302 -1.8282
13144TIP3   OH260846   4.457   3.138   0.746  0.1127  0.3855  0.1165
13144TIP3    H160847   4.438   3.082   0.671  0.6674 -0.8101  0.8322
13144TIP3    H260848   4.428   3.225   0.719 -0.1205 -0.1022 -1.3001
13145TIP3   OH260849   5.155   1.290  11.484  0.6674  0.4724 -1.1336
13145TIP3    H160850   5.157   1.255  11.572 -3.3603 -1.2793 -1.5070
13145TIP3    H260851   5.245   1.281  11.452  1.8512 -0.5372  2.1083
13146TIP3   OH260852   1.618   0.669  14.718  0.2223  0.2520  0.1450
13146TIP3    H160853   1.535   0.644  14.759 -0.2674  0.4622 -0.7041
13146TIP3    H260854   1.653   0.587  14.684  1.2193 -0.1361  1.9824
13147TIP3   OH260855   2.509   0.824   2.168  0.2829  0.3171  0.3803
13147TIP3    H160856   2.437   0.841   2.228  0.6332  0.5725  0.7379
13147TIP3    H260857   2.485   0.744   2.122  0.6718 -0.6850  1.8888
13148TIP3   OH260858   1.214   0.006   0.512 -0.7440 -0.0527 -0.1957
13148TIP3    H160859   1.172  -0.080   0.521 -2.2131  0.7032  0.6458
13148TIP3    H260860   1.264  -0.000   0.431  0.2455 -2.1124  0.5031
13149TIP3   OH260861   1.166   1.270  13.946  0.1562 -0.1011  0.8605
13149TIP3    H160862   1.259   1.293  13.941 -0.0123  0.8276  1.6279
13149TIP3    H260863   1.145   1.236  13.859  0.9268  0.8424  0.2846
13150TIP3   OH260864   5.120   0.118  14.042  0.3890  0.5321  0.1153
13150TIP3    H160865   5.033   0.157  14.051 -0.0664 -0.6508  1.1122
13150TIP3    H260866   5.139   0.124  13.948 -0.4816  1.3844 -0.0234
13151TIP3   OH260867   1.600   0.997  14.813 -0.3688 -0.4747  0.6961
13151TIP3    H160868   1.651   1.064  14.858 -1.0819  0.0067  0.7990
13151TIP3    H260869   1.649   0.979  14.733  0.1584 -0.2981  0.9701
13152TIP3   OH260870   2.637   4.276  12.946  0.8448  0.1887 -0.0084
13152TIP3    H160871   2.606   4.286  13.035 -1.2940  0.2902 -0.7075
13152TIP3    H260872   2.577   4.329  12.893  0.3235 -2.0047 -1.7922
13153TIP3   OH260873   4.413   0.962   5.435  0.6439 -0.3350  0.1623
13153TIP3    H160874   4.375   1.025   5.495  2.0582 -1.0673  1.9082
13153TIP3    H260875   4.477   1.012   5.385  0.0963  0.0835 -0.1369
13154TIP3   OH260876   4.367   0.871   4.031 -0.0122  0.3395  0.2604
13154TIP3    H160877   4.416   0.946   3.998  0.5470 -0.2651 -0.3254
13154TIP3    H260878   4.431   0.823   4.085 -0.3171  0.1982  0.5027
13155TIP3   OH260879   5.920   1.327   1.030 -0.3409 -0.2171 -0.7331
13155TIP3    H160880   5.875   1.260   1.082  0.2346 -0.0421  0.0180
13155TIP3    H260881   6.006   1.289   1.011  0.0414  0.3528 -0.1835
13156TIP3   OH260882   2.365   3.770   0.761 -0.5007 -0.4380 -0.5003
13156TIP3    H160883   2.271   3.758   0.743 -1.1869  3.6628 -0.7913
13156TIP3    H260884   2.366   3.818   0.844  1.2708  0.4173 -0.9842
13157TIP3   OH260885   3.516   6.052  13.437  0.0373  0.0877  0.0293
13157TIP3    H160886   3.449   6.009  13.491  0.7785 -1.9603 -0.5910
13157TIP3    H260887   3.591   6.062  13.496 -0.1402  0.5889  0.1783
13158TIP3   OH260888   2.895   4.323   3.851  0.1441 -0.0155  0.5579
13158TIP3    H160889   2.846   4.257   3.802  1.5822  1.0659 -2.5511
13158TIP3    H260890   2.865   4.407   3.816  0.6343  0.8903  2.1880
13159TIP3   OH260891   2.856   1.113  12.647  0.4865 -0.3972 -0.4165
13159TIP3    H160892   2.937   1.163  12.660 -0.2648  0.5221  0.8152
13159TIP3    H260893   2.880   1.023  12.671  0.9867 -0.0176  0.5343
13160TIP3   OH260894   4.712   5.332   0.952 -0.4000 -0.1078  0.4027
13160TIP3    H160895   4.650   5.295   0.890 -0.4269 -1.3456  1.1490
13160TIP3    H260896   4.660   5.355   1.028 -0.1821  0.3302  0.4266
13161TIP3   OH260897   2.785   0.341   4.687 -0.2671 -0.1164 -0.0154
13161TIP3    H160898   2.808   0.254   4.654  1.3462 -0.0101  0.7255
13161TIP3    H260899   2.825   0.402   4.625 -2.2624  0.1573 -1.1164
13162TIP3   OH260900   5.307   2.808   3.104  0.2927  0.3643 -0.4357
13162TIP3    H160901   5.241   2.755   3.150  1.3274 -2.2448 -1.7733
13162TIP3    H260902   5.391   2.773   3.133  1.0011  0.2295 -2.4790
13163TIP3   OH260903   1.129   1.605   3.306 -0.1436 -0.0299 -0.2498
13163TIP3    H160904   1.182   1.647   3.373 -2.3331  0.8060  1.0566
13163TIP3    H260905   1.054   1.568   3.354 -1.7838  0.5823 -2.2037
13164TIP3   OH260906   5.755   1.913  11.851 -0.4561  0.0222  0.6980
13164TIP3    H160907   5.756   1.945  11.761 -0.7192 -1.9033 -0.0419
13164TIP3    H260908   5.669   1.872  11.861 -0.7521  0.9117  2.1183
13165TIP3   OH260909   5.189   5.555   6.286  0.0198  0.2403  0.3918
13165TIP3    H160910   5.173   5.582   6.376 -1.2886  0.5066  0.1016
13165TIP3    H260911   5.266   5.498   6.291 -0.6253 -0.5531  1.8225
13166TIP3   OH260912   2.044   4.427   2.165 -0.2338  0.5318 -0.1482
13166TIP3    H160913   2.019   4.408   2.255 -0.5704  2.5525  0.2264
13166TIP3    H260914   2.132   4.389   2.156 -0.3811 -0.0917  0.8768
13167TIP3   OH260915   0.544   3.337  12.220 -0.3116 -0.3483 -0.3227
13167TIP3    H160916   0.523   3.255  12.175 -0.4075 -1.3143  1.3768
13167TIP3    H260917   0.639   3.339  12.222 -0.3033 -0.1062 -0.9007
13168TIP3   OH260918   3.852   6.599  14.550 -0.1879 -0.4225 -0.0464
13168TIP3    H160919   3.860   6.556  14.465  0.3772  0.8445 -0.6645
13168TIP3    H260920   3.776   6.656  14.541  0.3275  0.2872  0.0318
13169TIP3   OH260921   4.548   6.091  10.535 -0.0013 -0.1815 -0.2465
13169TIP3    H160922   4.489   6.079  10.609  1.2417 -1.4389  0.5866
13169TIP3    H260923   4.608   6.161  10.562 -1.8596  2.0990 -1.6427
13170TIP3   OH260924   6.006   6.715  14.457  0.0010  0.3521  0.0401
13170TIP3    H160925   6.006   6.673  14.371 -0.5973 -1.2014  0.7628
13170TIP3    H260926   5.921   6.692  14.495  0.6845  0.0841  1.4763
13171TIP3   OH260927   4.862   4.866  13.194  0.6151  0.5333  0.1806
13171TIP3    H160928   4.925   4.796  13.180  1.1105  1.0064 -0.0017
13171TIP3    H260929   4.889   4.935  13.133  1.5989  1.8582  2.0062
13172TIP3   OH260930   5.318   4.853   5.831  0.1530 -0.2264 -0.0405
13172TIP3    H160931   5.241   4.884   5.879  0.8951  0.6858  0.6133
13172TIP3    H260932   5.383   4.835   5.899  0.9408  0.2653 -0.6373
13173TIP3   OH260933   5.930   0.879  10.682  0.7735 -0.3438  0.0834
13173TIP3    H160934   5.906   0.844  10.596 -0.2694 -0.6770  0.5019
13173TIP3    H260935   5.850   0.872  10.734  1.0223  1.0436  0.7036
13174TIP3   OH260936   2.417   6.688  13.076 -0.3108 -0.3833  0.4229
13174TIP3    H160937   2.477   6.614  13.078  0.3216  0.0707 -0.8414
13174TIP3    H260938   2.462   6.758  13.123  0.7566  0.3445 -1.5405
13175TIP3   OH260939   1.903   2.308  14.353 -0.1284 -0.3145  0.9702
13175TIP3    H160940   1.842   2.326  14.281  0.3075  1.4535  0.9870
13175TIP3    H260941   1.846   2.287  14.427 -0.9980  3.6187  1.6464
13176TIP3   OH260942   3.854   3.577   4.585  0.4773  0.0722 -0.0077
13176TIP3    H160943   3.938   3.558   4.543 -0.4033  0.3544 -1.9971
13176TIP3    H260944   3.853   3.521   4.663  1.7797 -1.2263 -0.8722
13177TIP3   OH260945   5.949   1.760  12.476 -0.1673  0.0580  0.2837
13177TIP3    H160946   5.884   1.759  12.406 -0.0819 -1.3810  0.1883
13177TIP3    H260947   6.013   1.826  12.450 -1.1682  0.9376 -0.0031
13178TIP3   OH260948   2.428   3.809  14.066 -0.0897 -0.1044  0.0299
13178TIP3    H160949   2.486   3.857  14.007  1.8067 -1.9713  0.2262
13178TIP3    H260950   2.396   3.735  14.014  1.3310 -1.5727  1.1005
13179TIP3   OH260951   0.322   6.443  14.726 -0.0690 -0.0129 -0.9825
13179TIP3    H160952   0.394   6.454  14.665  1.3145 -1.8265  0.1842
13179TIP3    H260953   0.333   6.354  14.760 -1.7229  0.3465  0.6874
13180TIP3   OH260954   6.757   3.018   0.490 -0.7741 -0.1158 -0.2734
13180TIP3    H160955   6.672   3.043   0.454 -0.8337 -1.3173 -1.0266
13180TIP3    H260956   6.739   2.938   0.540  0.0857 -1.0447 -1.3935
13181TIP3   OH260957   3.178   0.949  11.174 -0.3343 -0.0269 -0.0008
13181TIP3    H160958   3.175   0.989  11.087 -1.4010  2.0823  0.9382
13181TIP3    H260959   3.098   0.896  11.178  0.4643 -1.3496 -0.8024
13182TIP3   OH260960   2.195   0.033   4.510  0.7806 -0.1619  0.1105
13182TIP3    H160961   2.208   0.113   4.560  1.2454  0.7327 -1.3571
13182TIP3    H260962   2.179  -0.035   4.575 -1.5332  1.4421  1.3637
13183TIP3   OH260963   1.176   4.896  12.638 -0.4608 -0.2532  0.1923
13183TIP3    H160964   1.175   4.878  12.544 -0.2319 -1.1058  0.3351
13183TIP3    H260965   1.104   4.843  12.673 -1.1547  0.8025  0.3857
13184TIP3   OH260966   4.242   2.813  11.618  0.1326  0.0241 -0.2698
13184TIP3    H160967   4.334   2.831  11.598 -0.2928  1.6042 -1.0043
13184TIP3    H260968   4.207   2.772  11.538  0.0351  0.0607 -0.2464
13185TIP3   OH260969   5.578   2.719  12.426 -0.2382 -0.5799  0.1183
13185TIP3    H160970   5.666   2.741  12.457 -0.3074 -0.1578  0.0208
13185TIP3    H260971   5.546   2.800  12.386 -1.4340 -0.1399  1.8520
13186TIP3   OH260972   6.556   1.440   2.585  0.1333  0.0345 -0.2217
13186TIP3    H160973   6.487   1.406   2.642  0.4930 -0.5264 -0.1153
13186TIP3    H260974   6.637   1.424   2.633  0.3378  0.7692 -0.3077
13187TIP3   OH260975   1.273   4.696  14.590 -0.2407  0.1412  0.3032
13187TIP3    H160976   1.348   4.655  14.633 -2.0642 -0.8166  2.8530
13187TIP3    H260977   1.261   4.646  14.509  1.6591  0.1531 -0.0262
13188TIP3   OH260978   2.142   6.674  16.396 -0.0499  1.1695 -0.1855
13188TIP3    H160979   2.086   6.632  16.330 -0.3155  1.9637 -0.4734
13188TIP3    H260980   2.116   6.633  16.479  0.8394 -0.4143 -0.6459
13189TIP3   OH260981   2.825   0.818   5.783 -0.0636 -0.0032  0.0723
13189TIP3    H160982   2.800   0.887   5.722 -0.6633 -0.8660 -0.6777
13189TIP3    H260983   2.831   0.739   5.729  1.2136 -0.4391  0.7965
13190TIP3   OH260984   3.682   4.404  12.545 -0.4500 -0.1355  0.6761
13190TIP3    H160985   3.658   4.311  12.542  1.8638 -0.7912 -1.6852
13190TIP3    H260986   3.704   4.419  12.637 -2.3034 -1.4587  1.4068
13191TIP3   OH260987   0.895   4.122   0.801  0.5520 -0.0157 -0.3374
13191TIP3    H160988   0.868   4.166   0.881  0.1691  1.3278 -1.1706
13191TIP3    H260989   0.982   4.157   0.781 -0.3531  1.5915 -1.7951
13192TIP3   OH260990   1.227   3.976   5.601 -0.0301  0.1713  0.3368
13192TIP3    H160991   1.231   3.886   5.634 -1.3987 -0.0577 -0.0725
13192TIP3    H260992   1.311   4.014   5.627  1.2244 -1.6607 -0.8189
13193TIP3   OH260993   4.316   1.425   5.600 -0.4216 -0.4291 -0.3245
13193TIP3    H160994   4.389   1.459   5.547  0.0532  0.0844  0.6317
13193TIP3    H260995   4.328   1.330   5.599  0.7614 -0.3169  0.4832
13194TIP3   OH260996   5.477   5.655   3.247 -0.4218  0.3380  0.0641
13194TIP3    H160997   5.524   5.576   3.220 -1.7098 -1.1862  2.0384
13194TIP3    H260998   5.538   5.702   3.303  0.2017  0.5805 -0.7904
13195TIP3   OH260999   6.610   6.770   5.201  0.2477 -0.0727  0.2371
13195TIP3    H161000   6.701   6.763   5.231 -0.5943 -0.8949  2.9394
13195TIP3    H261001   6.580   6.854   5.238  0.2494  0.9347 -1.8864
13196TIP3   OH261002   3.048   4.619   5.068  0.1093 -0.2420 -0.2944
13196TIP3    H161003   3.110   4.569   5.122  0.6166  0.7825  0.1010
13196TIP3    H261004   3.072   4.599   4.978 -0.3919 -1.5443 -0.1586
13197TIP3   OH261005   4.741   1.956   6.163  0.7373  0.6330  0.1092
13197TIP3    H161006   4.789   1.901   6.226  0.3745  0.6896  0.4412
13197TIP3    H261007   4.686   2.012   6.218 -0.8003 -0.4249 -0.2816
13198TIP3   OH261008   2.587   3.182   5.616 -0.0302 -0.3167  0.0827
13198TIP3    H161009   2.533   3.260   5.623  1.6643  1.0280 -1.0444
13198TIP3    H261010   2.560   3.127   5.689 -2.0918  0.7786  0.1997
13199TIP3   OH261011   0.348   1.178  11.342  0.3082  0.0237 -0.3621
13199TIP3    H161012   0.339   1.083  11.347  0.5175  0.0724  1.8280
13199TIP3    H261013   0.442   1.193  11.340  0.2868  0.2020 -0.0629
13200TIP3   OH261014   1.947   1.139   3.110  0.1371  0.2771 -0.6092
13200TIP3    H161015   1.863   1.184   3.105  0.3958  0.6940 -1.1801
13200TIP3    H261016   1.925   1.047   3.092 -0.7699 -0.3378  2.8497
13201TIP3   OH261017   0.118   3.760  13.316 -0.2675  0.0535  0.6457
13201TIP3    H161018   0.034   3.784  13.357  0.2692  0.7801  1.3521
13201TIP3    H261019   0.115   3.665  13.311 -1.2402  0.0814  0.4369
13202TIP3   OH261020   1.622   4.134   4.563 -0.0208  0.0227  0.4516
13202TIP3    H161021   1.584   4.061   4.513  0.2173  0.5187 -0.4770
13202TIP3    H261022   1.577   4.131   4.647 -0.0697 -1.1459  0.4005
13203TIP3   OH261023   3.077   0.872   4.892  0.3331  1.0203  0.6039
13203TIP3    H161024   3.120   0.817   4.958 -0.2350  0.2179  0.3175
13203TIP3    H261025   3.149   0.924   4.854  0.9801  0.0724  0.4877
13204TIP3   OH261026   5.287   0.041   4.140  0.6025  0.1284 -0.0812
13204TIP3    H161027   5.223   0.058   4.071 -1.0486  0.4375  1.4435
13204TIP3    H261028   5.348   0.116   4.135 -1.2227  1.7370  0.6599
13205TIP3   OH261029   5.819   0.373   5.437  0.0531 -0.7205 -0.2190
13205TIP3    H161030   5.753   0.303   5.438  1.1391 -1.8248 -1.4360
13205TIP3    H261031   5.805   0.421   5.519 -2.7267 -0.4454 -0.7733
13206TIP3   OH261032   6.804   3.068  16.530  0.2611  0.0415 -0.5149
13206TIP3    H161033   6.826   3.021  16.610 -0.2074 -1.2421 -1.1203
13206TIP3    H261034   6.712   3.093  16.541  0.2247 -0.0504 -0.6127
13207TIP3   OH261035   4.624   0.608   6.176  0.0458  0.0679  0.4729
13207TIP3    H161036   4.605   0.693   6.217 -0.5072 -1.2913  3.2298
13207TIP3    H261037   4.614   0.544   6.246 -2.5010 -2.7009 -2.1360
13208TIP3   OH261038   5.210   5.405   2.703  0.1355  0.5296 -0.2137
13208TIP3    H161039   5.253   5.387   2.787 -1.6822 -0.0599  0.6226
13208TIP3    H261040   5.254   5.346   2.642  1.0922  0.5468  0.4236
13209TIP3   OH261041   6.768   3.399   3.325  0.2205  0.5264  0.5657
13209TIP3    H161042   6.771   3.396   3.421 -0.0672 -0.0172  0.5667
13209TIP3    H261043   6.858   3.379   3.298  0.2265  0.3309  0.7224
13210TIP3   OH261044   6.090   6.363  13.729 -0.8723 -0.2203 -0.0009
13210TIP3    H161045   6.056   6.443  13.689 -0.6631  0.0435  0.3464
13210TIP3    H261046   6.058   6.365  13.819  0.7657  0.4901  0.6034
13211TIP3   OH261047   3.159   3.359   1.075 -0.5398 -0.1727  0.0022
13211TIP3    H161048   3.067   3.347   1.098 -0.3994  0.0129  0.6652
13211TIP3    H261049   3.169   3.314   0.990 -0.8693 -1.5803  0.6809
13212TIP3   OH261050   6.526   2.682  14.073 -0.6193 -0.4997 -0.2052
13212TIP3    H161051   6.589   2.703  14.141 -0.4988 -1.1894 -0.0934
13212TIP3    H261052   6.566   2.611  14.024 -1.4329 -1.1658  0.0653
13213TIP3   OH261053   2.203   5.819  12.213  0.3798 -0.5179  0.0365
13213TIP3    H161054   2.214   5.801  12.306  1.9332 -0.7811 -0.1702
13213TIP3    H261055   2.292   5.828  12.179 -0.1466 -0.6369 -1.4716
13214TIP3   OH261056   1.262   3.462   0.346 -0.3468  0.6544  0.6760
13214TIP3    H161057   1.285   3.394   0.283  2.1071  1.4981  0.5534
13214TIP3    H261058   1.322   3.449   0.419 -2.0040  0.7401  2.1309
13215TIP3   OH261059   1.373   5.419  16.021 -0.8250 -0.1412  0.4997
13215TIP3    H161060   1.360   5.512  16.005 -1.0100 -0.2275  0.1430
13215TIP3    H261061   1.456   5.399  15.980 -1.3687 -0.3937 -0.5050
13216TIP3   OH261062   4.097   5.124  13.096  0.1469 -0.5673  0.2627
13216TIP3    H161063   4.188   5.094  13.092 -0.4456 -2.3134 -1.0264
13216TIP3    H261064   4.090   5.188  13.025  0.6502  0.5219  1.1564
13217TIP3   OH261065   1.437   1.264   5.204  0.6178 -1.0970 -0.6184
13217TIP3    H161066   1.489   1.197   5.249  1.1057  0.1978  0.8317
13217TIP3    H261067   1.349   1.255   5.240  0.2492 -2.0657 -1.7059
13218TIP3   OH261068   2.115   0.670  15.924 -0.5561 -0.8146 -0.0726
13218TIP3    H161069   2.171   0.720  15.984 -1.5620 -2.2288  2.2191
13218TIP3    H261070   2.026   0.689  15.953 -1.3623  0.9458 -3.2774
13219TIP3   OH261071   2.509   1.407  17.009 -0.1193 -0.1685  0.5218
13219TIP3    H161072   2.460   1.325  17.020 -1.1108  0.5844  2.0254
13219TIP3    H261073   2.553   1.420  17.093 -0.4855  1.1485  0.5341
13220TIP3   OH261074   1.170   1.538   5.834  0.3547 -0.2091 -0.1140
13220TIP3    H161075   1.156   1.444   5.820  1.4535 -0.3771 -0.1690
13220TIP3    H261076   1.257   1.544   5.872  1.8351  1.0262 -3.3793
13221TIP3   OH261077   1.300   4.833  12.040  0.1388 -0.3483 -0.1201
13221TIP3    H161078   1.358   4.906  12.016 -1.1919  0.5197 -0.8377
13221TIP3    H261079   1.346   4.788  12.110  1.4357  0.6256 -0.3027
13222TIP3   OH261080   5.494   6.567   4.333 -0.2368  0.3048  0.3664
13222TIP3    H161081   5.540   6.636   4.287  2.1486 -0.9002  0.8067
13222TIP3    H261082   5.430   6.534   4.269  1.2786  0.3340 -1.2293
13223TIP3   OH261083   2.736   4.778   0.201  0.6514 -0.0415 -0.7630
13223TIP3    H161084   2.645   4.799   0.220  0.6147 -0.5744 -0.3086
13223TIP3    H261085   2.784   4.804   0.280  0.8672  0.0890 -0.9358
13224TIP3   OH261086   4.563   1.861  13.890  0.9640 -0.0704  0.1029
13224TIP3    H161087   4.570   1.952  13.918  0.6855 -0.4046  1.2908
13224TIP3    H261088   4.589   1.809  13.967  0.3765 -1.0077 -0.3088
13225TIP3   OH261089   3.103   1.860  13.505  0.0736 -0.2400  0.0563
13225TIP3    H161090   3.137   1.825  13.588  3.6387  0.3579 -0.9810
13225TIP3    H261091   3.167   1.927  13.480 -2.9692  2.3969 -1.3176
13226TIP3   OH261092   4.932   2.808  15.201  0.0167 -0.4578 -0.5653
13226TIP3    H161093   4.997   2.796  15.271  0.6602  2.7976 -0.4380
13226TIP3    H261094   4.926   2.722  15.159  1.4276 -1.8963  1.9237
13227TIP3   OH261095   3.037   4.021  11.823  0.2000 -0.2675 -0.3764
13227TIP3    H161096   3.123   4.053  11.851  0.7625 -2.7960  1.1068
13227TIP3    H261097   2.994   3.995  11.904 -1.3776 -0.5061 -1.2462
13228TIP3   OH261098   4.612   1.835  14.325 -0.5491 -0.3549  0.4547
13228TIP3    H161099   4.584   1.924  14.306 -0.0810 -0.3685 -0.3130
13228TIP3    H261100   4.537   1.796  14.370 -0.7853  0.3979  0.7295
13229TIP3   OH261101   0.876   4.803   2.201  0.6468 -0.0364  0.0525
13229TIP3    H161102   0.898   4.777   2.111  0.9406 -1.3511  0.4827
13229TIP3    H261103   0.919   4.737   2.256  0.7286  0.9317  1.1733
13230TIP3   OH261104   4.966   5.631  14.400  0.3136  0.3016  0.2647
13230TIP3    H161105   4.949   5.670  14.314 -1.0496 -0.7324  0.0309
13230TIP3    H261106   4.879   5.616  14.437  0.7727 -2.1152  0.4924
13231TIP3   OH261107   3.574   5.165  11.883  0.6227 -0.4572  0.0988
13231TIP3    H161108   3.494   5.127  11.920  0.0618  0.3970 -0.2095
13231TIP3    H261109   3.623   5.090  11.849 -0.8464 -0.8396 -1.2547
13232TIP3   OH261110   4.951   1.276   5.004  0.2071  0.1466  0.1681
13232TIP3    H161111   4.970   1.360   4.963  0.9322 -0.4083 -0.6719
13232TIP3    H261112   4.926   1.219   4.931 -0.5512 -0.2958  0.7584
13233TIP3   OH261113   3.783   5.937  14.051  0.1236  0.6259 -0.1944
13233TIP3    H161114   3.778   5.885  13.971 -0.0622 -0.3941  0.4624
13233TIP3    H261115   3.714   5.901  14.107 -0.0487  1.6314  0.2527
13234TIP3   OH261116   5.445   0.431  12.929  0.6349  0.2312  0.5345
13234TIP3    H161117   5.466   0.505  12.872  1.6129 -0.1940  0.3316
13234TIP3    H261118   5.494   0.358  12.893 -0.8227 -0.6993  0.3387
13235TIP3   OH261119   4.328   0.313  13.402 -0.0466  0.3126  0.5066
13235TIP3    H161120   4.318   0.280  13.491  1.2930 -0.0818  0.5310
13235TIP3    H261121   4.362   0.402  13.414  0.0834  0.2784  0.3946
13236TIP3   OH261122   6.255   3.792  14.235  0.4103 -0.0296 -0.0430
13236TIP3    H161123   6.320   3.856  14.206  0.2208 -0.8586 -2.5191
13236TIP3    H261124   6.306   3.727  14.284  0.9031  0.9356  0.7707
13237TIP3   OH261125   3.233   2.119  13.439  0.4124  0.4218  0.5415
13237TIP3    H161126   3.214   2.135  13.531  1.3905  2.4788  0.4428
13237TIP3    H261127   3.326   2.140  13.430 -0.0581  2.0075 -1.2252
13238TIP3   OH261128   2.505   3.238  12.048  0.0768  1.2166  0.0710
13238TIP3    H161129   2.559   3.166  12.016  0.1237  1.3186 -0.0792
13238TIP3    H261130   2.537   3.316  12.002 -0.3921  1.2283 -0.2494
13239TIP3   OH261131   5.273   5.103  13.070  0.4365  0.0816  0.6649
13239TIP3    H161132   5.351   5.145  13.107  0.3849  0.7831 -0.0076
13239TIP3    H261133   5.211   5.174  13.056 -0.7597 -0.5901  2.1602
13240TIP3   OH261134   2.062   0.515   1.223 -0.2788 -0.0963  0.4694
13240TIP3    H161135   2.056   0.455   1.149 -1.8501  0.9613 -0.3056
13240TIP3    H261136   2.073   0.602   1.183 -0.6853  0.4375  1.4691
13241TIP3   OH261137   0.324   6.450   0.313  0.0840 -0.7026 -0.0868
13241TIP3    H161138   0.410   6.486   0.334  0.0942 -1.3116  1.0012
13241TIP3    H261139   0.314   6.464   0.219  1.3497 -0.5849 -0.2195
13242TIP3   OH261140   2.810   3.610  14.756  0.1164  0.0475 -0.1244
13242TIP3    H161141   2.788   3.518  14.749 -0.6101  0.1215  0.9589
13242TIP3    H261142   2.759   3.642  14.831  2.7151  0.5904  1.5657
13243TIP3   OH261143   5.929   0.724   5.708  0.3987  0.2115 -0.3420
13243TIP3    H161144   5.963   0.691   5.791  0.2545 -0.1075 -0.4089
13243TIP3    H261145   5.865   0.658   5.680 -0.9867  1.2666  0.2432
13244TIP3   OH261146   3.408   5.728   5.422 -0.1431 -0.6012 -0.5715
13244TIP3    H161147   3.349   5.791   5.381  1.0281  1.6446  1.0083
13244TIP3    H261148   3.466   5.701   5.350 -1.0514 -0.3697 -1.4179
13245TIP3   OH261149   5.986   1.922   2.853  0.1116 -0.6426 -0.1055
13245TIP3    H161150   6.014   1.832   2.834  1.1045 -0.7291  1.5671
13245TIP3    H261151   6.063   1.976   2.832 -0.2633 -0.2555 -0.4950
13246TIP3   OH261152   0.383   6.330   6.223  0.1619 -0.2095 -0.0495
13246TIP3    H161153   0.329   6.263   6.265  1.1422 -0.6246  0.5516
13246TIP3    H261154   0.451   6.350   6.286 -1.5721  3.3292  0.9799
13247TIP3   OH261155   5.221   3.438   2.546  0.1252  0.2201  0.0415
13247TIP3    H161156   5.273   3.427   2.626 -0.0541  0.8641  0.2569
13247TIP3    H261157   5.270   3.502   2.495 -0.8086  1.4191  0.5836
13248TIP3   OH261158   5.103   2.594  13.687  0.2785  0.3733 -0.1986
13248TIP3    H161159   5.129   2.503  13.697 -0.0518  0.3607  0.5982
13248TIP3    H261160   5.089   2.605  13.593 -1.3327 -0.8426 -0.1237
13249TIP3   OH261161   6.388   2.465   1.756  0.0134 -0.1587 -0.7066
13249TIP3    H161162   6.407   2.535   1.694  1.2743 -1.8624 -2.3177
13249TIP3    H261163   6.455   2.473   1.824  0.0497  0.2861 -0.7965
13250TIP3   OH261164   3.427   1.212   0.138  0.0627  0.4580 -0.3780
13250TIP3    H161165   3.419   1.119   0.119 -1.2040  0.4204  0.2561
13250TIP3    H261166   3.502   1.218   0.197  0.7032 -0.0395 -1.1177
13251TIP3   OH261167   6.215   3.473  10.837  0.3840  0.2282 -0.2931
13251TIP3    H161168   6.284   3.496  10.775  0.4129 -0.1813 -0.4134
13251TIP3    H261169   6.135   3.509  10.799  0.5386  0.7850 -0.1069
13252TIP3   OH261170   2.342   4.219  11.661  0.8381  0.3291  0.2862
13252TIP3    H161171   2.349   4.154  11.591  0.2019  1.5501 -0.9681
13252TIP3    H261172   2.262   4.197  11.707  0.9317 -0.1154  0.2346
13253TIP3   OH261173   2.592   4.342  11.700  0.0707  0.0345 -0.3723
13253TIP3    H161174   2.569   4.289  11.777 -0.4663 -0.0837 -0.6093
13253TIP3    H261175   2.523   4.324  11.637 -0.4535  1.4603 -0.2510
13254TIP3   OH261176   1.856   5.000  10.461 -0.4265 -0.0511 -0.0687
13254TIP3    H161177   1.801   4.977  10.536 -1.1422 -1.6804 -1.0208
13254TIP3    H261178   1.807   5.068  10.416 -0.9826 -0.4703 -0.1162
13255TIP3   OH261179   2.739   4.730  13.659  0.0705 -0.2763  0.1550
13255TIP3    H161180   2.695   4.649  13.635 -0.5998 -0.2563  1.2342
13255TIP3    H261181   2.680   4.772  13.722  0.1662  1.2956 -0.7347
13256TIP3   OH261182   1.557   0.476  10.833 -0.5876 -0.5619  0.3818
13256TIP3    H161183   1.512   0.543  10.782 -1.5185 -1.8078 -0.5033
13256TIP3    H261184   1.647   0.507  10.841 -0.5931  0.0043 -1.4565
13257TIP3   OH261185   6.242   3.147   0.424 -0.6337  0.1787 -0.2934
13257TIP3    H161186   6.242   3.157   0.519 -1.9507 -0.4325 -0.1994
13257TIP3    H261187   6.211   3.231   0.391  2.7330  1.5126 -0.4133
13258TIP3   OH261188   4.922   2.678  16.681 -0.3799 -0.2443  0.3726
13258TIP3    H161189   4.865   2.623  16.627  0.3936 -1.2433  0.5556
13258TIP3    H261190   4.993   2.704  16.622  0.7289 -1.7345  0.9858
13259TIP3   OH261191   1.449   2.467  10.635 -0.1313  0.0320 -0.0789
13259TIP3    H161192   1.514   2.399  10.616  0.3661  0.5135 -0.1062
13259TIP3    H261193   1.499   2.538  10.675 -0.4238  0.9400 -1.2599
13260TIP3   OH261194   3.635   0.432   6.221 -0.0004  0.1022  0.1982
13260TIP3    H161195   3.719   0.434   6.176 -0.4215  0.7369 -0.5827
13260TIP3    H261196   3.658   0.425   6.314  0.9160  0.3244 -0.0025
13261TIP3   OH261197   5.599   5.440  13.307 -0.3397 -0.5811  0.3368
13261TIP3    H161198   5.544   5.480  13.374 -0.1010 -1.6383  1.1835
13261TIP3    H261199   5.649   5.514  13.271  0.9001 -0.1992  2.6160
13262TIP3   OH261200   1.304   3.270   1.191 -0.0523  0.0065  0.3387
13262TIP3    H161201   1.384   3.218   1.196 -0.4384 -0.5983  0.1984
13262TIP3    H261202   1.234   3.211   1.218 -0.3859  0.7023  1.0134
13263TIP3   OH261203   3.833   2.893   0.617  0.2656  0.0053 -0.1739
13263TIP3    H161204   3.876   2.815   0.582  0.5147 -0.5270  1.2742
13263TIP3    H261205   3.861   2.898   0.708 -0.1667  1.5006 -0.0950
13264TIP3   OH261206   0.416   2.208   2.755 -0.1743  0.4669 -0.4142
13264TIP3    H161207   0.508   2.186   2.767 -0.2506  0.5273  0.3958
13264TIP3    H261208   0.413   2.304   2.766 -0.4478  0.3681  0.5271
13265TIP3   OH261209   0.695   4.970   1.523  0.2596 -0.4016 -0.2076
13265TIP3    H161210   0.671   4.920   1.601 -4.0763 -0.6269 -1.3945
13265TIP3    H261211   0.708   5.059   1.556  0.7125 -0.8951  1.0247
13266TIP3   OH261212   3.021   4.812  16.702 -0.3362 -0.5088 -0.0597
13266TIP3    H161213   2.929   4.824  16.678 -0.7300 -1.2607  0.9959
13266TIP3    H261214   3.069   4.821  16.620 -1.3126  0.2772 -0.5621
13267TIP3   OH261215   2.409   2.762   5.555 -0.0947  0.4634 -0.6423
13267TIP3    H161216   2.401   2.857   5.546 -1.9548  0.2725 -1.3960
13267TIP3    H261217   2.452   2.734   5.475 -1.6622  0.4710 -1.5290
13268TIP3   OH261218   1.402   1.657   1.504 -0.1379 -0.1855 -0.0472
13268TIP3    H161219   1.316   1.695   1.517 -0.1692 -0.4484  0.5229
13268TIP3    H261220   1.441   1.654   1.591  1.1164  1.4871 -0.4967
13269TIP3   OH261221   2.218   2.578   4.824 -0.1632 -0.1189 -0.0963
13269TIP3    H161222   2.169   2.634   4.884  2.3041 -0.4281  2.3957
13269TIP3    H261223   2.206   2.489   4.859  1.2612 -0.3236 -0.0861
13270TIP3   OH261224   4.719   5.571   5.478  0.1284  0.6013  0.8000
13270TIP3    H161225   4.696   5.559   5.570 -0.9524  1.6371  0.6955
13270TIP3    H261226   4.678   5.654   5.454  0.9168  0.6553 -0.4572
13271TIP3   OH261227   0.768   0.731   2.891  0.1019  0.5098  0.0376
13271TIP3    H161228   0.776   0.812   2.840 -1.4256  0.5587 -0.1747
13271TIP3    H261229   0.713   0.674   2.837  0.3908 -0.3269  0.6023
13272TIP3   OH261230   2.476   0.559   1.470 -0.1325  0.9382  0.1401
13272TIP3    H161231   2.447   0.497   1.403  0.9212 -1.0116  1.3782
13272TIP3    H261232   2.396   0.601   1.500 -0.8396  0.4969 -1.0402
13273TIP3   OH261233   5.683   0.256  14.999  0.1634 -0.7217  0.7829
13273TIP3    H161234   5.738   0.276  14.922 -0.4874 -2.3496 -0.1599
13273TIP3    H261235   5.596   0.288  14.975  0.0018 -1.0518  0.9228
13274TIP3   OH261236   4.918   1.063  12.099 -0.3493 -0.2479 -0.2103
13274TIP3    H161237   4.927   0.990  12.038 -0.5616  1.2435 -2.0858
13274TIP3    H261238   4.932   1.141  12.046  0.6684  1.0965  1.8903
13275TIP3   OH261239   0.173   5.999  11.060  0.0853  0.5931 -0.7919
13275TIP3    H161240   0.129   6.015  10.977 -0.7338  1.4717 -0.2076
13275TIP3    H261241   0.102   5.980  11.122  0.5325  1.7498  0.1038
13276TIP3   OH261242   5.140   3.441   1.763  0.3159 -0.4976  0.7052
13276TIP3    H161243   5.132   3.459   1.669  0.4998  1.2634  0.9841
13276TIP3    H261244   5.231   3.465   1.784  0.3334 -1.0578  1.3018
13277TIP3   OH261245   3.568   6.197  12.748 -0.2288 -0.3179  0.2891
13277TIP3    H161246   3.620   6.177  12.670 -1.5195  0.0694 -0.7203
13277TIP3    H261247   3.594   6.285  12.773 -0.3033 -0.1726 -0.1387
13278TIP3   OH261248   2.206   6.465   1.444  0.9390  0.1764  0.5377
13278TIP3    H161249   2.138   6.397   1.438  1.8179 -0.6208 -0.7464
13278TIP3    H261250   2.162   6.544   1.414  0.5143 -0.3084 -0.1731
13279TIP3   OH261251   1.530   4.420   5.551  0.5858  0.2335  0.2103
13279TIP3    H161252   1.453   4.440   5.499  0.7153 -0.2457 -0.1766
13279TIP3    H261253   1.585   4.366   5.493  1.0714  0.3224  0.5804
13280TIP3   OH261254   1.574   4.295  12.252  0.4570 -0.0134  0.4230
13280TIP3    H161255   1.596   4.238  12.326 -0.5353  2.9729  3.2506
13280TIP3    H261256   1.549   4.378  12.292  1.5061  2.3963 -3.3924
13281TIP3   OH261257   2.921   5.652   0.806 -0.2686 -0.0978 -0.0912
13281TIP3    H161258   2.930   5.582   0.871 -0.8871  0.9793  1.2209
13281TIP3    H261259   3.010   5.683   0.792  0.1068 -1.6166 -1.2636
13282TIP3   OH261260   5.378   5.572  13.570  0.2614  0.0743  0.5904
13282TIP3    H161261   5.332   5.620  13.639 -0.4881 -0.3635  0.4052
13282TIP3    H261262   5.407   5.640  13.509 -0.5665  0.3266  0.4623
13283TIP3   OH261263   3.535   3.868  12.487  0.5633  0.0292 -0.6513
13283TIP3    H161264   3.614   3.879  12.539  0.2176 -1.0581  0.1460
13283TIP3    H261265   3.538   3.777  12.457 -0.8128 -0.3068  0.1550
13284TIP3   OH261266   2.458   1.919  11.558 -0.3432  0.0214  0.2155
13284TIP3    H161267   2.554   1.915  11.564 -0.3323  1.0488  1.0847
13284TIP3    H261268   2.434   1.843  11.505  0.8596 -0.9661  1.0244
13285TIP3   OH261269   2.153   1.173  15.196  0.1777 -0.1631  0.0117
13285TIP3    H161270   2.218   1.196  15.262 -0.0088  1.1483 -0.2426
13285TIP3    H261271   2.184   1.215  15.116 -0.8521  0.2797 -0.1639
13286TIP3   OH261272   0.914   6.639  14.628 -0.0674  0.5118 -0.6161
13286TIP3    H161273   0.976   6.612  14.560  0.8334 -0.9819  0.7251
13286TIP3    H261274   0.894   6.730  14.607  4.1962  1.8111 -0.0193
13287TIP3   OH261275   0.821   0.722   0.201  0.0845  0.2110  0.2699
13287TIP3    H161276   0.811   0.758   0.113 -0.7246 -0.0558  0.2497
13287TIP3    H261277   0.833   0.798   0.258 -1.0544  0.4874  0.1535
13288TIP3   OH261278   0.736   5.325  15.202 -0.1886  0.2042  0.5086
13288TIP3    H161279   0.658   5.366  15.240  0.2338  0.7184  0.8247
13288TIP3    H261280   0.701   5.252  15.151 -0.8098 -0.2446  1.5283
13289TIP3   OH261281   3.676   2.022  16.916 -0.4423 -0.2786 -0.0003
13289TIP3    H161282   3.754   1.970  16.897 -0.6890 -0.3966 -0.7043
13289TIP3    H261283   3.693   2.059  17.003  0.4639 -0.1772 -0.2069
13290TIP3   OH261284   6.337   2.622  15.611 -0.0299 -0.1514  0.4839
13290TIP3    H161285   6.418   2.661  15.643 -0.0611  1.2661 -1.0059
13290TIP3    H261286   6.292   2.591  15.690  2.0236 -1.1604  1.3243
13291TIP3   OH261287   5.068   2.919  12.577 -0.2746 -0.5148 -0.2308
13291TIP3    H161288   5.140   2.918  12.514  0.1566  1.4101  0.1588
13291TIP3    H261289   5.057   3.012  12.598  0.1933 -1.1159  3.2024
13292TIP3   OH261290   2.721   2.130  14.206  0.1828  0.0795 -0.4059
13292TIP3    H161291   2.689   2.119  14.116  0.2760 -1.3300 -0.2913
13292TIP3    H261292   2.657   2.188  14.247 -0.0709  0.4359 -1.2751
13293TIP3   OH261293   6.186   5.733  13.477 -0.5308 -0.5332  0.3537
13293TIP3    H161294   6.143   5.810  13.515 -1.5207 -0.4715 -0.8185
13293TIP3    H261295   6.232   5.692  13.550  0.3758  1.4030  0.9164
13294TIP3   OH261296   5.508   5.829   4.207  0.1293 -0.9301 -0.4232
13294TIP3    H161297   5.504   5.797   4.117 -0.5945 -1.7823 -0.0940
13294TIP3    H261298   5.421   5.812   4.243 -0.1905  1.1068 -0.1193
13295TIP3   OH261299   0.914   0.176   4.680  0.1525 -0.4835 -0.0606
13295TIP3    H161300   0.883   0.236   4.612  1.6077 -0.1510 -0.4787
13295TIP3    H261301   0.884   0.090   4.651 -0.3965 -0.1756 -0.4166
13296TIP3   OH261302   0.980   1.440   1.985  0.0210 -0.0037  0.4985
13296TIP3    H161303   1.026   1.370   2.031  0.9853  0.4944  0.3238
13296TIP3    H261304   0.891   1.437   2.018 -0.3711 -2.2874 -0.6008
13297TIP3   OH261305   1.760   5.508   3.851 -0.3291 -0.2733  0.1196
13297TIP3    H161306   1.841   5.504   3.901  0.0548  3.3945  0.0220
13297TIP3    H261307   1.691   5.511   3.917 -0.1817 -0.3401  0.2764
13298TIP3   OH261308   5.021   4.347  11.722  0.0336  0.6269 -0.0394
13298TIP3    H161309   4.937   4.360  11.765 -0.1963 -0.0650 -0.2705
13298TIP3    H261310   5.058   4.269  11.764  0.2397  0.5126 -0.4268
13299TIP3   OH261311   5.857   6.038   1.369 -0.2557 -0.3725  0.2960
13299TIP3    H161312   5.941   5.995   1.352 -0.9873 -1.4004 -0.8488
13299TIP3    H261313   5.799   6.005   1.301 -1.3753  0.9766  0.5607
13300TIP3   OH261314   6.581   5.360   5.357  0.8014 -0.5425 -0.2241
13300TIP3    H161315   6.542   5.287   5.308  0.2241  0.0537 -0.6691
13300TIP3    H261316   6.546   5.439   5.314  0.5486 -0.0043  0.9453
13301TIP3   OH261317   1.656   3.655   1.883 -0.4999  0.1107  0.4254
13301TIP3    H161318   1.642   3.643   1.789  2.0274  0.0542  0.0020
13301TIP3    H261319   1.568   3.650   1.921 -1.3808 -2.3728 -1.6527
13302TIP3   OH261320   0.817   0.021  15.924  0.3014 -0.6753 -0.3334
13302TIP3    H161321   0.849   0.111  15.915 -0.3375 -0.2247  1.4454
13302TIP3    H261322   0.725   0.031  15.950  0.8849 -1.7410  2.4396
13303TIP3   OH261323   6.485   1.217  15.805 -0.1390 -1.0591  0.3707
13303TIP3    H161324   6.475   1.303  15.766 -2.2212 -1.3566  0.1219
13303TIP3    H261325   6.537   1.232  15.884 -0.5281  0.4384  0.3707
13304TIP3   OH261326   5.215   0.754  16.833 -0.4855 -0.6041  0.0916
13304TIP3    H161327   5.159   0.815  16.881  1.5781 -2.0266  4.9439
13304TIP3    H261328   5.164   0.673  16.830 -0.7510 -0.4186 -0.4578
13305TIP3   OH261329   2.265   1.077   4.022  0.0121 -0.1812 -0.1351
13305TIP3    H161330   2.269   0.982   4.012  0.7948 -0.0046 -1.9314
13305TIP3    H261331   2.272   1.091   4.116 -1.1630 -1.9261  0.2602
13306TIP3   OH261332   5.916   2.050  14.226  0.4152  0.5835 -0.1368
13306TIP3    H161333   6.006   2.075  14.207  0.3588  0.0808 -1.0932
13306TIP3    H261334   5.919   1.955  14.237 -0.1670  0.4318 -1.1858
13307TIP3   OH261335   4.121   4.086  12.758 -0.0292 -0.3362 -0.4740
13307TIP3    H161336   4.172   4.102  12.838  1.3787 -0.7154 -1.2727
13307TIP3    H261337   4.044   4.143  12.768  0.7598  0.6053  0.5541
13308TIP3   OH261338   5.556   0.946   5.246  0.4534 -0.0429  0.1121
13308TIP3    H161339   5.510   1.029   5.232 -1.8514 -0.9134  1.9040
13308TIP3    H261340   5.515   0.886   5.183  1.2308 -0.1436 -0.3059
13309TIP3   OH261341   4.552   1.992   0.053  0.3945  0.2069  0.2394
13309TIP3    H161342   4.509   1.907   0.064  0.0464  0.2960 -0.3911
13309TIP3    H261343   4.517   2.027  -0.029  1.0828  0.6413  0.1174
13310TIP3   OH261344   2.891   1.202  14.286 -0.0486  0.3934  0.3137
13310TIP3    H161345   2.972   1.153  14.303 -0.6049  0.0628  2.3705
13310TIP3    H261346   2.844   1.150  14.221  0.1049 -1.0244  1.2749
13311TIP3   OH261347   3.563   2.032  12.772 -0.1317  0.6533 -0.2609
13311TIP3    H161348   3.521   2.025  12.687 -0.8640 -0.5231  0.1641
13311TIP3    H261349   3.497   2.074  12.828 -1.3328 -2.2335  0.6992
13312TIP3   OH261350   4.204   2.469  16.530  0.7526 -0.2512  0.4483
13312TIP3    H161351   4.160   2.386  16.546 -1.2551  0.7347  0.4404
13312TIP3    H261352   4.249   2.489  16.612  1.0343 -1.1888  0.5340
13313TIP3   OH261353   0.606   3.833   0.656 -0.1175 -0.3321 -0.2708
13313TIP3    H161354   0.702   3.841   0.653 -0.2664  1.4796 -1.5581
13313TIP3    H261355   0.578   3.903   0.715 -0.6795 -0.8866  0.1394
13314TIP3   OH261356   3.877   0.638   4.198  0.1029 -0.2667 -0.2899
13314TIP3    H161357   3.858   0.670   4.286 -0.6052  0.9015 -0.8376
13314TIP3    H261358   3.812   0.569   4.184  0.3994 -0.6564  0.1898
13315TIP3   OH261359   5.769   4.139   4.624  0.5136 -0.2666 -0.0992
13315TIP3    H161360   5.778   4.232   4.644 -0.8053  0.0944 -0.9895
13315TIP3    H261361   5.710   4.105   4.691  1.3595 -0.5800  0.4986
13316TIP3   OH261362   2.328   2.151  11.538 -0.0405 -0.3611 -0.4810
13316TIP3    H161363   2.352   2.060  11.553 -1.5256 -0.3325  2.6788
13316TIP3    H261364   2.233   2.151  11.531 -0.1706  1.0649  0.8530
13317TIP3   OH261365   5.604   2.550  16.011  0.1969 -0.2505 -0.0575
13317TIP3    H161366   5.675   2.491  15.985 -0.2157 -0.0594 -1.7002
13317TIP3    H261367   5.536   2.536  15.946  0.0650  1.9932 -0.4705
13318TIP3   OH261368   0.776   2.593  16.326  0.0589  0.1367 -0.3319
13318TIP3    H161369   0.820   2.533  16.386  1.0678  1.1048 -0.0551
13318TIP3    H261370   0.762   2.673  16.378 -1.8763 -0.0623 -0.4781
13319TIP3   OH261371   2.169   1.239  15.740 -0.0413  0.4177  0.3144
13319TIP3    H161372   2.163   1.148  15.711 -0.0568  0.7555 -0.8199
13319TIP3    H261373   2.236   1.239  15.809  1.7885 -0.0880 -1.3649
13320TIP3   OH261374   5.474   5.546  16.241 -0.1842  0.4324 -0.0650
13320TIP3    H161375   5.415   5.609  16.282 -0.0012 -0.4353  1.6476
13320TIP3    H261376   5.521   5.505  16.315  0.4220 -0.9829 -1.1698
13321TIP3   OH261377   5.035   3.062   1.939  0.0113 -0.4041  0.2296
13321TIP3    H161378   5.118   3.101   1.968 -0.1510 -0.5223  0.8815
13321TIP3    H261379   5.030   2.979   1.987 -0.5993 -0.2784  0.3829
13322TIP3   OH261380   2.623   3.429   2.976  0.4012 -0.6178  0.2393
13322TIP3    H161381   2.557   3.441   2.908  0.2421 -2.3107  0.0548
13322TIP3    H261382   2.587   3.473   3.053  0.5645  1.2781 -0.7203
13323TIP3   OH261383   5.189   4.704  16.822  0.4087 -0.5243  0.1615
13323TIP3    H161384   5.200   4.625  16.874 -0.6772  0.0014  1.2276
13323TIP3    H261385   5.190   4.776  16.885 -0.1009  0.2020 -0.6298
13324TIP3   OH261386   1.199   5.087  12.219 -0.7057 -0.1370 -0.3054
13324TIP3    H161387   1.280   5.109  12.174 -1.2092  2.2540 -0.1325
13324TIP3    H261388   1.131   5.097  12.153 -1.0764 -0.0749  0.0828
13325TIP3   OH261389   2.077   0.811   0.519 -0.3611  0.7877 -0.4077
13325TIP3    H161390   2.037   0.843   0.600 -0.3116  0.7265 -0.3588
13325TIP3    H261391   2.063   0.881   0.456  0.1251  1.0857 -0.1868
13326TIP3   OH261392   1.849   0.711  15.972 -0.3459 -0.6237  0.0773
13326TIP3    H161393   1.798   0.789  15.997 -1.0412 -0.5471 -1.4866
13326TIP3    H261394   1.831   0.699  15.879  2.4384 -0.6721 -0.5415
13327TIP3   OH261395   5.659   3.337  11.721 -0.5016  0.7174  0.0327
13327TIP3    H161396   5.581   3.357  11.669 -0.6630 -1.2415 -0.5291
13327TIP3    H261397   5.649   3.246  11.746  1.6797  0.3779 -0.1549
13328TIP3   OH261398   6.475   5.916  12.855 -0.5991  0.4437 -0.3009
13328TIP3    H161399   6.433   5.843  12.808  0.4897 -0.3542 -0.0607
13328TIP3    H261400   6.409   5.945  12.918 -0.7200 -0.9543  0.2464
13329TIP3   OH261401   3.182   5.879   1.824  0.1137  0.3075 -0.2637
13329TIP3    H161402   3.101   5.925   1.803 -0.1872 -0.0906  0.0038
13329TIP3    H261403   3.154   5.806   1.879  0.6500  0.1395 -0.2106
13330TIP3   OH261404   6.529   6.491  11.405 -0.1732 -0.0835 -0.3980
13330TIP3    H161405   6.499   6.544  11.478 -1.8570 -0.8429 -0.4718
13330TIP3    H261406   6.512   6.401  11.432  3.5200 -0.7612  0.1300
13331TIP3   OH261407   1.181   1.697  14.174 -0.1086  0.1087 -0.2647
13331TIP3    H161408   1.094   1.663  14.194  0.0480 -0.6684 -0.8884
13331TIP3    H261409   1.166   1.791  14.158 -0.5297  0.3775  1.4829
13332TIP3   OH261410   4.361   5.121   5.266  0.2072  0.0670 -0.3430
13332TIP3    H161411   4.352   5.053   5.332  0.2719 -1.6873 -2.0510
13332TIP3    H261412   4.380   5.201   5.316 -2.4371 -0.5608  1.9296
13333TIP3   OH261413   1.339   3.079  13.394  0.0913  0.5880  0.0195
13333TIP3    H161414   1.293   3.163  13.391 -0.6006  0.2274  0.2946
13333TIP3    H261415   1.315   3.035  13.313  1.2841  1.0688 -0.6167
13334TIP3   OH261416   2.278   2.063   3.516 -0.2085  0.1773  0.1116
13334TIP3    H161417   2.369   2.090   3.525 -0.1831  0.0506  0.2332
13334TIP3    H261418   2.273   2.022   3.429 -0.5752  1.8837 -0.7016
13335TIP3   OH261419   0.911   0.954   5.699  0.6331  0.3524 -0.1731
13335TIP3    H161420   0.924   0.884   5.635  1.1370 -0.3236  0.6483
13335TIP3    H261421   0.989   1.008   5.691  0.4577  0.5651 -0.4824
13336TIP3   OH261422   4.389   4.087  15.235 -0.3310 -0.0173  0.1402
13336TIP3    H161423   4.334   4.075  15.313 -0.6619 -1.0015 -0.2252
13336TIP3    H261424   4.339   4.149  15.181 -0.7693 -0.3874  0.1096
13337TIP3   OH261425   0.043   1.370   1.649 -0.1278 -0.2925 -0.1186
13337TIP3    H161426   0.081   1.421   1.720 -0.8176 -3.3354  2.7273
13337TIP3    H261427  -0.044   1.408   1.637  0.6270  1.3610 -0.6485
13338TIP3   OH261428   1.262   2.382   1.774  0.1474  0.2831 -0.1251
13338TIP3    H161429   1.171   2.364   1.749  0.3265 -0.6258 -0.1631
13338TIP3    H261430   1.299   2.428   1.699  0.2875 -1.2016 -1.0101
13339TIP3   OH261431   1.143   2.356   5.021  0.6542  0.0029 -0.2451
13339TIP3    H161432   1.210   2.424   5.026 -0.7363  1.3747  0.7255
13339TIP3    H261433   1.066   2.400   4.986  0.2232 -1.5462 -1.3729
13340TIP3   OH261434   3.248   5.032  13.023 -0.3010 -0.0468  0.2550
13340TIP3    H161435   3.172   5.091  13.020 -0.8478 -0.6758  1.2625
13340TIP3    H261436   3.209   4.944  13.029  0.5073 -0.4655 -0.4802
13341TIP3   OH261437   2.360   1.761   5.131 -0.4049 -0.5198  0.2150
13341TIP3    H161438   2.344   1.682   5.079  1.3079 -1.6890  1.3896
13341TIP3    H261439   2.341   1.735   5.221 -1.3104  0.8864  0.4654
13342TIP3   OH261440   0.838   1.829   2.549 -0.4115  0.0063  0.2816
13342TIP3    H161441   0.924   1.861   2.522 -0.4170  0.3617  0.6712
13342TIP3    H261442   0.840   1.833   2.644 -0.4239 -1.1591  0.3357
13343TIP3   OH261443   6.359   0.983   1.478 -0.4222 -0.3958  0.0414
13343TIP3    H161444   6.308   0.907   1.450  1.4172 -1.4768 -0.5675
13343TIP3    H261445   6.447   0.967   1.443  0.6651  0.7805  2.0484
13344TIP3   OH261446   6.230   2.072  14.521  0.2042 -0.3286 -0.5890
13344TIP3    H161447   6.160   2.131  14.494 -1.4004 -1.5311  0.6684
13344TIP3    H261448   6.260   2.107  14.605  1.3070  0.2940 -1.2151
13345TIP3   OH261449   1.974   6.331  13.543 -0.4403  0.6124 -0.2008
13345TIP3    H161450   1.900   6.389  13.523  0.0843  0.9919 -1.1121
13345TIP3    H261451   2.046   6.391  13.564 -0.6829  0.2453  1.9136
13346TIP3   OH261452   0.666   3.003   1.123  0.5955  0.0511 -0.0698
13346TIP3    H161453   0.668   3.055   1.042  0.0079 -0.1632 -0.2283
13346TIP3    H261454   0.574   2.977   1.132  0.7320 -0.2592  0.4574
13347TIP3   OH261455   3.687   4.449  11.045  0.0660  0.4341  0.1231
13347TIP3    H161456   3.707   4.536  11.012 -0.7387 -0.0596 -1.7795
13347TIP3    H261457   3.733   4.389  10.986 -1.0170 -0.4726  0.1664
13348TIP3   OH261458   0.692   3.769  14.993  0.4239  0.3904 -0.0865
13348TIP3    H161459   0.724   3.857  14.975  0.7908  0.4666  0.8445
13348TIP3    H261460   0.597   3.776  14.982  0.5965  0.4820 -1.6183
13349TIP3   OH261461   1.895   3.628   0.925  0.2622 -0.4848 -0.0084
13349TIP3    H161462   1.831   3.622   0.996  0.8412 -0.0663  0.5669
13349TIP3    H261463   1.867   3.563   0.861  1.2244 -2.8354  1.8126
13350TIP3   OH261464   4.548   1.875   4.869  0.1914 -0.2801  0.0621
13350TIP3    H161465   4.469   1.868   4.816  1.1314 -1.1928 -1.3003
13350TIP3    H261466   4.518   1.864   4.959 -1.1772 -0.9349 -0.4512
13351TIP3   OH261467   3.251   0.649  13.009  0.1929 -0.0288  0.1165
13351TIP3    H161468   3.345   0.656  13.023  0.6013 -2.6582 -0.6866
13351TIP3    H261469   3.221   0.739  12.996  2.7114  0.8043 -0.3720
13352TIP3   OH261470   2.546   5.939   6.003  0.1060  0.1907  0.5033
13352TIP3    H161471   2.635   5.974   6.011  0.5664 -1.0049  0.8107
13352TIP3    H261472   2.501   5.969   6.082  0.8299 -0.8109  1.3274
13353TIP3   OH261473   5.690   2.701   3.469 -0.2560  0.2150  0.1350
13353TIP3    H161474   5.731   2.778   3.430 -0.1463  1.4651  2.5549
13353TIP3    H261475   5.600   2.728   3.488 -0.3962 -0.4520  0.4814
13354TIP3   OH261476   0.105   6.498   3.433  0.4982 -0.6272 -0.6268
13354TIP3    H161477   0.109   6.409   3.469  0.8323 -0.6218 -0.6498
13354TIP3    H261478   0.110   6.485   3.338 -2.1138 -0.7641 -0.8018
13355TIP3   OH261479   2.061   5.813   4.314  0.1940  0.0957  0.5123
13355TIP3    H161480   1.983   5.850   4.354  0.1243  0.2087  0.2731
13355TIP3    H261481   2.034   5.789   4.225  0.7497  1.2792  0.0026
13356TIP3   OH261482   3.329   1.457   4.917 -0.2046  0.3484 -0.2178
13356TIP3    H161483   3.312   1.421   4.830 -1.6346 -0.1454  0.2250
13356TIP3    H261484   3.245   1.494   4.944  0.7320  2.3146  0.1619
13357TIP3   OH261485   5.216   6.270   0.237 -0.3264  0.2237 -0.2484
13357TIP3    H161486   5.309   6.267   0.214  0.4958  0.9796  2.5804
13357TIP3    H261487   5.180   6.340   0.183 -0.1160 -2.0544 -3.7042
13358TIP3   OH261488   0.765   1.915  16.023 -0.2594  0.1034 -0.6462
13358TIP3    H161489   0.832   1.908  16.091 -0.5822 -0.9832 -0.4220
13358TIP3    H261490   0.785   1.844  15.962  0.4593  1.5031 -2.1079
13359TIP3   OH261491   5.174   3.712   5.649 -0.3578  0.2230 -0.0105
13359TIP3    H161492   5.247   3.658   5.618 -0.0941  0.5666  0.0173
13359TIP3    H261493   5.208   3.801   5.651 -0.6142  0.3152  0.5064
13360TIP3   OH261494   1.632   2.042   5.653  0.0981 -0.4292 -0.1751
13360TIP3    H161495   1.659   2.127   5.688  0.4983 -1.0861  1.1515
13360TIP3    H261496   1.713   2.003   5.619  0.2605 -1.0354  0.8754
13361TIP3   OH261497   3.515   2.672  13.814  0.0995  0.8379 -0.4308
13361TIP3    H161498   3.497   2.606  13.746  0.4755  0.2448  0.0407
13361TIP3    H261499   3.434   2.676  13.865  0.9398 -1.3040  1.2426
13362TIP3   OH261500   6.072   2.183  15.177 -0.0021 -0.3105 -0.0709
13362TIP3    H161501   6.044   2.116  15.240 -0.2220 -1.4984 -1.3768
13362TIP3    H261502   5.997   2.241  15.170 -0.4354 -0.8636 -0.1323
13363TIP3   OH261503   6.455   1.685  13.726  0.0811 -0.1499 -0.2422
13363TIP3    H161504   6.484   1.697  13.635 -0.6586 -0.9671 -0.6007
13363TIP3    H261505   6.387   1.751  13.738 -2.7625 -2.5350 -1.6625
13364TIP3   OH261506   2.892   5.187   1.606  0.1950  1.1785  0.8205
13364TIP3    H161507   2.806   5.190   1.648 -0.3120  0.1859 -0.1316
13364TIP3    H261508   2.952   5.218   1.674 -0.8097  1.1410  1.7521
13365TIP3   OH261509   4.557   2.923  16.692  0.3386  0.1755  0.2631
13365TIP3    H161510   4.467   2.890  16.695 -0.4383  1.8050 -1.9526
13365TIP3    H261511   4.594   2.883  16.613  1.2208  0.2811  0.6221
13366TIP3   OH261512   3.872   3.024  13.707  0.2894  0.6945 -0.6347
13366TIP3    H161513   3.911   2.953  13.758 -1.1713 -0.0911 -0.5437
13366TIP3    H261514   3.900   3.007  13.617 -0.6627 -0.4910 -0.7404
13367TIP3   OH261515   6.434   0.364  12.427 -0.4131 -0.2722 -0.5554
13367TIP3    H161516   6.368   0.304  12.391 -2.4649  1.6335 -0.1795
13367TIP3    H261517   6.397   0.451  12.414  1.6006  0.8328  0.6182
13368TIP3   OH261518   4.726   6.283   5.646 -0.0963 -0.2035  0.9790
13368TIP3    H161519   4.718   6.361   5.591 -2.1499 -0.3916  0.9345
13368TIP3    H261520   4.792   6.229   5.603  2.0180  1.8296  1.4678
13369TIP3   OH261521   4.427   5.941   2.199  0.2638  0.2772 -0.0436
13369TIP3    H161522   4.420   6.021   2.146 -1.9131  0.9784  1.1874
13369TIP3    H261523   4.521   5.920   2.198  0.7883  2.3809 -1.0795
13370TIP3   OH261524   5.257   6.424   1.865  0.0666  0.3043 -0.2617
13370TIP3    H161525   5.242   6.518   1.863 -0.5915  0.4030  2.9700
13370TIP3    H261526   5.176   6.387   1.899  1.2693 -1.0629  1.3294
13371TIP3   OH261527   2.438   3.449  15.513 -0.0164 -0.6438  0.4138
13371TIP3    H161528   2.376   3.513  15.478 -0.5373 -1.2995  0.1155
13371TIP3    H261529   2.484   3.416  15.436 -0.8809 -1.7900  0.3535
13372TIP3   OH261530   0.285   0.693  12.386 -0.4677  0.7687  0.0227
13372TIP3    H161531   0.193   0.686  12.361 -0.5721 -2.0963  0.8328
13372TIP3    H261532   0.323   0.609  12.361  1.5894  1.3381  0.9972
13373TIP3   OH261533   3.171   0.151   6.119 -0.6120  0.0967 -0.3245
13373TIP3    H161534   3.244   0.120   6.172  0.0911 -0.6229 -1.6494
13373TIP3    H261535   3.187   0.244   6.106 -0.5050  0.1632  0.2491
13374TIP3   OH261536   6.768   6.041   2.702 -0.1496  0.2747 -0.4051
13374TIP3    H161537   6.795   6.126   2.736  2.1773 -0.0470 -1.2874
13374TIP3    H261538   6.779   5.981   2.775 -0.7499  0.5345 -0.0950
13375TIP3   OH261539   1.834   0.714   5.749 -0.8875  0.0136  0.4538
13375TIP3    H161540   1.843   0.627   5.786 -1.3099 -0.1221  0.2442
13375TIP3    H261541   1.740   0.725   5.735 -0.6697 -0.3841 -1.6359
13376TIP3   OH261542   5.809   6.664  12.088  0.3509 -0.5009  0.4010
13376TIP3    H161543   5.734   6.623  12.130  0.7051 -2.3866 -0.7112
13376TIP3    H261544   5.879   6.661  12.154  0.4061 -1.8593  0.3078
13377TIP3   OH261545   2.171   1.107  14.286 -0.0475  0.8203  0.1861
13377TIP3    H161546   2.119   1.065  14.355  0.2779  1.2398  0.6979
13377TIP3    H261547   2.126   1.084  14.205  1.8207 -3.2254  0.0316
13378TIP3   OH261548   4.847   2.358  16.960 -0.7646 -0.1554  0.6485
13378TIP3    H161549   4.820   2.267  16.947  1.0205 -0.5510 -0.7082
13378TIP3    H261550   4.773   2.409  16.930 -1.3890 -1.1681  0.4095
13379TIP3   OH261551   1.785   0.616   1.399 -0.1290  0.1985 -0.9720
13379TIP3    H161552   1.695   0.618   1.367 -0.3188  1.0299 -0.4256
13379TIP3    H261553   1.813   0.708   1.400  1.0450 -0.1098 -1.9743
13380TIP3   OH261554   2.066   5.033  14.490 -0.3417 -0.1470  0.4776
13380TIP3    H161555   2.020   5.116  14.478 -2.4452 -1.0414  1.7369
13380TIP3    H261556   1.998   4.972  14.517  1.0248 -2.4603 -0.9465
13381TIP3   OH261557   3.345   4.614  12.963 -0.2102 -0.1351  0.2276
13381TIP3    H161558   3.294   4.671  13.020 -1.7306 -2.5558  1.4503
13381TIP3    H261559   3.294   4.608  12.882 -0.1389  0.0967  0.1656
13382TIP3   OH261560   3.485   4.619   3.534 -0.0642  0.5057  0.6603
13382TIP3    H161561   3.445   4.704   3.554 -2.0236 -0.7989  2.9350
13382TIP3    H261562   3.448   4.595   3.449  0.0732  1.6499  0.2564
13383TIP3   OH261563   1.462   0.487  11.308 -0.0936 -0.0756  0.3904
13383TIP3    H161564   1.459   0.547  11.382  1.5898  0.5966 -0.0510
13383TIP3    H261565   1.546   0.443  11.315  0.0616 -0.0689 -1.0629
13384TIP3   OH261566   1.060   0.397  13.217 -0.1462 -0.0959  0.7327
13384TIP3    H161567   1.086   0.435  13.301  1.0550 -1.0827  0.8405
13384TIP3    H261568   0.965   0.399  13.219 -0.1380  0.3958  1.8900
13385TIP3   OH261569   0.901   0.959  12.443  0.0640 -0.1146 -0.2854
13385TIP3    H161570   0.965   0.889  12.434 -0.6494 -0.8414  0.1571
13385TIP3    H261571   0.892   0.972  12.538 -0.0258  0.3689 -0.3547
13386TIP3   OH261572   0.262   4.722   4.799 -0.2415  0.6104 -0.0375
13386TIP3    H161573   0.271   4.653   4.733  0.6290  1.1759 -0.5365
13386TIP3    H261574   0.244   4.675   4.881  0.0299 -0.1863 -0.4266
13387TIP3   OH261575   0.688   4.322  12.523  0.1479 -0.3762  0.1838
13387TIP3    H161576   0.666   4.287  12.609  3.5849 -1.4854  0.7803
13387TIP3    H261577   0.636   4.270  12.461  0.3984 -2.1718  1.4236
13388TIP3   OH261578   5.881   3.768   4.370  0.1081  0.5506  0.6242
13388TIP3    H161579   5.867   3.862   4.380 -1.8628  0.6198 -1.7462
13388TIP3    H261580   5.800   3.729   4.402 -0.7240  0.0088 -1.9085
13389TIP3   OH261581   4.370   1.152   0.112 -0.1085  0.0337  0.1974
13389TIP3    H161582   4.337   1.132   0.199 -0.8586  0.8603  0.1129
13389TIP3    H261583   4.455   1.193   0.127 -0.5039  0.7266  0.5705
13390TIP3   OH261584   6.647   6.659  14.550 -0.2400 -0.2473  0.5050
13390TIP3    H161585   6.560   6.620  14.556 -0.5734 -0.0349 -2.0074
13390TIP3    H261586   6.700   6.593  14.504  0.2876  0.5367 -0.0520
13391TIP3   OH261587   5.545   1.002   4.573 -0.7557  0.1232  0.6959
13391TIP3    H161588   5.494   0.992   4.653 -2.1766  0.2422 -0.1723
13391TIP3    H261589   5.490   1.055   4.516 -0.0146 -0.4593 -0.5937
13392TIP3   OH261590   2.519   2.948   5.304  0.3718  0.4462  0.5546
13392TIP3    H161591   2.445   2.983   5.354  0.4174  0.5004  0.5850
13392TIP3    H261592   2.514   2.993   5.219 -0.9013 -1.1077 -0.2574
13393TIP3   OH261593   0.272   0.749  15.397  0.3551 -0.4832  0.0217
13393TIP3    H161594   0.225   0.831  15.404  0.8747 -0.0855 -0.9890
13393TIP3    H261595   0.271   0.727  15.304  0.6858 -1.3435  0.2049
13394TIP3   OH261596   4.720   3.934   2.367  0.8140 -0.1379  0.2833
13394TIP3    H161597   4.733   3.895   2.281  3.5630  1.1920 -0.0047
13394TIP3    H261598   4.663   4.009   2.351  0.5945 -0.4030 -0.2120
13395TIP3   OH261599   0.593   0.902   5.765 -0.9953 -0.7760 -0.6146
13395TIP3    H161600   0.596   0.920   5.859 -1.6343 -2.6353 -0.2028
13395TIP3    H261601   0.548   0.818   5.757 -1.9692 -0.1372 -2.6783
13396TIP3   OH261602   3.517   2.284   5.607  0.2426 -0.4019 -0.4167
13396TIP3    H161603   3.513   2.319   5.696 -0.0959  1.1022 -0.9929
13396TIP3    H261604   3.482   2.354   5.552  1.1288 -1.0137 -1.8219
13397TIP3   OH261605   3.350   2.613  15.429 -0.3145  0.4168  0.4508
13397TIP3    H161606   3.338   2.520  15.413 -0.1561  0.9014 -3.4125
13397TIP3    H261607   3.443   2.629  15.413 -0.3849  1.2719  0.8090
13398TIP3   OH261608   2.779   5.872   3.581 -0.2022  0.0054  0.2877
13398TIP3    H161609   2.688   5.842   3.584 -0.4148  0.5692 -0.3847
13398TIP3    H261610   2.809   5.866   3.671 -0.9925  0.0769  0.5637
13399TIP3   OH261611   0.985   6.300  15.281 -0.4728  1.0464  0.1415
13399TIP3    H161612   1.053   6.368  15.286 -0.0328  0.6464 -0.2551
13399TIP3    H261613   0.963   6.295  15.188 -0.1365  0.2992  0.1000
13400TIP3   OH261614   4.920   6.787  15.596 -0.0626  0.3323 -0.4122
13400TIP3    H161615   4.874   6.850  15.652  0.1020  0.0615  0.0364
13400TIP3    H261616   5.012   6.799  15.619 -0.0469 -0.2162 -0.1645
13401TIP3   OH261617   2.599   4.132  12.126 -0.4743 -0.2188  0.2600
13401TIP3    H161618   2.669   4.145  12.190 -0.7252 -1.3235  0.7901
13401TIP3    H261619   2.520   4.116  12.179 -1.3491  1.9093 -0.3092
13402TIP3   OH261620   1.592   4.333   0.991 -0.0174 -0.1220 -0.3654
13402TIP3    H161621   1.532   4.362   1.060 -0.0300  0.1273 -0.4818
13402TIP3    H261622   1.540   4.272   0.939 -0.3038  0.4267 -0.7226
13403TIP3   OH261623   6.474   5.370  15.049 -0.2783  0.1316 -0.3053
13403TIP3    H161624   6.393   5.410  15.081 -1.2241 -1.2239 -0.9058
13403TIP3    H261625   6.449   5.325  14.969 -0.0125 -3.8916  1.5985
13404TIP3   OH261626   3.871   2.759  14.682 -0.2277 -0.3850 -0.0632
13404TIP3    H161627   3.910   2.840  14.650 -0.2487 -0.3816 -0.0800
13404TIP3    H261628   3.946   2.701  14.699 -0.3123 -1.3535 -2.6332
13405TIP3   OH261629   0.761   0.702  14.772 -0.3059  0.4556  0.0065
13405TIP3    H161630   0.796   0.788  14.792  2.4294 -0.2070 -1.4099
13405TIP3    H261631   0.719   0.673  14.853 -0.3426  2.6432  0.8316
13406TIP3   OH261632   1.635   3.451   1.133  0.3803 -0.2628  0.7809
13406TIP3    H161633   1.593   3.439   1.218 -1.2050 -1.0590 -0.0706
13406TIP3    H261634   1.675   3.366   1.113 -3.1872 -1.6946 -1.2341
13407TIP3   OH261635   6.105   5.953   0.686  0.0975 -0.8816 -0.0774
13407TIP3    H161636   6.088   5.902   0.607 -0.7310 -1.7130  0.6233
13407TIP3    H261637   6.083   5.894   0.758 -0.3643  0.2775  0.7582
13408TIP3   OH261638   3.088   2.619  12.216  0.0555 -0.4596 -0.3300
13408TIP3    H161639   3.093   2.646  12.307 -1.0489  0.4086 -0.4977
13408TIP3    H261640   3.011   2.562  12.211 -0.1790 -0.1165 -0.7953
13409TIP3   OH261641   6.413   0.602   1.486 -0.5422  0.0484  0.0256
13409TIP3    H161642   6.473   0.574   1.416  0.1836  0.8114  0.3172
13409TIP3    H261643   6.463   0.588   1.566 -0.9349  0.2737  0.3092
13410TIP3   OH261644   2.815   2.863  17.104  0.3032  0.7598  0.3211
13410TIP3    H161645   2.821   2.785  17.158  1.8218 -0.4360 -1.4391
13410TIP3    H261646   2.724   2.892  17.112 -0.6001 -1.8413  0.1985
13411TIP3   OH261647   4.995   4.601   2.979  0.2140  0.2024 -0.2926
13411TIP3    H161648   4.969   4.685   3.016  0.3105  0.3024 -0.4507
13411TIP3    H261649   5.036   4.623   2.895 -0.4552 -0.0573 -0.6947
13412TIP3   OH261650   3.488   0.460  10.961 -0.1055  0.0618  0.4133
13412TIP3    H161651   3.488   0.555  10.954 -0.6627  0.0057 -0.4173
13412TIP3    H261652   3.580   0.436  10.964  0.0390  0.6834  1.5686
13413TIP3   OH261653   6.788   4.438  13.368 -0.0468  0.0632  0.0504
13413TIP3    H161654   6.839   4.497  13.313 -3.0394  0.7312 -2.2649
13413TIP3    H261655   6.796   4.474  13.457  0.3745  2.3812 -0.8650
13414TIP3   OH261656   3.779   5.662   2.411  0.1789 -0.3226  0.0813
13414TIP3    H161657   3.795   5.568   2.401  1.3200 -0.1058 -0.2716
13414TIP3    H261658   3.772   5.675   2.505 -1.4376 -0.9651  0.0821
13415TIP3   OH261659   5.770   3.411   5.465 -0.6386  0.7113  0.0421
13415TIP3    H161660   5.741   3.352   5.535 -1.6893 -0.2386 -1.1437
13415TIP3    H261661   5.689   3.454   5.435 -0.7885 -1.2260 -2.6600
13416TIP3   OH261662   0.073   0.326  11.182 -0.2118  0.2002  0.2251
13416TIP3    H161663   0.063   0.421  11.178 -1.5107  0.0742 -0.2938
13416TIP3    H261664   0.144   0.307  11.121  0.7758  0.9155  1.1275
13417TIP3   OH261665   3.240   2.647   5.144 -0.5513  0.4239 -0.0353
13417TIP3    H161666   3.299   2.602   5.084  0.1457  0.8495  0.3175
13417TIP3    H261667   3.234   2.590   5.220  0.3482  0.9122  0.4203
13418TIP3   OH261668   5.411   2.865   1.078  0.4594 -0.0124  0.4039
13418TIP3    H161669   5.383   2.817   0.999  3.1370 -0.3753 -0.4265
13418TIP3    H261670   5.439   2.797   1.139  2.5671  0.3563 -0.0823
13419TIP3   OH261671   2.913   5.940  16.596  0.4680  0.4904 -0.4208
13419TIP3    H161672   3.003   5.923  16.623  0.8849  2.3215 -0.5216
13419TIP3    H261673   2.869   5.968  16.676 -0.1157 -0.6932 -0.3092
13420TIP3   OH261674   2.703   2.325   4.206  1.0679 -0.4482  0.5034
13420TIP3    H161675   2.741   2.394   4.261  1.4731  0.2001 -0.5696
13420TIP3    H261676   2.639   2.282   4.263 -0.5833  2.0275  0.6663
13421TIP3   OH261677   0.937   0.214  16.879  0.2266  0.1370  0.1512
13421TIP3    H161678   0.912   0.298  16.841 -0.7667  0.5702  1.6670
13421TIP3    H261679   0.911   0.220  16.971 -0.7869 -2.2045  0.0953
13422TIP3   OH261680   0.027   2.612  11.426 -0.3044 -0.1249  0.4405
13422TIP3    H161681   0.017   2.688  11.369 -1.3462 -1.1453 -0.8011
13422TIP3    H261682  -0.047   2.555  11.404  0.3324 -1.4207  1.4670
13423TIP3   OH261683   5.355   5.057  12.507  0.3146 -0.2073 -0.7897
13423TIP3    H161684   5.306   5.124  12.460  0.7012 -0.1067 -1.0531
13423TIP3    H261685   5.443   5.060  12.469  1.2640  1.3116  1.3077
13424TIP3   OH261686   2.586   5.910  10.310 -0.1599  0.3898 -0.5657
13424TIP3    H161687   2.536   5.945  10.383 -1.1606 -1.3378 -0.4006
13424TIP3    H261688   2.525   5.910  10.236 -0.3206 -1.3413 -0.4649
13425TIP3   OH261689   2.889   3.187  12.126  0.0852 -0.6999  0.4923
13425TIP3    H161690   2.887   3.245  12.050 -0.8261 -2.1371 -0.6207
13425TIP3    H261691   2.962   3.128  12.108 -0.1702 -1.0796  0.7083
13426TIP3   OH261692   6.367   3.476   2.344 -0.8995 -0.0989 -0.5893
13426TIP3    H161693   6.377   3.558   2.295 -0.2061 -0.5996 -1.3145
13426TIP3    H261694   6.304   3.425   2.293 -1.3949  0.0064 -0.0931
13427TIP3   OH261695   0.408   0.449   4.772  0.3453  0.4830 -0.0272
13427TIP3    H161696   0.482   0.500   4.806  1.2286  0.0490 -1.2108
13427TIP3    H261697   0.437   0.420   4.685 -0.4628 -1.3039  0.2445
13428TIP3   OH261698   0.855   3.948   5.052 -0.0511 -0.1611 -0.0910
13428TIP3    H161699   0.805   3.890   4.995 -0.5992  1.9164 -1.8736
13428TIP3    H261700   0.944   3.947   5.015 -1.0171  3.4545 -3.1592
13429TIP3   OH261701   1.528   2.264   1.820 -0.0356 -0.4962  0.0056
13429TIP3    H161702   1.522   2.189   1.878  0.6351 -0.6484 -0.1181
13429TIP3    H261703   1.448   2.260   1.767  0.1089 -1.2473 -0.1616
13430TIP3   OH261704   5.709   3.908  13.257 -0.6143  0.1246 -0.4064
13430TIP3    H161705   5.661   3.984  13.222  0.7189  1.1460 -0.1161
13430TIP3    H261706   5.756   3.874  13.181 -0.9261 -0.1933 -0.4577
13431TIP3   OH261707   0.059   0.624  14.212  0.2659 -0.4878  0.6914
13431TIP3    H161708   0.049   0.568  14.135  0.7497 -0.8066  0.8552
13431TIP3    H261709   0.122   0.691  14.184  0.3481 -0.5316  0.7713
13432TIP3   OH261710   4.790   2.312   4.155  0.3163  0.2384 -0.2820
13432TIP3    H161711   4.776   2.380   4.089 -1.8874  0.4580  0.3244
13432TIP3    H261712   4.778   2.230   4.108 -1.0134  0.3907 -0.2558
13433TIP3   OH261713   4.715   0.268  12.815  0.0050  0.4464  0.5208
13433TIP3    H161714   4.744   0.186  12.777 -0.5709  0.2814  0.4311
13433TIP3    H261715   4.620   0.269  12.801 -0.0026  1.0853  0.5900
13434TIP3   OH261716   4.612   4.806   1.412 -0.2983  0.0716  0.3057
13434TIP3    H161717   4.623   4.876   1.349  0.1111 -1.0622 -0.9151
13434TIP3    H261718   4.597   4.727   1.359 -0.0236 -0.9001  1.6160
13435TIP3   OH261719   1.656   4.811  11.250 -0.2970  0.5410 -0.5695
13435TIP3    H161720   1.718   4.771  11.188  1.5235  1.3908  0.6197
13435TIP3    H261721   1.614   4.881  11.201 -0.9744 -0.5574 -1.6349
13436TIP3   OH261722   2.336   1.723   6.161  0.0440 -0.6516 -0.0094
13436TIP3    H161723   2.376   1.637   6.148  1.4409  0.0160 -0.2557
13436TIP3    H261724   2.323   1.729   6.256 -1.3875 -1.6780 -0.0983
13437TIP3   OH261725   3.757   3.372   0.374  0.4115 -0.6919 -0.3040
13437TIP3    H161726   3.703   3.416   0.441 -0.5370 -0.2971 -1.2997
13437TIP3    H261727   3.792   3.296   0.419  0.7024  0.1578  0.9762
13438TIP3   OH261728   0.520   5.652  16.415  0.0737 -0.1388  0.4652
13438TIP3    H161729   0.596   5.693  16.373 -0.1302  0.7618  0.9669
13438TIP3    H261730   0.558   5.585  16.472  0.4088 -0.6559 -0.3445
13439TIP3   OH261731   1.750   0.912   0.060  0.0289  0.3059 -0.2024
13439TIP3    H161732   1.726   0.859  -0.016  1.4004 -0.1357 -0.3425
13439TIP3    H261733   1.670   0.914   0.114 -0.8377  0.3068 -1.4471
13440TIP3   OH261734   5.116   1.672   0.245  0.8709 -0.0446  0.8104
13440TIP3    H161735   5.031   1.635   0.222  1.1981 -0.4475  0.2327
13440TIP3    H261736   5.116   1.671   0.341 -0.3256  1.2451  0.8586
13441TIP3   OH261737   0.244   0.122  11.813  0.4916  0.8098 -0.4938
13441TIP3    H161738   0.240   0.217  11.806 -0.0889  0.9144  0.9765
13441TIP3    H261739   0.157   0.093  11.785  0.8554  0.6643 -1.4902
13442TIP3   OH261740   3.668   2.177   0.748  0.4281  0.3674  0.1468
13442TIP3    H161741   3.588   2.150   0.703  1.1357 -2.4450  0.3856
13442TIP3    H261742   3.676   2.118   0.823  1.8895  1.6688  1.1162
13443TIP3   OH261743   3.094   2.392  15.619 -0.0892 -0.1180 -0.3949
13443TIP3    H161744   3.157   2.333  15.579 -1.0261 -0.1169 -1.9690
13443TIP3    H261745   3.143   2.471  15.640  0.5196 -0.2989 -1.1398
13444TIP3   OH261746   4.978   3.211   1.541  0.1690  0.5003  0.0596
13444TIP3    H161747   4.937   3.247   1.619 -1.1205  0.3232 -0.4946
13444TIP3    H261748   4.904   3.192   1.482  1.0381 -0.1395 -0.8673
13445TIP3   OH261749   1.777   1.567  16.427 -0.4007 -0.7803  0.8694
13445TIP3    H161750   1.766   1.524  16.342 -1.4719 -0.2996  0.7420
13445TIP3    H261751   1.813   1.653  16.407 -0.5048 -0.7267  0.9069
13446TIP3   OH261752   3.914   0.090   0.095  0.3172 -0.3884  0.1255
13446TIP3    H161753   3.910   0.039   0.014  0.4359  1.4837 -1.1163
13446TIP3    H261754   3.824   0.093   0.127 -0.6715  2.6223 -2.4664
13447TIP3   OH261755   2.456   4.749   2.809  0.3555  0.0533  0.6768
13447TIP3    H161756   2.486   4.661   2.786  0.9187  0.1644  0.9783
13447TIP3    H261757   2.497   4.806   2.743 -0.5879  0.0148  0.0417
13448TIP3   OH261758   4.714   2.109   1.925  0.0183  0.0002  0.1083
13448TIP3    H161759   4.656   2.032   1.926  1.0250 -0.7804 -0.5330
13448TIP3    H261760   4.655   2.183   1.940 -1.5102 -0.5376 -2.6672
13449TIP3   OH261761   4.414   3.395  16.178 -0.5837 -0.0580 -0.3947
13449TIP3    H161762   4.352   3.422  16.245  1.4415 -2.3498  2.7127
13449TIP3    H261763   4.416   3.299  16.185  4.7091 -0.1711  1.5110
13450TIP3   OH261764   4.391   2.970  11.909  0.1463  0.3410 -0.1844
13450TIP3    H161765   4.450   3.022  11.856  1.1964  0.4598  1.0325
13450TIP3    H261766   4.426   2.881  11.903  1.1296  0.5791  1.3562
13451TIP3   OH261767   4.386   5.944  16.883 -0.4323  0.3840  0.0338
13451TIP3    H161768   4.345   5.993  16.812 -1.3544  0.5320  0.6578
13451TIP3    H261769   4.473   5.921  16.849  0.5326  3.4522  0.1561
13452TIP3   OH261770   0.975   1.036  13.159  0.1287  0.2214  0.4846
13452TIP3    H161771   0.976   1.107  13.223 -0.2900  0.0661  0.6670
13452TIP3    H261772   0.882   1.023  13.140  0.1659 -0.6363  0.8507
13453TIP3   OH261773   5.563   0.266  13.891  0.0745  0.2007 -0.0142
13453TIP3    H161774   5.652   0.266  13.925  0.4957 -0.7222 -1.0547
13453TIP3    H261775   5.553   0.352  13.849 -0.1204  0.9573  1.5328
13454TIP3   OH261776   4.982   2.898   4.811  0.4684 -0.2287  0.1634
13454TIP3    H161777   5.045   2.834   4.777  1.6887  0.4040  1.1436
13454TIP3    H261778   4.918   2.844   4.858 -0.4911 -0.9869 -1.8881
13455TIP3   OH261779   3.078   2.917   1.848 -0.2228 -0.2355 -0.0247
13455TIP3    H161780   3.049   2.871   1.769  0.8204 -1.9182  0.5130
13455TIP3    H261781   3.108   2.847   1.906 -0.2168  1.0275  1.5515
13456TIP3   OH261782   6.149   6.267  11.379  0.4834  0.3700  0.5397
13456TIP3    H161783   6.181   6.185  11.416  0.9492  0.8685  1.2547
13456TIP3    H261784   6.212   6.333  11.407  0.0303  1.0062  0.0998
13457TIP3   OH261785   1.565   3.235  15.693  0.1622 -0.3977 -0.5191
13457TIP3    H161786   1.522   3.271  15.615 -0.8782 -1.9325 -0.6923
13457TIP3    H261787   1.658   3.231  15.669  0.1067  0.7966 -0.9999
13458TIP3   OH261788   3.489   6.665  13.492  0.0322  0.2898  0.5988
13458TIP3    H161789   3.456   6.752  13.516  0.6568  0.1783  1.9889
13458TIP3    H261790   3.518   6.628  13.575  0.8377 -0.7983 -0.1539
13459TIP3   OH261791   2.083   5.709  13.094 -0.4250 -0.4662  0.5120
13459TIP3    H161792   2.109   5.636  13.037  0.8367 -0.6903  1.3466
13459TIP3    H261793   2.053   5.776  13.033 -0.3868 -1.2018 -0.3485
13460TIP3   OH261794   6.102   1.926  15.450  0.1144  0.4055  0.7848
13460TIP3    H161795   6.015   1.918  15.411  1.0237  1.4362 -1.6420
13460TIP3    H261796   6.094   1.883  15.535 -2.8602  0.8435  0.8247
13461TIP3   OH261797   3.197   2.437   2.064  0.0805 -0.5206 -0.1362
13461TIP3    H161798   3.290   2.416   2.070  0.3203  0.4552 -0.3679
13461TIP3    H261799   3.158   2.394   2.140  1.2162  1.7622  1.8399
13462TIP3   OH261800   5.126   6.055  16.937  0.2149 -0.4181 -0.0009
13462TIP3    H161801   5.179   6.121  16.892  1.0759  1.4017  3.3492
13462TIP3    H261802   5.141   6.071  17.030 -1.4257 -3.8887  1.0482
13463TIP3   OH261803   0.787   2.590  15.895  0.2654 -0.1106  0.2518
13463TIP3    H161804   0.859   2.627  15.843  1.5055 -1.9864  0.5471
13463TIP3    H261805   0.830   2.550  15.971 -1.2273 -0.2378  1.0820
13464TIP3   OH261806   5.126   1.109  12.882  0.0309 -0.4397 -0.1930
13464TIP3    H161807   5.085   1.195  12.888  0.0799 -0.5017  2.3336
13464TIP3    H261808   5.198   1.121  12.821 -1.5682  0.5744 -1.9872
13465TIP3   OH261809   0.685   6.790  11.129  0.2140 -0.3338  0.0530
13465TIP3    H161810   0.766   6.772  11.081  1.3583  0.7001  1.4782
13465TIP3    H261811   0.615   6.780  11.064  1.4705 -1.3122 -1.2064
13466TIP3   OH261812   3.852   5.700  14.409 -0.6318 -0.2413 -0.0112
13466TIP3    H161813   3.793   5.624  14.407 -0.2597 -0.5631  0.7792
13466TIP3    H261814   3.938   5.664  14.388 -0.4305 -0.0657  0.4950
13467TIP3   OH261815   0.109   1.516  12.124 -0.0226 -0.5187 -0.6783
13467TIP3    H161816   0.186   1.543  12.074 -0.3121  0.5906 -0.5714
13467TIP3    H261817   0.144   1.472  12.201  0.5888  1.0871  0.0132
13468TIP3   OH261818   6.288   0.840  11.378  0.3243 -0.2243 -0.2816
13468TIP3    H161819   6.304   0.915  11.436  1.0695 -2.4871  2.7117
13468TIP3    H261820   6.375   0.805  11.360 -0.0830 -1.5072  0.1019
13469TIP3   OH261821   1.340   6.388  14.273  0.6985  0.1480 -0.0818
13469TIP3    H161822   1.299   6.324  14.330  1.1196  0.2471  0.3321
13469TIP3    H261823   1.266   6.437  14.235  0.4285  1.6650  2.1911
13470TIP3   OH261824   3.272   3.337  11.799  0.4226  0.3167 -0.6014
13470TIP3    H161825   3.287   3.394  11.723 -0.0979  0.1733 -0.8166
13470TIP3    H261826   3.210   3.385  11.853  0.7134  0.3713 -0.3095
13471TIP3   OH261827   2.052   1.622  10.811 -0.7244  0.7335 -0.2201
13471TIP3    H161828   2.105   1.694  10.777 -1.4000  1.7760  0.8361
13471TIP3    H261829   2.068   1.549  10.751  0.1324  1.7071 -1.2088
13472TIP3   OH261830   5.935   5.634  15.314 -0.8004  0.8136 -0.1735
13472TIP3    H161831   5.852   5.682  15.308 -1.9116 -1.0399 -0.2164
13472TIP3    H261832   5.913   5.554  15.361  1.1290  0.5804  0.4042
13473TIP3   OH261833   0.311   4.874  16.898  0.3335 -0.3896 -0.1899
13473TIP3    H161834   0.240   4.816  16.927 -0.1397 -0.3604 -1.2311
13473TIP3    H261835   0.275   4.919  16.822  0.6739  1.3396  0.6222
13474TIP3   OH261836   5.954   0.254  13.557 -0.0610 -0.6332 -0.6354
13474TIP3    H161837   5.901   0.306  13.617 -0.9794 -0.8921 -1.2009
13474TIP3    H261838   5.908   0.260  13.473  0.8507 -0.8053 -1.1602
13475TIP3   OH261839   5.151   4.081   2.200  0.3450 -1.0656 -0.4222
13475TIP3    H161840   5.146   4.093   2.294  1.7687  2.1940 -0.6221
13475TIP3    H261841   5.070   4.035   2.177 -0.9860 -0.1991  2.1617
13476TIP3   OH261842   5.410   1.269   0.263  0.3333 -0.3312  0.2064
13476TIP3    H161843   5.323   1.244   0.233 -0.7172  1.3785  1.6289
13476TIP3    H261844   5.396   1.302   0.352  2.6126 -1.0208  0.8788
13477TIP3   OH261845   3.859   2.774  16.320 -0.0906  0.4223  0.0981
13477TIP3    H161846   3.937   2.807  16.365 -1.6151  1.3572  2.1910
13477TIP3    H261847   3.792   2.768  16.388 -1.9681 -0.0420 -1.6848
13478TIP3   OH261848   3.299   4.398  16.511  0.4781  0.3300 -0.2811
13478TIP3    H161849   3.251   4.456  16.571  0.5160 -0.5060  0.5872
13478TIP3    H261850   3.288   4.311  16.548  2.2182  0.0368 -0.3454
13479TIP3   OH261851   5.792   0.661  13.485  0.2542 -0.1257 -0.0002
13479TIP3    H161852   5.714   0.716  13.484  0.6991  0.5821  1.5075
13479TIP3    H261853   5.801   0.629  13.395 -0.7059  1.2935 -0.6173
13480TIP3   OH261854   5.053   1.068   3.025 -0.8351 -0.3538 -0.5240
13480TIP3    H161855   5.122   1.100   3.083  0.0894 -0.6419 -1.4409
13480TIP3    H261856   5.080   0.979   3.002 -1.1389 -0.2102 -1.4626
13481TIP3   OH261857   5.147   0.603   2.619  0.4701 -0.0919 -0.6356
13481TIP3    H161858   5.212   0.601   2.549  1.3708  0.0720  0.1762
13481TIP3    H261859   5.198   0.611   2.700 -0.5201 -0.6035  0.0745
13482TIP3   OH261860   5.520   2.434  10.841  0.2867 -0.8231  0.2913
13482TIP3    H161861   5.513   2.348  10.800  0.7934 -0.2242 -1.1318
13482TIP3    H261862   5.559   2.489  10.773 -3.0247  1.3605 -0.0718
13483TIP3   OH261863   3.269   2.700  16.614 -0.5271  0.2500 -0.3351
13483TIP3    H161864   3.177   2.724  16.629 -0.9356 -2.2202  2.1346
13483TIP3    H261865   3.293   2.745  16.533 -3.7177  1.4541 -0.7766
13484TIP3   OH261866   1.853   4.707   3.261 -0.3291  0.7039 -0.2384
13484TIP3    H161867   1.848   4.795   3.224  1.7076  1.0094  0.1121
13484TIP3    H261868   1.912   4.659   3.202 -0.4944 -0.0791  0.2147
13485TIP3   OH261869   4.372   2.072  13.443 -0.2108  0.3205  0.4679
13485TIP3    H161870   4.409   2.007  13.503  0.0912 -0.0464 -0.1092
13485TIP3    H261871   4.296   2.027  13.404  0.8818 -0.2827 -1.0873
13486TIP3   OH261872   4.057   1.004  17.093  0.4639 -0.6580  0.1085
13486TIP3    H161873   4.082   0.923  17.048  2.7405  0.2931 -0.5005
13486TIP3    H261874   4.131   1.063  17.079  0.0807  0.6355  2.8397
13487TIP3   OH261875   0.916   3.727   5.439  0.0062  0.6796 -0.1662
13487TIP3    H161876   0.830   3.742   5.400  0.0393  2.0173  0.2179
13487TIP3    H261877   0.977   3.764   5.376  0.0899  2.4171  0.8917
13488TIP3   OH261878   1.226   1.562   0.004  0.0176  0.0570  0.0599
13488TIP3    H161879   1.319   1.539   0.002 -0.1725 -0.7812  0.4311
13488TIP3    H261880   1.205   1.572   0.096 -0.9602 -2.8744  0.2619
13489TIP3   OH261881   3.756   5.702  17.095 -0.2823  0.3233  0.5717
13489TIP3    H161882   3.769   5.618  17.053 -2.0408  0.4375 -0.2978
13489TIP3    H261883   3.719   5.681  17.180  2.5183  0.1268  1.8369
13490TIP3   OH261884   6.127   6.682   5.678  0.2743 -0.9510 -0.2157
13490TIP3    H161885   6.178   6.604   5.657 -0.6506 -1.5215 -0.4029
13490TIP3    H261886   6.113   6.725   5.594  2.5057  0.5586  0.0923
13491TIP3   OH261887   3.387   5.971  14.816 -0.0892 -0.5091  0.8311
13491TIP3    H161888   3.303   5.991  14.857  0.5953 -0.8105  2.4644
13491TIP3    H261889   3.399   5.877  14.831  0.1623 -0.6484 -0.1486
13492TIP3   OH261890   3.440   0.723   1.192  0.0477 -0.1703 -0.9771
13492TIP3    H161891   3.360   0.706   1.143 -0.1510 -0.8085 -0.4459
13492TIP3    H261892   3.478   0.636   1.206  0.7502  0.1127 -1.0840
13493TIP3   OH261893   0.781   0.707  11.797 -0.3001 -0.3310  0.5310
13493TIP3    H161894   0.853   0.764  11.770  0.2225 -0.5786  1.3994
13493TIP3    H261895   0.726   0.763  11.851 -1.7864  0.4081 -1.5784
13494TIP3   OH261896   1.899   6.768   2.404  0.3069 -0.1895 -0.7117
13494TIP3    H161897   1.981   6.743   2.362  0.2995  0.2761 -1.0019
13494TIP3    H261898   1.907   6.735   2.494  2.5084  3.2185  0.5151
13495TIP3   OH261899   3.991   0.697   1.780 -0.0519  0.1395 -0.4571
13495TIP3    H161900   3.963   0.745   1.859 -1.6900  0.0496 -0.9468
13495TIP3    H261901   4.078   0.664   1.802 -0.1663  0.7448  1.0430
13496TIP3   OH261902   3.893   6.338   5.151  0.2288  0.2380 -0.0758
13496TIP3    H161903   3.812   6.325   5.201 -0.6836  0.2266 -1.5012
13496TIP3    H261904   3.926   6.250   5.135  0.7040  0.2539  0.7651
13497TIP3   OH261905   2.400   3.001   5.044 -0.0620 -0.0257 -0.1007
13497TIP3    H161906   2.432   3.031   4.959  1.9016 -1.6292 -0.0288
13497TIP3    H261907   2.337   2.933   5.024  0.4953 -0.4916 -0.2993
13498TIP3   OH261908   0.501   1.891   3.910 -0.1734  0.3713  0.1819
13498TIP3    H161909   0.592   1.863   3.914 -0.9205 -2.4473 -0.3983
13498TIP3    H261910   0.480   1.894   3.817 -0.4708  1.9227  0.2644
13499TIP3   OH261911   4.350   6.786  15.465 -0.9124 -0.1582  0.0645
13499TIP3    H161912   4.351   6.874  15.502 -1.2459 -0.0535 -0.1645
13499TIP3    H261913   4.442   6.760  15.462 -0.7314  0.5215 -0.6619
13500TIP3   OH261914   4.761   3.841  16.968  0.4999 -0.4838 -0.2707
13500TIP3    H161915   4.681   3.893  16.978  0.8017  0.1124 -0.8883
13500TIP3    H261916   4.746   3.788  16.889  0.2104 -1.3203  0.3281
13501TIP3   OH261917   0.214   1.618   2.711  0.4391 -0.8036 -0.2873
13501TIP3    H161918   0.159   1.579   2.642  1.0671 -1.4658 -0.4273
13501TIP3    H261919   0.205   1.557   2.784  0.4162 -0.5261 -0.0588
13502TIP3   OH261920   3.136   4.528   4.395  0.3827 -0.1186  0.2027
13502TIP3    H161921   3.157   4.527   4.488  0.0089  0.1633  0.2947
13502TIP3    H261922   3.124   4.621   4.375  1.4172 -0.0902 -0.3499
13503TIP3   OH261923   3.313   6.515   4.959 -0.6618 -0.0091 -0.0576
13503TIP3    H161924   3.319   6.609   4.979  1.8016  0.1876 -1.3952
13503TIP3    H261925   3.320   6.472   5.044 -0.0311  0.9895  0.4175
13504TIP3   OH261926   2.305   4.460  16.921  0.4423  0.7933  0.0640
13504TIP3    H161927   2.313   4.417  16.835 -2.4352  0.1755  0.0032
13504TIP3    H261928   2.342   4.547  16.907 -0.9878  1.1378 -2.2283
13505TIP3   OH261929   1.056   2.583   0.184 -0.7660 -0.4204  0.3173
13505TIP3    H161930   1.096   2.541   0.108  1.0656 -0.5104  1.2770
13505TIP3    H261931   0.970   2.543   0.191  0.1255 -2.5262 -0.0146
13506TIP3   OH261932   1.998   6.095  16.073  0.1441 -0.3201  0.3409
13506TIP3    H161933   2.009   6.020  16.014 -2.1133  0.0627 -0.6579
13506TIP3    H261934   2.024   6.062  16.159  0.2448 -1.9162 -0.2723
13507TIP3   OH261935   2.141   4.290   2.815 -0.2808 -0.0724 -0.3185
13507TIP3    H161936   2.160   4.364   2.873 -0.3156  0.3426 -0.8305
13507TIP3    H261937   2.159   4.213   2.869 -2.3369  0.2613  0.9432
13508TIP3   OH261938   5.053   5.441  12.744 -0.2719 -0.1358  0.0128
13508TIP3    H161939   5.103   5.522  12.754  0.2582 -0.5850  1.2195
13508TIP3    H261940   4.969   5.459  12.787 -0.7287  0.2280 -0.9876
13509TIP3   OH261941   2.757   1.212   2.533  0.0751 -0.1587 -0.0584
13509TIP3    H161942   2.702   1.134   2.531  0.0292 -0.1495  0.6319
13509TIP3    H261943   2.700   1.283   2.504 -0.4052 -0.0777  1.0388
13510TIP3   OH261944   3.962   4.077   1.174 -0.2025 -0.7688  0.1901
13510TIP3    H161945   3.934   4.003   1.227 -0.4175  0.6143  2.1177
13510TIP3    H261946   4.039   4.045   1.128 -0.1885 -2.1423  1.0922
13511TIP3   OH261947   4.389   5.685   2.081 -0.1104 -0.1000  0.4376
13511TIP3    H161948   4.453   5.668   2.012 -0.4452 -0.5847  0.2390
13511TIP3    H261949   4.400   5.777   2.102  0.4654 -0.1122  0.2146
13512TIP3   OH261950   3.329   0.303  14.983  0.0642  0.4692  0.3599
13512TIP3    H161951   3.374   0.344  15.056 -1.4221  2.1334  0.4022
13512TIP3    H261952   3.300   0.376  14.928  1.4247 -0.7362 -2.1091
13513TIP3   OH261953   1.125   0.615  16.045  0.4848 -0.1770 -0.2373
13513TIP3    H161954   1.102   0.604  16.137 -2.2337 -0.9507 -0.9112
13513TIP3    H261955   1.194   0.552  16.030  0.3690 -0.6524  1.0870
13514TIP3   OH261956   6.044   6.163   2.534 -0.0912  0.0197 -0.3100
13514TIP3    H161957   6.130   6.122   2.542  0.1104  0.5906  0.5419
13514TIP3    H261958   6.017   6.182   2.624  0.6083  3.2836 -0.6461
13515TIP3   OH261959   0.975   5.433   1.123 -0.0968 -0.0449 -0.4456
13515TIP3    H161960   0.929   5.350   1.133  2.0707 -1.3513 -0.5598
13515TIP3    H261961   1.002   5.456   1.212 -1.4603  1.0410 -0.2932
13516TIP3   OH261962   3.992   5.888   3.125 -0.0860  0.1316 -0.0581
13516TIP3    H161963   4.028   5.948   3.060 -0.0731  0.8114  0.5662
13516TIP3    H261964   3.915   5.933   3.159 -0.0505 -0.1811  0.4456
13517TIP3   OH261965   6.508   2.555   3.397  0.5605 -0.1932 -0.2906
13517TIP3    H161966   6.481   2.602   3.476 -0.1747 -0.8105 -0.1625
13517TIP3    H261967   6.594   2.591   3.376 -0.2339  1.6610 -0.5479
13518TIP3   OH261968   4.333   4.124   6.611 -0.1043  0.3908 -0.2285
13518TIP3    H161969   4.319   4.154   6.521  1.1679  1.2298 -0.1589
13518TIP3    H261970   4.357   4.203   6.659 -0.3704 -0.1246  0.7674
13519TIP3   OH261971   0.048   5.602   3.156 -0.3714 -0.3483  0.1903
13519TIP3    H161972   0.033   5.538   3.086 -0.1061 -2.0929  1.6502
13519TIP3    H261973   0.118   5.657   3.123 -2.0423  0.6428 -2.0022
13520TIP3   OH261974   5.660   6.430   4.539 -0.1267  0.1698 -0.2256
13520TIP3    H161975   5.745   6.408   4.501 -0.6121 -0.2427 -1.1186
13520TIP3    H261976   5.612   6.472   4.468 -1.3028 -1.2306 -0.3087
13521TIP3   OH261977   1.679   0.748   6.475  0.1711 -0.5923 -0.1367
13521TIP3    H161978   1.694   0.818   6.413  0.3485 -0.8313 -0.3632
13521TIP3    H261979   1.736   0.677   6.447  0.1728 -0.7431  0.2322
13522TIP3   OH261980   5.303   2.669  11.264 -0.5941 -0.3644  0.1860
13522TIP3    H161981   5.253   2.658  11.184 -1.3379 -1.2070  0.7436
13522TIP3    H261982   5.384   2.713  11.237 -0.9660 -0.3691 -0.9607
13523TIP3   OH261983   2.623   3.821  10.562  0.9849  0.6447 -0.7090
13523TIP3    H161984   2.576   3.786  10.487  1.5038 -1.1119 -0.2553
13523TIP3    H261985   2.711   3.784  10.555  1.2381  0.9993  0.3937
13524TIP3   OH261986   1.844   4.587  14.522  0.0213  0.6423  0.3982
13524TIP3    H161987   1.924   4.577  14.574 -0.5399  1.3355  1.4303
13524TIP3    H261988   1.809   4.499  14.515  0.1703  0.5183  1.1159
13525TIP3   OH261989   0.328   2.829   5.167  1.0965  0.4203 -0.2504
13525TIP3    H161990   0.256   2.766   5.155  1.0593  0.0341  1.6933
13525TIP3    H261991   0.375   2.798   5.244  3.6977  0.3944 -1.7177
13526TIP3   OH261992   3.789   4.570  11.607  0.0945 -0.0689 -0.2552
13526TIP3    H161993   3.863   4.597  11.553  0.8964  0.9943  1.2833
13526TIP3    H261994   3.716   4.624  11.577  0.1154 -0.5678 -1.2579
13527TIP3   OH261995   3.960   0.198  14.796 -0.6380 -0.1683  0.1838
13527TIP3    H161996   3.995   0.122  14.843  1.1307  1.3946  1.5420
13527TIP3    H261997   4.004   0.195  14.711 -1.4262 -1.2285 -0.2198
13528TIP3   OH261998   5.826   0.683   3.136  0.3288  0.2536  0.4694
13528TIP3    H161999   5.885   0.671   3.210  0.3424 -0.7343  0.3106
13528TIP3    H262000   5.883   0.684   3.059  0.3964  2.0317  0.4862
13529TIP3   OH262001   2.391   4.365  16.067 -0.5215 -0.0961  0.0121
13529TIP3    H162002   2.461   4.391  16.127  0.4544 -0.5264 -0.9018
13529TIP3    H262003   2.313   4.361  16.122 -0.0200  1.2976  0.8720
13530TIP3   OH262004   3.515   6.438   5.547  0.2732  0.5886  0.4969
13530TIP3    H162005   3.490   6.352   5.579 -0.2902  0.7876  0.6094
13530TIP3    H262006   3.432   6.479   5.520  0.2575  1.8342  2.2456
13531TIP3   OH262007   1.621   0.843   4.843 -0.3818 -0.3856  0.4387
13531TIP3    H162008   1.574   0.926   4.831 -1.4872 -1.2688 -1.8125
13531TIP3    H262009   1.552   0.777   4.852  0.4251 -1.4749 -1.1022
13532TIP3   OH262010   6.340   6.252   6.517 -0.1782 -0.4298 -0.1248
13532TIP3    H162011   6.324   6.318   6.450  1.1918  0.1871  0.1319
13532TIP3    H262012   6.405   6.193   6.478  0.4518 -0.1993  0.5476
13533TIP3   OH262013   3.037   6.648   3.715 -0.0916  0.1209 -0.6870
13533TIP3    H162014   2.947   6.636   3.684  0.1709  0.1568 -1.4954
13533TIP3    H262015   3.089   6.660   3.635  0.6710 -0.1438 -0.2510
13534TIP3   OH262016   2.554   0.663   2.778  0.6568 -0.6196  0.4632
13534TIP3    H162017   2.649   0.658   2.787  0.6301  0.4623  1.6184
13534TIP3    H262018   2.520   0.651   2.866 -0.1659  0.7925  0.3771
13535TIP3   OH262019   5.761   6.286  16.130 -0.0779  0.1712 -0.4094
13535TIP3    H162020   5.813   6.349  16.080  1.2460  0.3485  1.1217
13535TIP3    H262021   5.727   6.337  16.203 -3.3113  0.3167 -1.8292
13536TIP3   OH262022   3.704   1.275   3.074 -0.4527  0.5471 -0.8839
13536TIP3    H162023   3.662   1.192   3.053 -0.7574 -0.0590  1.7561
13536TIP3    H262024   3.796   1.251   3.091 -0.4998  0.7728 -0.2966
13537TIP3   OH262025   2.177   3.072   6.136 -0.0679  0.2080 -0.0133
13537TIP3    H162026   2.100   3.112   6.096  0.1692 -0.1426 -0.8299
13537TIP3    H262027   2.211   3.012   6.070  1.6822  1.3108 -0.1891
13538TIP3   OH262028   1.880   5.864   1.698  0.2949 -0.0458  0.5118
13538TIP3    H162029   1.965   5.838   1.734  0.8684  1.4769  0.2998
13538TIP3    H262030   1.884   5.839   1.606  0.5531  0.1072  0.4808
13539TIP3   OH262031   4.319   4.246  16.566 -0.3680 -0.3600 -0.7018
13539TIP3    H162032   4.296   4.195  16.488  0.2883 -1.1799 -0.3793
13539TIP3    H262033   4.303   4.337  16.541  0.2107 -0.5711 -1.9392
13540TIP3   OH262034   1.194   1.028   6.028 -0.3394  0.5259 -0.0627
13540TIP3    H162035   1.178   1.119   6.053 -1.6406  0.9380 -2.1500
13540TIP3    H262036   1.120   0.980   6.066 -1.2791  0.8525 -1.4023
13541TIP3   OH262037   0.232   5.723   1.365 -0.0345 -0.5705  0.1392
13541TIP3    H162038   0.304   5.663   1.343 -0.1125 -0.2574 -1.0686
13541TIP3    H262039   0.211   5.704   1.456  3.7875  1.5991  1.6717
13542TIP3   OH262040   3.356   4.069  15.621  0.2291  0.3974 -0.2767
13542TIP3    H162041   3.317   3.993  15.578 -1.2057 -0.3314  2.1186
13542TIP3    H262042   3.400   4.032  15.698  2.1267  1.7154 -0.6457
13543TIP3   OH262043   0.697   4.345   0.621  0.6212 -0.4708 -0.2627
13543TIP3    H162044   0.699   4.336   0.716 -0.0274 -1.1213 -0.2983
13543TIP3    H262045   0.745   4.269   0.589 -2.4222 -2.4644 -0.5099
13544TIP3   OH262046   4.915   1.975  11.030  0.1960 -0.1555  0.2147
13544TIP3    H162047   4.901   1.888  11.068  0.1303 -0.2203  0.0436
13544TIP3    H262048   4.914   1.960  10.936 -2.5032  0.4295  0.0910
13545TIP3   OH262049   0.137   0.471   1.195 -0.2128  0.6577 -0.0794
13545TIP3    H162050   0.108   0.533   1.263  1.1406  2.7190 -1.2570
13545TIP3    H262051   0.228   0.451   1.218 -1.0544 -2.2357  1.1339
13546TIP3   OH262052   2.648   3.572   3.810  0.3854  0.1503 -0.4050
13546TIP3    H162053   2.564   3.534   3.833  1.3734 -1.6941  0.3343
13546TIP3    H262054   2.627   3.639   3.745 -1.5749 -0.7377 -0.7448
13547TIP3   OH262055   1.564   5.910  13.195  0.3972  0.0245 -0.0156
13547TIP3    H162056   1.618   5.982  13.163 -1.7345  2.2941  1.1611
13547TIP3    H262057   1.474   5.937  13.174 -0.7452 -0.5777  3.4799
13548TIP3   OH262058   5.282   2.867   0.753 -0.1666 -0.2246 -0.1253
13548TIP3    H162059   5.362   2.818   0.734  0.4345  0.9198 -0.6144
13548TIP3    H262060   5.212   2.813   0.716  0.2488 -1.7401  1.2036
13549TIP3   OH262061   2.900   6.209   2.816 -0.1245 -0.3755  0.1975
13549TIP3    H162062   2.938   6.282   2.768  1.8993 -0.1018  2.0886
13549TIP3    H262063   2.812   6.200   2.779  0.3308  1.5718 -1.5834
13550TIP3   OH262064   6.088   1.104   1.292  0.4135  0.1332 -0.5461
13550TIP3    H162065   6.031   1.094   1.368 -1.3397 -0.5485 -1.8891
13550TIP3    H262066   6.171   1.064   1.318  0.3377  1.1399  1.4551
13551TIP3   OH262067   3.514   2.451   4.583  0.3874 -0.3585  0.0389
13551TIP3    H162068   3.559   2.519   4.533 -0.2400 -0.5454 -0.8126
13551TIP3    H262069   3.453   2.498   4.639 -0.0128 -0.2125 -0.5132
13552TIP3   OH262070   3.299   0.636  16.895 -0.3187 -0.3632  0.0626
13552TIP3    H162071   3.375   0.693  16.891 -0.7883  0.2164 -0.9368
13552TIP3    H262072   3.260   0.652  16.981  1.4548 -1.7148  1.1935
13553TIP3   OH262073   2.616   6.747  15.038 -0.5487 -0.3738  0.4029
13553TIP3    H162074   2.534   6.764  14.993 -0.9952 -0.4434  1.1664
13553TIP3    H262075   2.683   6.753  14.970 -1.0874  0.5874 -0.0699
13554TIP3   OH262076   6.144   3.837  12.909  0.4550 -0.6313 -0.2078
13554TIP3    H162077   6.096   3.842  12.992  1.0883 -0.0405  0.1385
13554TIP3    H262078   6.118   3.916  12.862  2.0179  0.3755  0.5253
13555TIP3   OH262079   0.424   1.017  12.459 -0.0893 -0.1749 -0.3291
13555TIP3    H162080   0.397   0.926  12.471  0.8665 -0.5386 -0.8265
13555TIP3    H262081   0.508   1.011  12.414 -0.2552  0.9693 -0.8260
13556TIP3   OH262082   6.210   3.090  12.346  0.6099  0.0427  0.2319
13556TIP3    H162083   6.199   3.166  12.404 -2.6991 -0.5115  0.5169
13556TIP3    H262084   6.163   3.114  12.266  1.6770 -0.7863 -0.6774
13557TIP3   OH262085   0.535   4.751  14.522  0.5119  0.3532  0.2261
13557TIP3    H162086   0.611   4.695  14.534 -0.6107 -0.9974  1.4867
13557TIP3    H262087   0.478   4.701  14.464 -0.6951 -0.1010  1.7176
13558TIP3   OH262088   5.130   0.337   1.168 -0.3931  0.6013 -0.5256
13558TIP3    H162089   5.201   0.284   1.131 -0.2451  0.0793  0.4802
13558TIP3    H262090   5.164   0.426   1.168  0.5381  0.2673  0.5435
13559TIP3   OH262091   3.814   0.556   0.518  0.2956  0.6181 -0.3920
13559TIP3    H162092   3.794   0.636   0.566 -0.0104  0.4008 -0.1568
13559TIP3    H262093   3.842   0.494   0.584 -0.1936  0.2978 -0.4829
13560TIP3   OH262094   5.114   0.306   4.994 -0.2125 -0.0018 -0.2634
13560TIP3    H162095   5.162   0.232   4.956 -1.0177 -1.1258  0.8197
13560TIP3    H262096   5.126   0.295   5.088 -0.4104  1.2225 -0.0883
13561TIP3   OH262097   2.124   6.257   1.916  0.1823  0.0042  0.1158
13561TIP3    H162098   2.059   6.299   1.859 -1.2158 -1.3623  0.6374
13561TIP3    H262099   2.185   6.327   1.938 -1.5074  1.5249  0.1847
13562TIP3   OH262100   6.198   5.413   2.165  0.0611 -0.4298  0.2165
13562TIP3    H162101   6.119   5.361   2.151  0.3584 -0.9504  0.4650
13562TIP3    H262102   6.165   5.500   2.186 -0.4732 -0.8368  1.1375
13563TIP3   OH262103   3.156   4.251   1.727 -0.3574 -0.1339 -0.6314
13563TIP3    H162104   3.191   4.301   1.654  0.0800  0.1689 -0.2209
13563TIP3    H262105   3.170   4.307   1.804 -0.1566 -0.7439 -0.2143
13564TIP3   OH262106   6.653   1.059   1.081 -0.1956  0.5747  0.1040
13564TIP3    H162107   6.681   0.991   1.019 -1.6044 -0.0590  0.1235
13564TIP3    H262108   6.734   1.089   1.121  1.0379  2.2400 -3.2269
13565TIP3   OH262109   2.510   1.352  15.809 -0.8018  0.0735 -0.1795
13565TIP3    H162110   2.482   1.280  15.753 -1.6268  0.0349  0.2751
13565TIP3    H262111   2.544   1.417  15.748  0.1440 -0.7659 -0.5838
13566TIP3   OH262112   3.391   4.029   1.160 -0.5317 -0.0816  0.1515
13566TIP3    H162113   3.337   3.967   1.209  0.8734 -1.7823 -0.3815
13566TIP3    H262114   3.481   3.998   1.172  0.2135  1.7804 -0.2586
13567TIP3   OH262115   2.180   1.836  14.351  0.7272  0.6111  0.2897
13567TIP3    H162116   2.119   1.859  14.281 -1.7426 -3.7810  0.6639
13567TIP3    H262117   2.234   1.766  14.314  3.1694  1.9194  1.1653
13568TIP3   OH262118   6.029   3.127  12.799 -0.6008  0.0417 -0.4026
13568TIP3    H162119   6.090   3.062  12.833 -3.3087 -1.2889  2.5170
13568TIP3    H262120   6.062   3.211  12.830 -0.4112 -0.6973  1.5419
13569TIP3   OH262121   1.542   1.299  10.762  0.3653 -0.0321  0.5139
13569TIP3    H162122   1.618   1.322  10.816 -0.0772  1.5931  0.4952
13569TIP3    H262123   1.577   1.291  10.673  0.2599  2.5353  0.1898
13570TIP3   OH262124   5.427   0.403   5.632 -0.3303  0.3168 -0.2568
13570TIP3    H162125   5.394   0.345   5.563  0.4408  1.6471 -1.8098
13570TIP3    H262126   5.473   0.345   5.692  0.2666 -0.7154 -1.6620
13571TIP3   OH262127   1.833   1.560   0.337  0.4063 -0.0335 -0.1103
13571TIP3    H162128   1.923   1.529   0.348 -0.0855 -1.5407 -0.0162
13571TIP3    H262129   1.791   1.545   0.422  0.1259  0.8464 -0.0908
13572TIP3   OH262130   5.274   0.579   6.016  0.9894  0.0201  0.1333
13572TIP3    H162131   5.274   0.484   6.009  0.2450 -0.1081  1.5239
13572TIP3    H262132   5.218   0.609   5.944 -1.0079 -0.7830  1.2751
13573TIP3   OH262133   2.975   0.008   6.017 -0.1306  0.1474  0.4707
13573TIP3    H162134   3.044   0.054   6.065  0.9050  0.0526 -0.8591
13573TIP3    H262135   2.931  -0.044   6.084  0.6084  0.7801  1.4906
13574TIP3   OH262136   0.615   6.348  16.536 -0.3880 -0.3929 -0.3326
13574TIP3    H162137   0.577   6.377  16.453  0.1593 -0.9344 -0.7843
13574TIP3    H262138   0.550   6.287  16.572 -0.1193 -1.0428 -0.9266
13575TIP3   OH262139   3.078   2.770  15.658 -0.3686  0.8455  0.3296
13575TIP3    H162140   3.167   2.752  15.627 -0.3907  1.2345  0.0314
13575TIP3    H262141   3.079   2.744  15.750 -0.3985 -0.6671 -0.0690
13576TIP3   OH262142   6.534   1.125  16.781 -0.2445 -0.0597  0.6404
13576TIP3    H162143   6.605   1.062  16.764 -0.4362 -0.5821  1.7355
13576TIP3    H262144   6.475   1.079  16.841 -0.0574  1.3865  1.9716
13577TIP3   OH262145   5.140   5.230   5.423 -0.8121  0.4418 -0.1806
13577TIP3    H162146   5.126   5.140   5.451 -1.7038  0.8368  0.7226
13577TIP3    H262147   5.090   5.283   5.486 -0.6584  1.5399 -0.9445
13578TIP3   OH262148   4.229   4.911   3.622 -0.0175 -0.5655  0.3120
13578TIP3    H162149   4.203   4.965   3.548  2.4745 -0.1614 -0.3798
13578TIP3    H262150   4.245   4.974   3.693  0.3520 -0.6422  0.3014
13579TIP3   OH262151   3.386   4.384  13.850 -0.0049 -0.1896  0.6953
13579TIP3    H162152   3.464   4.367  13.903  0.5088  1.6857  0.6340
13579TIP3    H262153   3.324   4.423  13.912  0.6608  2.1733 -0.0271
13580TIP3   OH262154   3.877   1.305  16.488  0.4307  0.2126 -0.0047
13580TIP3    H162155   3.874   1.387  16.440  0.1140  0.0045 -0.3512
13580TIP3    H262156   3.794   1.262  16.468  0.3024  0.1090  0.7134
13581TIP3   OH262157   6.271   6.499   4.372 -0.1298  0.7776 -0.2992
13581TIP3    H162158   6.201   6.522   4.432 -0.3096  0.7218 -0.4878
13581TIP3    H262159   6.351   6.518   4.421 -0.2681  0.2675  0.1424
13582TIP3   OH262160   5.394   3.943   2.400 -0.1057  0.0154 -0.2234
13582TIP3    H162161   5.381   3.856   2.363 -0.7660  0.2117 -0.4668
13582TIP3    H262162   5.478   3.937   2.447 -0.9433 -1.2441  1.2254
13583TIP3   OH262163   3.435   2.621  16.844  0.1790  0.5867 -0.4680
13583TIP3    H162164   3.358   2.623  16.787  0.0305  1.6842 -0.2393
13583TIP3    H262165   3.485   2.699  16.819  1.3915 -0.2805 -0.8396
13584TIP3   OH262166   1.745   1.117  14.139  0.1484 -0.0949 -0.5046
13584TIP3    H162167   1.652   1.100  14.157 -0.0670  0.2060 -1.3155
13584TIP3    H262168   1.746   1.157  14.052  0.9531  0.9123 -0.0506
13585TIP3   OH262169   0.967   2.019   4.315  0.1194  0.1320 -0.0868
13585TIP3    H162170   1.040   2.079   4.333  0.2998  0.1262 -0.7688
13585TIP3    H262171   0.892   2.077   4.299  0.3250  0.1808 -0.8797
13586TIP3   OH262172   0.327   5.329   1.134  0.1945 -0.4274 -0.3678
13586TIP3    H162173   0.362   5.364   1.216  0.1175 -0.0279 -0.5050
13586TIP3    H262174   0.403   5.323   1.076  0.2694 -0.8119 -0.2397
13587TIP3   OH262175   0.913   2.695   4.095  0.5568 -0.2266 -0.5983
13587TIP3    H162176   0.842   2.695   4.031  0.3340 -4.2815 -0.6139
13587TIP3    H262177   0.890   2.764   4.157 -2.2473 -0.0010 -1.7597
13588TIP3   OH262178   3.062   4.703  14.919  0.3122 -0.2579 -0.5507
13588TIP3    H162179   3.044   4.777  14.977 -0.0898  0.2686 -1.3282
13588TIP3    H262180   2.978   4.660  14.908  0.6225 -1.0812  0.2179
13589TIP3   OH262181   1.913   3.134   0.801 -0.1541 -0.3693 -0.6138
13589TIP3    H162182   1.969   3.084   0.860  0.1119 -0.3780 -0.8702
13589TIP3    H262183   1.834   3.151   0.852  0.1765 -0.1532 -0.1678
13590TIP3   OH262184   6.041   6.001  17.038  0.0654  0.2154  0.2595
13590TIP3    H162185   6.045   6.053  16.958  1.0536  0.4817  0.4715
13590TIP3    H262186   5.970   6.042  17.088 -1.8970 -1.1600 -1.2680
13591TIP3   OH262187   4.835   5.179   2.887  0.1488  0.1895 -0.3610
13591TIP3    H162188   4.854   5.185   2.980 -0.5110  1.3537 -0.2832
13591TIP3    H262189   4.921   5.170   2.845  0.3533 -2.6819  0.4639
13592TIP3   OH262190   5.737   6.413  12.832  0.3836  0.2568 -0.2569
13592TIP3    H162191   5.821   6.430  12.875 -0.8240  0.5401  2.1551
13592TIP3    H262192   5.724   6.319  12.843 -0.5077  0.5151  1.2721
13593TIP3   OH262193   2.846   5.293  15.653  0.9738 -0.2549 -0.4821
13593TIP3    H162194   2.939   5.285  15.632  0.7064  1.1748 -2.4328
13593TIP3    H262195   2.813   5.359  15.592 -0.8962  0.8393  1.5719
13594TIP3   OH262196   5.038   4.490   3.800  0.1699  0.0664 -0.0638
13594TIP3    H162197   4.967   4.535   3.755 -0.1609  0.3295  0.7170
13594TIP3    H262198   5.005   4.475   3.888  1.5890  1.4334  0.7480
13595TIP3   OH262199   1.809   3.913   5.266  0.5384  0.1938  0.8239
13595TIP3    H162200   1.893   3.889   5.226  0.6024 -0.5572  1.3878
13595TIP3    H262201   1.831   3.980   5.330  0.9538 -1.0623  2.0465
13596TIP3   OH262202   3.961   2.175  17.087  0.2356  0.1746  0.3576
13596TIP3    H162203   4.009   2.137  17.161  1.0161 -0.1023 -0.2771
13596TIP3    H262204   3.869   2.168  17.113  0.5014  0.3690  1.4335
13597TIP3   OH262205   4.295   0.615  12.307  0.0043 -0.6781  0.0383
13597TIP3    H162206   4.272   0.522  12.307 -0.6398 -0.5296 -0.5757
13597TIP3    H262207   4.358   0.625  12.379 -1.1359 -1.2770  1.1528
13598TIP3   OH262208   3.077   1.299  13.137  0.9721  0.1154 -0.0550
13598TIP3    H162209   3.069   1.241  13.213  0.2279  0.4277  0.1075
13598TIP3    H262210   2.995   1.287  13.089  0.5390  1.4807  0.3037
13599TIP3   OH262211   5.953   4.789  12.199 -0.8697  0.4464  0.5775
13599TIP3    H162212   6.032   4.751  12.162 -0.8017  1.0316  0.1121
13599TIP3    H262213   5.942   4.872  12.153  0.1389  2.0292  2.9633
13600TIP3   OH262214   6.763   5.561  16.802  0.4163  0.3162 -0.0046
13600TIP3    H162215   6.684   5.512  16.823  0.2007 -0.0553 -1.5837
13600TIP3    H262216   6.755   5.582  16.709  2.6171 -0.6114 -0.4694
13601TIP3   OH262217   1.895   0.038  14.672  0.2037 -0.3769 -0.0592
13601TIP3    H162218   1.924   0.047  14.581  1.6973 -2.5998  0.1343
13601TIP3    H262219   1.946   0.103  14.720  0.6290 -0.3219 -0.5732
13602TIP3   OH262220   5.250   2.608  11.526  0.2437 -0.2094 -0.1364
13602TIP3    H162221   5.287   2.628  11.440  1.3715 -0.3389  0.3057
13602TIP3    H262222   5.190   2.534  11.509  0.1662  0.0109 -0.8613
13603TIP3   OH262223   6.221   2.619  11.822 -0.3680  0.2342  0.1222
13603TIP3    H162224   6.300   2.617  11.767 -0.5609 -0.2189 -0.1439
13603TIP3    H262225   6.198   2.712  11.827 -1.7343  0.1535 -2.5967
13604TIP3   OH262226   0.816   2.170  15.127  0.1043  0.2003  0.8272
13604TIP3    H162227   0.846   2.082  15.102 -0.4878  0.4822 -1.0233
13604TIP3    H262228   0.893   2.211  15.165  0.7301 -0.7097  0.5911
13605TIP3   OH262229   2.551   4.101  11.854  0.0162  0.2368 -0.1023
13605TIP3    H162230   2.587   4.097  11.943 -1.6436  2.6126  0.7643
13605TIP3    H262231   2.456   4.099  11.866 -0.2623  1.6681 -1.7296
13606TIP3   OH262232   6.165   0.326   5.897 -0.3926  0.1990  0.3449
13606TIP3    H162233   6.144   0.240   5.862 -1.3159  0.6150 -0.1692
13606TIP3    H262234   6.084   0.355   5.938 -0.3729  1.2160 -0.3140
13607TIP3   OH262235   1.730   3.090   5.151 -0.3115 -0.2422 -0.3428
13607TIP3    H162236   1.756   3.127   5.235  1.4801  0.5607 -1.1986
13607TIP3    H262237   1.798   3.119   5.090 -1.1457 -1.4470 -1.9152
13608TIP3   OH262238   3.562   0.508   5.564  0.5833 -0.2755 -0.1434
13608TIP3    H162239   3.586   0.415   5.563 -0.0848 -0.4965  1.3407
13608TIP3    H262240   3.512   0.519   5.645 -1.8459  0.7865 -1.6965
13609TIP3   OH262241   1.518   6.150   0.868  0.2143 -0.2184  0.4028
13609TIP3    H162242   1.585   6.211   0.836  0.5571  0.3264  2.0617
13609TIP3    H262243   1.438   6.202   0.869  0.2625 -0.1498  0.6938
13610TIP3   OH262244   2.992   4.710   0.806 -0.3515  0.4221  0.5759
13610TIP3    H162245   2.933   4.668   0.744  0.9621  0.2358 -0.6131
13610TIP3    H262246   3.076   4.665   0.793  0.4831  1.7948  0.9887
13611TIP3   OH262247   0.043   2.426   4.584  0.1460  0.0523  0.6428
13611TIP3    H162248   0.012   2.336   4.593 -0.7836  0.2179 -0.6912
13611TIP3    H262249   0.030   2.448   4.492 -1.8094  2.3233  1.3604
13612TIP3   OH262250   6.558   2.810  15.649 -0.1080 -0.2677  0.6039
13612TIP3    H162251   6.634   2.860  15.619  0.6782 -2.0554 -0.5509
13612TIP3    H262252   6.593   2.748  15.713 -1.2483  1.2973  2.8825
13613TIP3   OH262253   0.427   0.396   3.910 -0.4865 -0.0862 -0.2459
13613TIP3    H162254   0.371   0.439   3.845 -1.6863  1.0500  1.4691
13613TIP3    H262255   0.475   0.467   3.952  0.0381 -0.7597  0.3227
13614TIP3   OH262256   4.951   4.442   0.747 -0.0468 -0.1379  0.3720
13614TIP3    H162257   4.865   4.409   0.774 -0.8067  1.2632 -0.2145
13614TIP3    H262258   4.964   4.404   0.660 -0.1524 -0.2011  0.3828
13615TIP3   OH262259   6.654   4.560   2.501  0.2928 -0.1859 -0.3625
13615TIP3    H162260   6.578   4.532   2.449 -0.7272  2.1247 -0.2804
13615TIP3    H262261   6.729   4.524   2.454 -0.6044  1.3368 -3.2853
13616TIP3   OH262262   0.953   5.761   2.001  0.0365 -0.3863 -0.2229
13616TIP3    H162263   0.876   5.715   1.967 -0.9274  1.6683 -1.0619
13616TIP3    H262264   0.917   5.840   2.042  1.5887 -0.2970  1.0598
13617TIP3   OH262265   2.912   3.440   1.374  0.5915 -0.2728  0.0503
13617TIP3    H162266   2.912   3.457   1.468  0.0747  1.0103 -0.1546
13617TIP3    H262267   2.988   3.487   1.340 -0.9425  1.9849 -0.5495
13618TIP3   OH262268   3.316   6.319   3.633  0.0321 -0.3183  0.1023
13618TIP3    H162269   3.277   6.381   3.694 -2.1716 -1.3591 -0.1577
13618TIP3    H262270   3.320   6.236   3.681 -1.4707 -1.0781 -1.0070
13619TIP3   OH262271   1.973   0.052  15.568  0.2716  0.3836 -0.4507
13619TIP3    H162272   1.893   0.023  15.611 -0.2623  0.5872 -1.2835
13619TIP3    H262273   2.040   0.049  15.637 -0.7420  1.5902  0.6317
13620TIP3   OH262274   5.167   3.174   3.099 -0.1959 -0.3512 -0.7225
13620TIP3    H162275   5.156   3.261   3.137 -0.0627 -0.9770  0.8098
13620TIP3    H262276   5.123   3.115   3.160 -0.4836 -1.3451 -1.8585
13621TIP3   OH262277   6.441   0.931  11.612 -0.0781 -0.0851  0.2441
13621TIP3    H162278   6.532   0.953  11.591  1.4920 -1.7409  4.2416
13621TIP3    H262279   6.435   0.945  11.706 -4.2741  0.5691  0.0591
13622TIP3   OH262280   2.610   0.819  11.222 -0.6028  0.0529  0.6322
13622TIP3    H162281   2.688   0.769  11.245 -0.6259  0.8715  2.6751
13622TIP3    H262282   2.625   0.847  11.132  1.5823  0.4245  1.0573
13623TIP3   OH262283   4.402   4.342   5.322 -0.3351 -0.4083  0.3436
13623TIP3    H162284   4.313   4.377   5.327  0.0353  0.3991  2.1255
13623TIP3    H262285   4.418   4.306   5.409  1.3084  0.0297  0.2476
13624TIP3   OH262286   0.486   6.113  16.669  0.2327 -0.1214  0.5423
13624TIP3    H162287   0.465   6.039  16.726  0.1667  0.6476  1.5430
13624TIP3    H262288   0.437   6.187  16.707 -0.9054  0.1207 -1.3045
13625TIP3   OH262289   3.037   5.983  12.123  0.4236 -0.1010 -0.4247
13625TIP3    H162290   3.021   5.889  12.111 -0.7272  0.3341 -2.9828
13625TIP3    H262291   3.016   5.998  12.215  0.7736 -2.3563  0.1031
13626TIP3   OH262292   5.034   5.163  12.800  0.3959 -0.1684  1.1228
13626TIP3    H162293   4.997   5.177  12.712  0.1008  0.9437  1.4095
13626TIP3    H262294   5.038   5.250  12.838 -0.5505 -0.7639  2.6575
13627TIP3   OH262295   0.408   5.063  13.937 -0.2858  0.1629  0.5527
13627TIP3    H162296   0.383   5.057  14.029 -0.8935  2.7004  0.6071
13627TIP3    H262297   0.447   5.149  13.927  2.2040 -1.0304 -1.0639
13628TIP3   OH262298   3.360   3.831  14.648  0.2857  0.6802 -0.2611
13628TIP3    H162299   3.447   3.846  14.611  0.3559 -0.4580 -0.5960
13628TIP3    H262300   3.344   3.737  14.636 -0.7429  0.7579  0.3354
13629TIP3   OH262301   2.412   3.980  13.276  0.2914  0.4224  0.2971
13629TIP3    H162302   2.449   3.895  13.251 -0.3858  0.7443 -1.9428
13629TIP3    H262303   2.435   4.038  13.204  1.0733  2.2927  1.9630
13630TIP3   OH262304   4.395   2.409  16.349 -0.1032 -0.7010 -0.2441
13630TIP3    H162305   4.344   2.442  16.423  1.1165 -0.2266  0.4174
13630TIP3    H262306   4.368   2.463  16.275  0.8371  0.9006  0.5229
13631TIP3   OH262307   5.681   0.744   4.591 -0.1063  0.2925 -0.3689
13631TIP3    H162308   5.684   0.835   4.562  2.5172  0.0963 -0.9253
13631TIP3    H262309   5.674   0.693   4.511 -1.7022 -0.0435 -0.0511
13632TIP3   OH262310   3.569   3.086  16.011  0.9488 -0.6019 -1.1488
13632TIP3    H162311   3.524   3.050  16.088  1.4202  0.6369 -0.2666
13632TIP3    H262312   3.662   3.080  16.032  1.1045 -0.6025 -1.8020
13633TIP3   OH262313   6.020   0.771   2.717  0.1478  0.6397  0.0296
13633TIP3    H162314   6.007   0.724   2.800 -0.3242  0.6025 -0.0619
13633TIP3    H262315   6.081   0.842   2.739  1.1384 -0.2129  0.0948
13634TIP3   OH262316   2.113   4.884   2.727 -0.2404 -0.1364  0.0381
13634TIP3    H162317   2.076   4.970   2.708 -0.7153 -0.5431 -0.9930
13634TIP3    H262318   2.201   4.901   2.759 -0.5506  0.7547  0.4460
13635TIP3   OH262319   2.359   6.408  12.949 -0.3062 -0.5895  0.5949
13635TIP3    H162320   2.392   6.472  12.885 -1.4125  0.3293  0.9154
13635TIP3    H262321   2.428   6.342  12.953  0.2726 -0.1145 -0.7468
13636TIP3   OH262322   3.452   1.857  13.572 -0.0234 -0.1454  0.0345
13636TIP3    H162323   3.496   1.932  13.532 -0.1983  0.1443  0.3722
13636TIP3    H262324   3.511   1.783  13.557  0.2402  0.0968 -0.1373
13637TIP3   OH262325   6.246   1.734  15.310 -0.2945  0.5027 -0.1227
13637TIP3    H162326   6.187   1.801  15.342 -0.8499  0.0410 -0.1760
13637TIP3    H262327   6.207   1.705  15.228  1.0390  1.5818 -1.1925
13638TIP3   OH262328   2.606   1.105   1.340 -0.0243  0.0381  0.1202
13638TIP3    H162329   2.590   1.012   1.358  2.9639 -0.4030  1.0521
13638TIP3    H262330   2.701   1.111   1.327 -0.0906  3.0165  0.3029
13639TIP3   OH262331   0.793   2.506  13.904  0.3296 -0.0338  0.6493
13639TIP3    H162332   0.748   2.588  13.883  0.4715  0.5290  2.3544
13639TIP3    H262333   0.881   2.518  13.867  0.6079  0.9528  1.5669
13640TIP3   OH262334   1.922   6.709   5.901 -0.0909  0.6952  0.5610
13640TIP3    H162335   2.001   6.662   5.927 -0.3328 -1.3900 -1.9985
13640TIP3    H262336   1.851   6.662   5.944 -0.0837  1.6087  1.6158
13641TIP3   OH262337   3.364   0.896   4.322 -0.6444 -0.4581  0.0715
13641TIP3    H162338   3.360   0.800   4.324  0.1535 -0.5071 -0.2596
13641TIP3    H262339   3.415   0.916   4.244  0.2664  0.1897  0.8104
13642TIP3   OH262340   0.805   1.958   5.851  0.0953  0.2322  0.2759
13642TIP3    H162341   0.820   1.866   5.828  2.6417  0.8555 -0.9063
13642TIP3    H262342   0.747   1.954   5.927 -0.8516 -2.2819 -0.4748
13643TIP3   OH262343   2.675   1.320  16.351  0.0120  0.6060  0.1136
13643TIP3    H162344   2.760   1.361  16.334  0.3076  0.4306  1.1237
13643TIP3    H262345   2.649   1.352  16.438 -1.4474  1.4702 -0.5948
13644TIP3   OH262346   6.446   5.178  11.363 -0.2650 -0.2657  0.0161
13644TIP3    H162347   6.513   5.133  11.415 -0.3120 -0.0186  0.2934
13644TIP3    H262348   6.366   5.128  11.378  0.2604 -1.8565 -1.9875
13645TIP3   OH262349   1.008   5.131  11.771 -0.3460  0.4251 -0.2093
13645TIP3    H162350   1.001   5.085  11.688  0.5602  1.2145 -0.7584
13645TIP3    H262351   0.918   5.150  11.797 -0.6781 -0.7135 -0.4900
13646TIP3   OH262352   2.038   2.080  15.276  0.0618 -0.2627  0.0914
13646TIP3    H162353   2.103   2.149  15.287 -1.0032  0.5247  2.0248
13646TIP3    H262354   2.014   2.056  15.365 -1.5863 -1.2017 -0.5624
13647TIP3   OH262355   0.663   5.567  13.573  0.3296  0.4283 -0.1819
13647TIP3    H162356   0.645   5.540  13.663  0.2425 -0.1274 -0.3630
13647TIP3    H262357   0.577   5.581  13.535  0.3370 -0.2388 -0.4492
13648TIP3   OH262358   2.500   1.330  14.806 -0.3019  0.0072  0.2756
13648TIP3    H162359   2.589   1.322  14.770  0.0993  0.1329  1.2013
13648TIP3    H262360   2.461   1.404  14.759  0.1765  0.1208  0.0522
13649TIP3   OH262361   0.745   3.353   4.065 -0.3691 -0.8880 -0.4274
13649TIP3    H162362   0.744   3.259   4.085  2.0897 -0.9346 -0.2050
13649TIP3    H262363   0.831   3.367   4.024 -0.8261  1.2116 -0.7405
13650TIP3   OH262364   0.744   6.037   0.567 -0.2902  0.2828 -0.4869
13650TIP3    H162365   0.736   5.979   0.642 -0.6895  1.1261  0.1337
13650TIP3    H262366   0.736   5.979   0.491  0.2069 -0.5898  0.1049
13651TIP3   OH262367   5.997   4.123   1.032  0.4069 -0.4762 -0.3325
13651TIP3    H162368   6.040   4.040   1.053 -0.8882 -1.2577 -0.6447
13651TIP3    H262369   5.994   4.124   0.937 -1.0072 -0.8550 -0.3094
13652TIP3   OH262370   1.225   5.324   1.032  0.5876 -0.1095 -0.1630
13652TIP3    H162371   1.201   5.278   0.952  1.1871  0.3071 -0.5880
13652TIP3    H262372   1.144   5.367   1.060  0.8425  1.5144 -1.7314
13653TIP3   OH262373   3.118   1.554   2.590  0.3667 -0.0381 -0.2360
13653TIP3    H162374   3.066   1.483   2.554  1.4755 -0.5059 -0.9754
13653TIP3    H262375   3.092   1.631   2.540  1.7993 -0.6562 -2.0606
13654TIP3   OH262376   3.045   6.139  15.179  0.5039 -0.5147  0.5512
13654TIP3    H162377   2.978   6.204  15.158  0.0645 -0.2211  2.6372
13654TIP3    H262378   3.093   6.177  15.252  0.7285 -2.1787  1.3199
13655TIP3   OH262379   0.141   5.676  12.874 -0.3062  0.3028  0.3985
13655TIP3    H162380   0.078   5.696  12.804 -1.0062  1.1861  1.2565
13655TIP3    H262381   0.202   5.615  12.834 -2.5258 -1.7537 -0.0811
13656TIP3   OH262382   4.516   6.006  12.500 -0.1150  0.3538  0.4352
13656TIP3    H162383   4.579   5.943  12.464 -1.1440 -0.5774  0.2188
13656TIP3    H262384   4.433   5.959  12.501 -0.4995  0.9715  2.3091
13657TIP3   OH262385   6.741   4.694   4.756 -0.4039  0.5435 -0.0541
13657TIP3    H162386   6.808   4.713   4.690 -2.5345 -0.1824 -2.5905
13657TIP3    H262387   6.670   4.652   4.707 -1.5591 -1.3495  2.9818
13658TIP3   OH262388   4.421   5.488   3.380  0.3965  0.2439 -0.2301
13658TIP3    H162389   4.403   5.395   3.367 -1.4093  0.7028 -1.2982
13658TIP3    H262390   4.415   5.526   3.293  2.5632  1.1782 -0.0327
13659TIP3   OH262391   5.613   3.696  14.852  0.1990  0.0464  0.0299
13659TIP3    H162392   5.625   3.623  14.913 -1.6966 -1.2789 -1.0610
13659TIP3    H262393   5.521   3.688  14.824 -0.2860  3.2499  0.3531
13660TIP3   OH262394   3.258   4.056   4.472  0.2347  0.4040 -0.0262
13660TIP3    H162395   3.325   4.114   4.437  1.1459 -1.1784 -1.0547
13660TIP3    H262396   3.176   4.088   4.434  0.5954  1.4628  0.0617
13661TIP3   OH262397   1.024   0.026   5.423  0.3052 -0.2068 -0.3989
13661TIP3    H162398   0.957  -0.002   5.361 -0.4693  0.6806  0.0090
13661TIP3    H262399   1.003   0.118   5.441  1.4865  0.0075 -0.0641
13662TIP3   OH262400   0.441   1.914  14.334 -0.0277  0.3488 -0.4896
13662TIP3    H162401   0.433   1.819  14.328 -3.2380  0.4645  0.1064
13662TIP3    H262402   0.512   1.928  14.396 -1.3784 -1.7997  1.7681
13663TIP3   OH262403   4.456   1.463   1.514  0.4792 -1.0407 -0.2438
13663TIP3    H162404   4.545   1.459   1.478  0.8650  1.3939  0.3042
13663TIP3    H262405   4.417   1.541   1.474 -0.9454 -1.2957  0.5839
13664TIP3   OH262406   5.326   4.611   3.813  0.2694 -0.2796  0.2108
13664TIP3    H162407   5.360   4.564   3.889  0.8749 -1.7208 -0.9165
13664TIP3    H262408   5.243   4.568   3.793 -0.0634  0.3279  0.2592
13665TIP3   OH262409   1.644   2.048  15.818 -0.0322 -0.4437 -0.4606
13665TIP3    H162410   1.738   2.029  15.820 -0.3096 -1.9679  0.2963
13665TIP3    H262411   1.605   1.975  15.867 -1.7398 -0.6858 -2.0758
13666TIP3   OH262412   1.843   0.100  16.594  0.4500 -0.2148  0.2360
13666TIP3    H162413   1.914   0.145  16.549  0.7655  0.0096  0.9465
13666TIP3    H262414   1.818   0.029  16.535  0.5345  0.3561 -0.5022
13667TIP3   OH262415   3.737   1.694  10.528  0.4616  0.0244 -0.0317
13667TIP3    H162416   3.745   1.743  10.446 -2.0905  3.1379  1.3521
13667TIP3    H262417   3.814   1.720  10.578  0.5190  0.4686 -0.3418
13668TIP3   OH262418   2.358   1.230   1.256 -0.0133 -0.3859 -0.2108
13668TIP3    H162419   2.290   1.166   1.277 -0.2015  0.4622  2.0205
13668TIP3    H262420   2.437   1.194   1.296 -0.0036  0.4854  0.5797
13669TIP3   OH262421   3.183   0.400   1.358 -0.3072  0.2140  0.2553
13669TIP3    H162422   3.122   0.402   1.285  0.2187  0.8275 -0.1764
13669TIP3    H262423   3.132   0.429   1.433 -1.1207 -1.3894  0.3601
13670TIP3   OH262424   0.138   3.526   1.709 -0.1622 -0.4180 -0.2297
13670TIP3    H162425   0.215   3.579   1.684  1.0620 -1.8033  0.4742
13670TIP3    H262426   0.173   3.439   1.725 -1.7324 -0.8353  1.1792
13671TIP3   OH262427   2.263   4.061  11.981 -0.0831 -0.1187 -0.5025
13671TIP3    H162428   2.253   4.024  12.069 -0.0380 -0.2538 -0.5528
13671TIP3    H262429   2.196   4.016  11.929 -0.7445  0.6479 -0.3276
13672TIP3   OH262430   2.442   3.927   2.491  0.6122 -0.1386 -0.2363
13672TIP3    H162431   2.353   3.959   2.507  0.2794  0.0720 -2.2488
13672TIP3    H262432   2.498   4.004   2.501  0.4997 -0.1167  0.2905
13673TIP3   OH262433   2.187   0.367  15.418 -0.4601 -0.4394 -0.1302
13673TIP3    H162434   2.185   0.274  15.440 -1.1647 -0.4125 -0.0661
13673TIP3    H262435   2.226   0.410  15.495 -0.7517 -0.6085  0.1132
13674TIP3   OH262436   3.422   3.319  14.018 -0.2792 -0.1595  0.5828
13674TIP3    H162437   3.466   3.379  14.078 -1.0549 -0.6948  1.6993
13674TIP3    H262438   3.419   3.236  14.064 -0.4871 -0.7081 -0.3834
13675TIP3   OH262439   2.278   5.633  15.117  0.2063  0.0597 -0.1117
13675TIP3    H162440   2.335   5.556  15.115  1.0622  0.5770  1.8454
13675TIP3    H262441   2.190   5.598  15.133  0.1747 -0.6414 -1.6359
13676TIP3   OH262442   3.974   1.667   2.171 -0.0729 -0.0256 -0.0208
13676TIP3    H162443   4.037   1.708   2.230 -0.2167 -0.9117  0.7826
13676TIP3    H262444   3.903   1.637   2.229  0.4647 -2.2455 -0.3948
13677TIP3   OH262445   1.382   4.985   0.822 -0.0593 -0.5473 -0.1555
13677TIP3    H162446   1.449   4.941   0.875 -0.1828  0.0257  0.4812
13677TIP3    H262447   1.431   5.024   0.749  0.1949 -0.8083 -0.1230
13678TIP3   OH262448   6.640   4.087   3.653 -0.2101 -0.6716  0.4559
13678TIP3    H162449   6.591   4.020   3.701  1.0959 -1.9164  0.0999
13678TIP3    H262450   6.731   4.073   3.678  0.2649  0.0014 -0.8076
13679TIP3   OH262451   3.793   5.401  13.362 -0.0649  0.6009 -0.2928
13679TIP3    H162452   3.791   5.310  13.393 -0.4503  0.9313  0.6898
13679TIP3    H262453   3.858   5.401  13.292 -0.6231 -0.6014 -0.8403
13680TIP3   OH262454   3.720   0.926  12.839 -0.3846 -0.3319  0.6595
13680TIP3    H162455   3.751   1.009  12.803 -0.2864 -0.2030  1.0377
13680TIP3    H262456   3.794   0.894  12.892  0.0654 -1.2866 -0.4975
13681TIP3   OH262457   3.055   0.479   1.591 -0.0612  0.3032  0.0707
13681TIP3    H162458   2.970   0.491   1.633 -0.1802 -0.8836  0.2045
13681TIP3    H262459   3.118   0.476   1.664 -0.0742 -0.1834  0.0633
13682TIP3   OH262460   0.610   4.229  12.760  0.3389 -0.7937 -0.0083
13682TIP3    H162461   0.662   4.238  12.840  0.9940 -1.6188 -0.3240
13682TIP3    H262462   0.522   4.206  12.791  0.6233 -1.2510  0.4732
13683TIP3   OH262463   2.337   3.719  15.635 -0.3278  0.2994  0.8405
13683TIP3    H162464   2.360   3.632  15.602  0.8698  0.1344  2.0451
13683TIP3    H262465   2.244   3.730  15.611 -0.0336 -0.5628 -0.8669
13684TIP3   OH262466   4.671   2.666  14.599  0.2250 -0.2620 -0.3683
13684TIP3    H162467   4.598   2.626  14.647  0.1022  1.1272  0.6575
13684TIP3    H262468   4.717   2.718  14.665  0.2132  1.5046 -1.6879
13685TIP3   OH262469   2.529   2.804  17.090 -0.8834 -0.0840 -0.1214
13685TIP3    H162470   2.453   2.847  17.130 -1.4469  0.5516 -1.7678
13685TIP3    H262471   2.528   2.833  16.999  1.2972 -0.1403 -0.2281
13686TIP3   OH262472   5.118   5.427   4.963  0.3920 -0.1730 -0.3997
13686TIP3    H162473   5.038   5.414   5.014  1.9335 -0.7172  2.0337
13686TIP3    H262474   5.088   5.430   4.872 -2.5882  1.6237  0.5180
13687TIP3   OH262475   2.375   0.871   5.637  0.1606 -0.6737 -0.2911
13687TIP3    H162476   2.434   0.820   5.693 -0.7849 -1.2644  0.2030
13687TIP3    H262477   2.312   0.806   5.604 -0.1706 -0.0737 -0.8594
13688TIP3   OH262478   0.024   5.013   1.500 -0.3598  0.3533 -0.2144
13688TIP3    H162479   0.071   5.033   1.419  1.1208 -0.1419  0.4702
13688TIP3    H262480   0.036   5.091   1.554 -0.7077  0.3930 -0.1935
13689TIP3   OH262481   5.371   2.480   2.074 -0.1788  0.0898 -0.4770
13689TIP3    H162482   5.286   2.490   2.033 -0.6078  1.5845  0.6761
13689TIP3    H262483   5.373   2.389   2.105 -1.0972 -0.1347 -1.0534
13690TIP3   OH262484   0.091   1.557   0.207  0.2325  0.2010  0.3356
13690TIP3    H162485   0.072   1.650   0.210  1.2871  0.4271  0.5512
13690TIP3    H262486   0.046   1.525   0.129  0.5571  1.0624 -0.2174
13691TIP3   OH262487   1.957   5.002  13.866 -0.3249  0.4317 -0.2344
13691TIP3    H162488   1.900   5.063  13.819 -1.1061 -0.4196 -0.4138
13691TIP3    H262489   1.981   4.936  13.801 -1.1004 -0.5418  0.4432
13692TIP3   OH262490   2.855   4.442   3.093 -0.5711  0.7540 -0.6047
13692TIP3    H162491   2.767   4.480   3.094 -1.0682 -0.3185  1.3089
13692TIP3    H262492   2.905   4.496   3.154 -0.9097 -0.7400  1.0626
13693TIP3   OH262493   6.806   6.713  13.411 -0.2035  0.1026  0.1585
13693TIP3    H162494   6.829   6.661  13.488  3.8363  0.7323 -0.3688
13693TIP3    H262495   6.790   6.648  13.342  2.9500 -0.6541 -0.0292
13694TIP3   OH262496   5.675   0.217  15.604 -0.0649 -0.1987  0.1140
13694TIP3    H162497   5.759   0.227  15.560  0.1643  0.5450  0.7141
13694TIP3    H262498   5.685   0.263  15.687 -1.9480  2.3873 -0.9488
13695TIP3   OH262499   6.176   3.541   5.373 -0.3238 -0.4951  0.4572
13695TIP3    H162500   6.087   3.575   5.380 -0.4939 -1.1541  1.9881
13695TIP3    H262501   6.191   3.528   5.280 -1.3698  0.8046  0.0906
13696TIP3   OH262502   3.060   1.835   6.316  0.2591 -0.4311 -0.1455
13696TIP3    H162503   3.099   1.918   6.292  1.8597 -1.3525 -0.8925
13696TIP3    H262504   3.134   1.775   6.326 -0.8773 -1.9091 -0.1937
13697TIP3   OH262505   4.838   1.678   0.446  0.0084 -0.5417 -0.3364
13697TIP3    H162506   4.847   1.618   0.372 -0.6303 -0.2408 -0.6655
13697TIP3    H262507   4.785   1.750   0.412  1.0193  0.3717 -0.0464
13698TIP3   OH262508   0.190   6.649   2.426 -0.0724 -0.1183  0.0440
13698TIP3    H162509   0.206   6.667   2.334  0.1818 -0.4078  0.0294
13698TIP3    H262510   0.171   6.734   2.465 -0.2714 -0.0091 -0.2944
13699TIP3   OH262511   1.499   4.914  11.037  0.1712  0.1512 -0.1632
13699TIP3    H162512   1.552   4.860  10.979 -0.4466  0.4517 -1.0365
13699TIP3    H262513   1.522   5.004  11.013 -1.3772  0.3065 -1.2216
13700TIP3   OH262514   1.420   0.316   5.813  0.1703  0.0174  0.2805
13700TIP3    H162515   1.383   0.362   5.889  0.1837  1.0422 -0.3263
13700TIP3    H262516   1.348   0.260   5.782  0.0200 -0.0719  0.7759
13701TIP3   OH262517   4.551   2.109  14.477 -1.0308  0.0684 -0.2317
13701TIP3    H162518   4.534   2.099  14.384 -0.8209 -2.6557 -0.0689
13701TIP3    H262519   4.647   2.103  14.485 -1.0403  0.3725  0.1348
13702TIP3   OH262520   4.242   5.174   5.597 -0.5364 -0.4853 -0.2186
13702TIP3    H162521   4.155   5.144   5.572 -0.3687 -0.2920 -1.0554
13702TIP3    H262522   4.302   5.109   5.560 -0.2674 -0.0451 -0.5693
13703TIP3   OH262523   2.030   5.141  11.577 -0.8856  0.0122  0.0542
13703TIP3    H162524   1.984   5.081  11.636 -3.3497 -1.3497 -2.9729
13703TIP3    H262525   2.058   5.086  11.504  2.6681  1.5047  0.0874
13704TIP3   OH262526   1.133   5.219   5.313 -0.4411  0.0643 -0.0853
13704TIP3    H162527   1.088   5.175   5.241 -0.7839  0.5251 -0.1636
13704TIP3    H262528   1.069   5.219   5.384  0.9233 -3.1390  1.3391
13705TIP3   OH262529   6.804   2.188  11.395 -0.2816 -0.4258 -0.8013
13705TIP3    H162530   6.884   2.230  11.364 -0.9890  0.8715 -0.9464
13705TIP3    H262531   6.775   2.134  11.321  0.5490 -1.0672 -0.6709
13706TIP3   OH262532   1.441   2.726  16.612  0.5975  0.1624  0.4047
13706TIP3    H162533   1.386   2.803  16.625 -0.5695 -0.6584  0.4311
13706TIP3    H262534   1.523   2.761  16.576  0.3350  1.4710  1.0176
13707TIP3   OH262535   6.678   5.737   5.450 -0.5874  0.6512 -0.2138
13707TIP3    H162536   6.619   5.772   5.516 -2.0697  0.7294 -1.5107
13707TIP3    H262537   6.666   5.794   5.374  1.9861  1.3183 -0.2258
13708TIP3   OH262538   0.884   2.685   5.779  0.6119  0.4861 -0.1375
13708TIP3    H162539   0.943   2.609   5.779 -0.5924 -0.5260  1.5999
13708TIP3    H262540   0.905   2.731   5.860 -0.2965  0.6605  0.0106
13709TIP3   OH262541   2.286   3.474  13.682  0.2475 -0.0006  0.4617
13709TIP3    H162542   2.279   3.482  13.587  1.2672  0.3796  0.4165
13709TIP3    H262543   2.279   3.380  13.698  0.0844 -0.0680  0.0170
13710TIP3   OH262544   5.380   2.741   2.132  0.1996  0.1261 -0.4124
13710TIP3    H162545   5.426   2.770   2.053  2.8127 -0.1859  0.8819
13710TIP3    H262546   5.387   2.646   2.131  0.5515  0.1326  0.3320
13711TIP3   OH262547   4.721   6.517   0.839 -0.1722  0.4029  0.3693
13711TIP3    H162548   4.655   6.479   0.897  0.4562  0.1528  0.9277
13711TIP3    H262549   4.792   6.544   0.897  0.5739 -0.0809 -0.3018
13712TIP3   OH262550   2.728   2.988  15.247 -0.0782 -0.3526  0.4815
13712TIP3    H162551   2.697   2.990  15.337 -0.3037  1.0210  0.3998
13712TIP3    H262552   2.818   3.020  15.252  0.1984 -1.0908  0.3152
13713TIP3   OH262553   5.061   0.043   5.050  0.2907 -0.3049 -0.4709
13713TIP3    H162554   5.035  -0.002   4.970 -0.3648 -0.7077 -0.0307
13713TIP3    H262555   5.141  -0.001   5.078 -0.5017 -1.4200  0.1196
13714TIP3   OH262556   6.103   2.982  16.166  0.0137 -0.0114 -0.2540
13714TIP3    H162557   6.056   2.953  16.244  2.3419 -0.4945  1.0413
13714TIP3    H262558   6.065   3.067  16.145 -1.5461 -0.4586  0.5887
13715TIP3   OH262559   3.167   3.466  13.982  0.3405 -0.1614  0.0967
13715TIP3    H162560   3.253   3.426  13.997  0.7509  0.4537 -0.5734
13715TIP3    H262561   3.112   3.394  13.952  0.5538 -0.6071  0.7431
13716TIP3   OH262562   4.178   0.623  15.611 -0.1956  0.5109  0.2938
13716TIP3    H162563   4.125   0.558  15.565  0.6686  0.0195 -0.0380
13716TIP3    H262564   4.261   0.624  15.563  0.5486  0.3525  1.5363
13717TIP3   OH262565   0.264   1.710   3.997  0.6210 -0.1556  0.1591
13717TIP3    H162566   0.215   1.774   3.944  2.2447  0.7256 -0.3565
13717TIP3    H262567   0.344   1.756   4.021  0.1513 -0.6713  3.0853
13718TIP3   OH262568   2.495   4.907   2.571 -0.2615  0.0906  0.6758
13718TIP3    H162569   2.501   4.846   2.498 -0.7829  0.0653  0.6501
13718TIP3    H262570   2.439   4.978   2.538 -0.2978  0.1971  0.9647
13719TIP3   OH262571   0.488   6.034   0.367 -0.4606  0.0104 -0.3145
13719TIP3    H162572   0.490   6.091   0.445 -1.1091  0.6965 -0.7859
13719TIP3    H262573   0.419   6.071   0.313 -1.5089 -1.7492 -0.2491
13720TIP3   OH262574   3.222   5.878   2.913  0.6594 -0.3054 -0.2794
13720TIP3    H162575   3.231   5.971   2.892  0.5236 -0.4228 -0.8835
13720TIP3    H262576   3.128   5.862   2.914  0.6617 -0.2905  0.5072
13721TIP3   OH262577   3.122   5.135  14.498  0.3579 -0.3773 -0.6596
13721TIP3    H162578   3.050   5.198  14.493  0.5049 -0.2869 -2.2425
13721TIP3    H262579   3.092   5.071  14.563 -0.7581  0.1422 -0.6230
13722TIP3   OH262580   4.163   2.847  11.132  0.0242  0.5699  0.1081
13722TIP3    H162581   4.203   2.788  11.068  0.6548  0.7924  0.2934
13722TIP3    H262582   4.127   2.919  11.080  1.3105  1.1969  0.0660
13723TIP3   OH262583   3.776   4.849   4.718  0.3321 -0.1105  0.2717
13723TIP3    H162584   3.698   4.794   4.726  1.8350 -2.4462 -0.0627
13723TIP3    H262585   3.753   4.914   4.653 -1.8620  0.3094  1.3715
13724TIP3   OH262586   1.809   2.371  11.612  0.1585  0.2794 -0.1928
13724TIP3    H162587   1.789   2.445  11.556 -1.8479 -1.5770 -2.1189
13724TIP3    H262588   1.898   2.389  11.644  0.5211  2.5176 -2.1661
13725TIP3   OH262589   2.438   2.629   1.245 -0.3370 -0.1620 -0.3184
13725TIP3    H162590   2.527   2.601   1.224 -0.2068 -0.7221  0.9117
13725TIP3    H262591   2.400   2.555   1.292 -0.5006  1.0975  1.6548
13726TIP3   OH262592   2.378   3.126   2.608  0.1409 -0.3608  0.0130
13726TIP3    H162593   2.289   3.144   2.576  0.6828 -0.0118 -1.4023
13726TIP3    H262594   2.391   3.033   2.594  0.8912  0.0250 -2.3295
13727TIP3   OH262595   0.094   3.946   1.450 -0.0630 -0.1444 -0.3595
13727TIP3    H162596   0.040   3.917   1.523  0.4875  0.6553  0.4023
13727TIP3    H262597   0.068   4.038   1.436  1.0281  0.2329 -0.0162
13728TIP3   OH262598   0.658   1.249  15.055 -0.1064  0.3029 -0.0323
13728TIP3    H162599   0.691   1.339  15.064 -0.2980  0.5415 -1.3783
13728TIP3    H262600   0.563   1.259  15.056 -0.1433  0.2960 -1.4202
13729TIP3   OH262601   2.421   4.600  15.113  0.0626 -0.1795 -0.8516
13729TIP3    H162602   2.411   4.521  15.166  0.7530 -0.3328 -0.9465
13729TIP3    H262603   2.437   4.670  15.177 -3.1362  0.4124 -0.5257
13730TIP3   OH262604   1.402   1.863   4.112 -0.0952  0.1205  0.0459
13730TIP3    H162605   1.490   1.831   4.092  1.4303  2.8206  1.7697
13730TIP3    H262606   1.364   1.796   4.170  0.3986 -1.5163 -1.4488
13731TIP3   OH262607   1.915   4.783  12.022  0.1990  0.1394 -0.1920
13731TIP3    H162608   1.833   4.737  12.007  0.2776  0.2625 -1.0403
13731TIP3    H262609   1.903   4.868  11.979  0.0509  0.9298  1.3554
13732TIP3   OH262610   2.354   6.645   5.282 -0.6867 -0.0181  0.0169
13732TIP3    H162611   2.400   6.676   5.204  0.1542  0.0457  0.5212
13732TIP3    H262612   2.293   6.579   5.249 -0.2700 -0.0666 -0.6824
13733TIP3   OH262613   4.654   4.957   1.850  0.0597  0.7439 -0.5119
13733TIP3    H162614   4.722   4.925   1.910  1.0864  1.8498 -1.0577
13733TIP3    H262615   4.572   4.936   1.895  0.7775  0.8127  0.9144
13734TIP3   OH262616   5.067   1.177  16.346  0.0703  0.6318 -0.1325
13734TIP3    H162617   4.996   1.224  16.390 -0.0498 -0.1582  0.5305
13734TIP3    H262618   5.028   1.146  16.264 -0.8955 -1.2116  0.9439
13735TIP3   OH262619   6.542   2.225   0.310 -0.0428  0.6515 -0.2863
13735TIP3    H162620   6.501   2.303   0.274  1.1603  1.6004  0.3349
13735TIP3    H262621   6.591   2.256   0.386  0.5180 -0.6953 -0.0657
13736TIP3   OH262622   0.367   4.063  16.672  0.5825 -0.5336 -0.1370
13736TIP3    H162623   0.352   4.022  16.587  0.0999 -1.1744  0.2500
13736TIP3    H262624   0.385   3.990  16.731  0.0351 -0.1716  0.4922
13737TIP3   OH262625   5.738   0.713   2.043 -0.3856 -0.1306 -0.0028
13737TIP3    H162626   5.656   0.673   2.013 -0.0147 -0.0927 -1.0976
13737TIP3    H262627   5.787   0.730   1.963  0.9177 -0.6159  0.6699
13738TIP3   OH262628   4.664   4.958   1.200 -0.2088  0.5942  0.4391
13738TIP3    H162629   4.629   4.900   1.133  0.9374 -0.2057  0.5018
13738TIP3    H262630   4.615   5.039   1.190  0.1974  0.6390 -1.6407
13739TIP3   OH262631   3.577   1.736  12.065 -0.0377 -0.1967 -0.5162
13739TIP3    H162632   3.570   1.757  12.158  0.1871  1.5654 -0.8574
13739TIP3    H262633   3.671   1.734  12.047 -0.0738  1.2878 -1.0372
13740TIP3   OH262634   6.166   0.931   2.423  0.5615  0.4189 -0.9028
13740TIP3    H162635   6.140   0.842   2.445 -0.4360  0.9085  0.0195
13740TIP3    H262636   6.237   0.921   2.360 -1.3785 -1.0155 -3.0019
13741TIP3   OH262637   2.927   2.346   5.178  0.3172 -0.0484  0.1214
13741TIP3    H162638   2.909   2.275   5.117 -1.1492 -1.2546  1.8337
13741TIP3    H262639   2.987   2.306   5.242  1.5095  1.0650 -0.2587
13742TIP3   OH262640   6.317   1.091   5.787 -0.1381  0.2110  0.2085
13742TIP3    H162641   6.265   1.016   5.758  0.3234  0.7622 -2.2924
13742TIP3    H262642   6.254   1.147   5.832 -0.7115 -1.1338  1.1555
13743TIP3   OH262643   4.616   1.426   0.418 -0.0279  0.0291  0.0755
13743TIP3    H162644   4.610   1.512   0.376 -2.8500  0.5012  1.1754
13743TIP3    H262645   4.667   1.442   0.497 -3.2019  1.6413  2.0173
13744TIP3   OH262646   4.383   5.950  16.412 -0.1933  0.4214  0.3936
13744TIP3    H162647   4.294   5.963  16.379 -0.2993 -1.0413  0.0599
13744TIP3    H262648   4.411   5.868  16.373  0.4217 -0.3741  2.4097
13745TIP3   OH262649   2.073   6.267   0.903  1.0777  0.1823  0.5935
13745TIP3    H162650   2.145   6.250   0.842 -0.9436  0.4740 -2.0888
13745TIP3    H262651   2.028   6.342   0.865 -1.9918 -1.4125  0.8186
13746TIP3   OH262652   2.354   2.192  12.985  0.3498 -0.6593  0.1370
13746TIP3    H162653   2.271   2.223  13.021  0.4882 -1.2439  0.9822
13746TIP3    H262654   2.367   2.246  12.907 -1.4028 -1.3547 -0.7046
13747TIP3   OH262655   5.750   1.216  12.494 -0.0154  0.0185  0.2918
13747TIP3    H162656   5.795   1.142  12.535  0.9851 -0.2086 -1.1426
13747TIP3    H262657   5.804   1.237  12.417 -1.3958  0.9029 -0.4731
13748TIP3   OH262658   0.271   3.636  17.072 -0.5005 -0.3415  0.3919
13748TIP3    H162659   0.245   3.547  17.098 -0.5830 -0.3097  0.4155
13748TIP3    H262660   0.298   3.678  17.153  0.9396 -0.8154  0.1932
13749TIP3   OH262661   1.716   2.825  14.854 -0.4103  0.2879  0.2120
13749TIP3    H162662   1.676   2.744  14.825  1.5292 -1.7065  2.6349
13749TIP3    H262663   1.759   2.803  14.937  0.7068  3.6591  0.7217
13750TIP3   OH262664   0.767   3.825  13.911 -0.9786 -1.0296  0.1054
13750TIP3    H162665   0.760   3.917  13.887 -2.8899 -0.6129  1.9613
13750TIP3    H262666   0.691   3.784  13.869  0.3950 -2.0322 -1.5362
13751TIP3   OH262667   1.945   4.302   1.212  0.3184  0.0327  0.5118
13751TIP3    H162668   2.032   4.301   1.172 -0.1589 -0.1101 -0.5657
13751TIP3    H262669   1.914   4.391   1.200 -0.7227 -0.5441 -1.5105
13752TIP3   OH262670   2.783   4.622  12.210 -0.0389 -0.3358 -0.5284
13752TIP3    H162671   2.736   4.539  12.194 -1.4174  0.7048 -2.2481
13752TIP3    H262672   2.861   4.615  12.156 -0.0029 -0.6377 -0.4422
13753TIP3   OH262673   5.537   3.312  16.305  0.1417  0.0282 -0.1536
13753TIP3    H162674   5.472   3.242  16.316  2.0981 -1.6687  1.4469
13753TIP3    H262675   5.593   3.282  16.234 -0.9262  1.6756 -1.8061
13754TIP3   OH262676   6.775   3.176   2.402 -0.5103  0.4138 -0.1935
13754TIP3    H162677   6.742   3.261   2.430  0.4864  0.6244  0.3954
13754TIP3    H262678   6.725   3.113   2.454  0.2892  0.7461  1.0200
13755TIP3   OH262679   2.095   4.261   5.925  0.4826 -0.2423  0.0228
13755TIP3    H162680   2.069   4.249   6.016 -0.1649  2.2009  0.2368
13755TIP3    H262681   2.191   4.253   5.926  0.3643 -2.3460  0.4696
13756TIP3   OH262682   0.657   5.279   0.593  0.5296 -0.1820  0.0765
13756TIP3    H162683   0.628   5.188   0.600  1.0679 -0.3537  0.2002
13756TIP3    H262684   0.732   5.275   0.532  1.6743 -0.1034  1.4199
13757TIP3   OH262685   4.075   4.208   2.956  0.0574 -0.1774 -0.1867
13757TIP3    H162686   4.053   4.128   2.908 -1.6176 -1.8610  3.0854
13757TIP3    H262687   4.130   4.178   3.029 -1.8066  1.3519  1.9728
13758TIP3   OH262688   0.090   2.193  11.085  0.5386 -0.5782 -0.5316
13758TIP3    H162689   0.132   2.266  11.130 -0.2004 -0.2807 -0.3001
13758TIP3    H262690   0.154   2.164  11.020  2.5933 -2.5051  2.1380
13759TIP3   OH262691   1.196   4.424  15.381 -0.3345 -0.0587  0.3349
13759TIP3    H162692   1.165   4.406  15.469 -0.9543  1.1531  0.3830
13759TIP3    H262693   1.149   4.503  15.354 -0.0879 -0.3425 -1.0428
13760TIP3   OH262694   2.567   4.852  12.229  0.3602 -0.2162 -0.0915
13760TIP3    H162695   2.509   4.779  12.251  1.1467 -1.1575 -1.0474
13760TIP3    H262696   2.655   4.820  12.249  0.6155  1.0405  0.9280
13761TIP3   OH262697   0.577   3.840   4.704  0.3012 -0.3833 -0.6996
13761TIP3    H162698   0.588   3.791   4.785 -2.5761  0.8452  0.5568
13761TIP3    H262699   0.592   3.932   4.729 -0.0475 -0.0413 -1.6886
13762TIP3   OH262700   6.562   2.781  11.416  0.1803 -0.1486 -0.5590
13762TIP3    H162701   6.648   2.821  11.406 -0.6103  2.1750  1.0210
13762TIP3    H262702   6.509   2.820  11.346 -0.1803  0.3611 -0.0155
13763TIP3   OH262703   5.241   5.839   1.313  0.1792 -0.0878  0.0684
13763TIP3    H162704   5.236   5.745   1.298 -0.5829  0.0477 -0.6465
13763TIP3    H262705   5.186   5.877   1.244  1.7891  0.9781 -0.6923
13764TIP3   OH262706   6.208   0.251   3.066  0.1133  0.3745 -0.3560
13764TIP3    H162707   6.269   0.178   3.056  1.5009  1.1716  1.6394
13764TIP3    H262708   6.263   0.329   3.059 -0.9195  1.1629  0.0271
13765TIP3   OH262709   2.766   1.834   1.559  0.2141 -0.3911  0.1593
13765TIP3    H162710   2.853   1.855   1.593  0.0794  0.1771  0.1759
13765TIP3    H262711   2.779   1.755   1.507  0.8483 -0.0202 -0.2736
13766TIP3   OH262712   1.786   3.920   2.855  0.3146  0.0073 -0.3244
13766TIP3    H162713   1.739   3.956   2.930 -0.2278 -2.8189  0.8359
13766TIP3    H262714   1.752   3.830   2.846  2.4732 -0.7343 -2.1133
13767TIP3   OH262715   3.500   6.229  12.157 -0.2602  0.1842 -0.1924
13767TIP3    H162716   3.428   6.291  12.148 -0.6084  0.5886  3.5378
13767TIP3    H262717   3.573   6.282  12.188 -0.0382 -0.9658  1.3670
13768TIP3   OH262718   2.058   1.006   5.244  0.1390  0.2549 -0.0614
13768TIP3    H162719   2.072   0.998   5.150  0.0477 -3.0016  0.0974
13768TIP3    H262720   2.003   1.084   5.253  0.0304  0.5892 -2.7027
13769TIP3   OH262721   3.769   1.476   0.656 -0.7315 -0.2689 -0.5700
13769TIP3    H162722   3.741   1.560   0.622 -0.0239  0.4459  0.5258
13769TIP3    H262723   3.768   1.487   0.751 -2.2904 -2.0558 -0.3303
13770TIP3   OH262724   6.113   5.948   1.280  0.2503 -0.0814 -0.5131
13770TIP3    H162725   6.204   5.971   1.296  0.3992 -1.7829  1.4739
13770TIP3    H262726   6.096   5.979   1.191  1.6373  3.5169  0.3257
13771TIP3   OH262727   5.543   6.040   2.301 -0.5254 -0.0897 -0.0413
13771TIP3    H162728   5.612   6.013   2.362 -1.7150 -2.7321  0.3216
13771TIP3    H262729   5.562   5.991   2.221 -1.9366 -0.9138  0.0912
13772TIP3   OH262730   2.063   0.839  13.550 -0.3716  0.3554 -0.0289
13772TIP3    H162731   2.102   0.769  13.496 -0.4351  1.6991 -1.8953
13772TIP3    H262732   2.127   0.854  13.620  0.6901 -0.0398 -0.8989
13773TIP3   OH262733   2.595   6.471   0.314 -0.2752 -1.1927  0.3174
13773TIP3    H162734   2.632   6.430   0.393 -0.0416  0.7349  1.2666
13773TIP3    H262735   2.557   6.553   0.346 -0.2249 -0.3893 -1.5769
13774TIP3   OH262736   0.665   4.726  15.545 -0.3652 -0.2171 -0.4854
13774TIP3    H162737   0.607   4.760  15.614  0.3541 -0.3221  0.1929
13774TIP3    H262738   0.685   4.636  15.574 -0.9586 -0.6684 -1.4259
13775TIP3   OH262739   6.394   0.200   1.189  0.1759 -1.1213 -0.2877
13775TIP3    H162740   6.361   0.204   1.278 -1.8722  0.5959 -1.0151
13775TIP3    H262741   6.405   0.292   1.163  1.0120 -1.5778 -1.7102
13776TIP3   OH262742   0.410   0.012   3.984  0.1703  0.0877  0.0390
13776TIP3    H162743   0.399   0.064   3.905  2.3348 -1.3442 -1.3190
13776TIP3    H262744   0.487   0.050   4.027  0.1844 -0.3498  0.4076
13777TIP3   OH262745   1.278   0.210  11.185 -0.2832 -0.3458  0.0739
13777TIP3    H162746   1.220   0.284  11.203 -0.9280 -1.2072  1.7239
13777TIP3    H262747   1.220   0.142  11.150  0.2668 -0.1925 -1.1985
13778TIP3   OH262748   3.606   5.830  14.572 -0.7684 -0.0445 -0.2928
13778TIP3    H162749   3.603   5.810  14.666 -2.2307  0.3934 -0.2232
13778TIP3    H262750   3.695   5.863  14.558 -0.4812 -0.2497  0.9086
13779TIP3   OH262751   0.642   4.459   1.589  0.3446 -0.3638  0.4623
13779TIP3    H162752   0.605   4.428   1.507 -1.6301  0.1802  1.0900
13779TIP3    H262753   0.609   4.548   1.598  0.8543 -0.2735  1.6647
13780TIP3   OH262754   2.864   1.522   2.396  0.3602 -0.2044  0.4767
13780TIP3    H162755   2.774   1.535   2.427 -0.4825  0.1020 -1.9078
13780TIP3    H262756   2.904   1.608   2.401 -0.1714  0.1100 -0.3738
13781TIP3   OH262757   5.874   2.013  14.839 -0.0448  0.1752 -0.6334
13781TIP3    H162758   5.878   2.098  14.796  2.8091 -0.0380 -0.9608
13781TIP3    H262759   5.851   2.033  14.930 -1.7026  1.0401 -1.2174
13782TIP3   OH262760   6.000   1.356   5.047  0.0933  0.9064  0.1373
13782TIP3    H162761   5.954   1.349   5.131  0.1430  1.4510  0.2127
13782TIP3    H262762   5.966   1.283   4.995  0.8270 -0.0785  0.9930
13783TIP3   OH262763   3.690   1.133   3.935 -0.7191  0.1449  0.1785
13783TIP3    H162764   3.677   1.181   3.854 -1.6177  1.4994  1.0929
13783TIP3    H262765   3.766   1.077   3.917 -1.5263 -0.3746 -1.9184
13784TIP3   OH262766   6.010   4.377  15.170  0.6114  0.6970 -0.2982
13784TIP3    H162767   5.935   4.342  15.219  1.5904  0.2745  0.9259
13784TIP3    H262768   6.084   4.369  15.229  1.8073  0.3720 -1.7790
13785TIP3   OH262769   3.839   0.967  16.798  0.6851  0.6103  0.1797
13785TIP3    H162770   3.906   1.030  16.772 -1.0335  2.5090  0.0652
13785TIP3    H262771   3.758   1.002  16.759 -0.3781 -1.6064  0.2643
13786TIP3   OH262772   5.880   3.874   1.314 -0.3716 -0.3885  0.3875
13786TIP3    H162773   5.864   3.784   1.285  0.3281  0.1468 -1.8531
13786TIP3    H262774   5.798   3.900   1.356 -0.5880 -2.0434  1.0704
13787TIP3   OH262775   6.249   1.334   0.715 -0.5011 -0.6068 -0.0306
13787TIP3    H162776   6.289   1.407   0.668 -0.3851  2.7158  4.4820
13787TIP3    H262777   6.313   1.264   0.710  1.2224  0.9705 -1.4146
13788TIP3   OH262778   3.371   3.117  11.618 -0.1935  0.4225  0.6062
13788TIP3    H162779   3.388   3.186  11.555  0.0300 -0.2633 -0.0934
13788TIP3    H262780   3.296   3.149  11.669 -0.1153  1.1558  0.2674
13789TIP3   OH262781   1.341   2.979  14.195 -0.4510  0.0170 -0.4477
13789TIP3    H162782   1.332   3.013  14.284  1.4846  0.3321 -0.3181
13789TIP3    H262783   1.372   3.053  14.143  1.7667 -0.9074 -0.6013
13790TIP3   OH262784   4.325   5.037   2.267  0.3911  0.2668  0.0085
13790TIP3    H162785   4.418   5.044   2.285  0.2353  2.0395  0.2731
13790TIP3    H262786   4.286   5.115   2.306 -1.4434 -1.1841  1.3087
13791TIP3   OH262787   4.349   2.444   1.606  0.0491  0.2685  0.2513
13791TIP3    H162788   4.298   2.505   1.659 -0.1291 -0.1386  0.5648
13791TIP3    H262789   4.285   2.406   1.546 -0.2826 -1.0468  1.3712
13792TIP3   OH262790   2.414   2.495  12.872 -0.0045 -0.0814  0.4021
13792TIP3    H162791   2.352   2.567  12.865  0.9490  0.7773  0.6179
13792TIP3    H262792   2.477   2.523  12.938  1.5553 -0.2198 -0.9684
13793TIP3   OH262793   2.655   0.757   4.254 -0.0578  0.2970  0.5009
13793TIP3    H162794   2.624   0.817   4.186 -1.7962 -0.7606  0.3065
13793TIP3    H262795   2.612   0.787   4.334  0.3894  0.3052  0.7439
13794TIP3   OH262796   5.938   6.017   6.419  0.3743 -0.4444 -0.0687
13794TIP3    H162797   5.988   6.077   6.475  0.5000 -1.3819  0.8499
13794TIP3    H262798   5.964   5.930   6.448 -1.7655 -0.9672  0.4107
13795TIP3   OH262799   6.768   1.936  13.365 -0.3996 -0.7010 -0.6101
13795TIP3    H162800   6.799   2.026  13.348  0.0693 -0.9571 -1.1472
13795TIP3    H262801   6.845   1.891  13.399 -1.4460 -0.0205  3.1590
13796TIP3   OH262802   6.272   4.469   0.998 -0.5333  0.7439 -0.3459
13796TIP3    H162803   6.223   4.549   1.015 -1.2276  0.1149  0.7075
13796TIP3    H262804   6.244   4.409   1.066 -0.0293 -0.4083 -1.1277
13797TIP3   OH262805   6.522   0.515  14.019  0.4133 -0.2850 -0.5450
13797TIP3    H162806   6.533   0.609  14.031  0.7649 -0.2272 -1.2874
13797TIP3    H262807   6.434   0.497  14.052  1.1129 -0.0639  1.6220
13798TIP3   OH262808   4.111   4.944  15.386  0.2709 -0.1341  0.5291
13798TIP3    H162809   4.084   4.870  15.332  0.2227  0.2287  0.0451
13798TIP3    H262810   4.130   5.014  15.323 -1.9620  1.0476  1.0471
13799TIP3   OH262811   5.810   2.371  15.190  0.5735  0.5320  0.0050
13799TIP3    H162812   5.869   2.433  15.234 -0.2652  0.3841  1.4100
13799TIP3    H262813   5.752   2.340  15.260  1.0478 -1.9671 -0.6104
13800TIP3   OH262814   1.147   0.703  13.728  0.1137  0.3431 -0.5507
13800TIP3    H162815   1.196   0.785  13.728  0.4653  0.1678 -1.9866
13800TIP3    H262816   1.163   0.665  13.814  0.4457  1.4792 -0.0883
13801TIP3   OH262817   1.247   4.032   4.205  0.0651  0.3413  0.5915
13801TIP3    H162818   1.246   4.119   4.244  0.3180  0.4868  0.2728
13801TIP3    H262819   1.184   4.037   4.133  1.4961  0.8397 -0.6682
13802TIP3   OH262820   2.627   1.473  12.038  0.7794  0.2657  0.3716
13802TIP3    H162821   2.569   1.399  12.024  1.8265 -0.5524  0.2116
13802TIP3    H262822   2.617   1.494  12.131  1.9307 -1.4006  0.9240
13803TIP3   OH262823   2.398   2.940  13.423 -0.0113 -0.8491 -0.0608
13803TIP3    H162824   2.344   3.004  13.378  1.5818 -1.5119 -3.2177
13803TIP3    H262825   2.379   2.857  13.380  1.1498 -1.6793  0.9382
13804TIP3   OH262826   0.993   5.091  11.403 -0.3590 -0.1149  0.7577
13804TIP3    H162827   0.998   5.185  11.419  2.0097  0.4515 -2.3846
13804TIP3    H262828   0.928   5.082  11.333  1.4019 -0.3837 -0.9308
13805TIP3   OH262829   4.782   5.330   2.005 -0.4129  0.6762  0.0696
13805TIP3    H162830   4.843   5.279   2.058 -0.1344 -0.6554 -1.4783
13805TIP3    H262831   4.698   5.322   2.051 -0.4485 -1.4743 -0.2723
13806TIP3   OH262832   6.555   1.856  16.094  0.0776  0.0863  0.2145
13806TIP3    H162833   6.587   1.789  16.153 -0.0656  0.0480  0.2495
13806TIP3    H262834   6.599   1.839  16.011  0.2552  0.1210  0.3020
13807TIP3   OH262835   3.447   1.078  13.469  0.6158 -0.1417  0.1533
13807TIP3    H162836   3.446   1.153  13.528  1.8393 -0.2293  0.3221
13807TIP3    H262837   3.536   1.077  13.433  1.1502 -2.3643  1.3437
13808TIP3   OH262838   0.475   1.997  12.734 -0.5123  0.7537  0.9850
13808TIP3    H162839   0.414   1.930  12.702  1.0071 -0.7048  1.0062
13808TIP3    H262840   0.475   1.985  12.829  0.7146 -0.1301  0.9004
13809TIP3   OH262841   1.140   3.775  16.404  0.3123 -0.3769 -0.6594
13809TIP3    H162842   1.062   3.738  16.364  0.1478  0.6863 -1.3604
13809TIP3    H262843   1.211   3.754  16.344  0.6780 -1.7724  0.2201
13810TIP3   OH262844   2.673   5.966   2.987  0.3566 -0.8212 -0.1519
13810TIP3    H162845   2.613   5.944   3.058 -0.3333 -0.3923 -0.5998
13810TIP3    H262846   2.713   6.049   3.015  0.5180 -0.9497  0.0019
13811TIP3   OH262847   2.576   3.866   1.452  0.3580  0.1855  0.5571
13811TIP3    H162848   2.568   3.887   1.545  0.2696 -1.2733  0.9098
13811TIP3    H262849   2.510   3.798   1.438  1.4215 -0.7202 -0.2085
13812TIP3   OH262850   0.167   0.308   3.485 -0.0058  0.8779 -0.0596
13812TIP3    H162851   0.185   0.346   3.571  0.5404 -3.1088  1.8203
13812TIP3    H262852   0.074   0.283   3.489  0.2219 -0.0566 -0.2530
13813TIP3   OH262853   3.426   4.350  16.265  0.2456 -0.3933  0.7990
13813TIP3    H162854   3.425   4.258  16.240 -2.2135 -0.5261  1.1719
13813TIP3    H262855   3.410   4.350  16.359  0.4019  0.4114  0.8366
13814TIP3   OH262856   1.424   1.313  11.466  0.9930  0.4448 -1.2007
13814TIP3    H162857   1.373   1.340  11.391  1.3303 -0.7093 -1.8663
13814TIP3    H262858   1.498   1.374  11.468  0.1958  1.4226 -0.8857
13815TIP3   OH262859   2.238   2.185   5.298 -0.3571 -0.5180 -0.0411
13815TIP3    H162860   2.222   2.124   5.370  0.9780 -1.9383 -0.8937
13815TIP3    H262861   2.287   2.134   5.234 -1.5852  0.6747 -2.0225
13816TIP3   OH262862   2.127   2.481  14.552 -0.2036  0.7132  0.0542
13816TIP3    H162863   2.080   2.527  14.622  0.7103  1.0377  0.4604
13816TIP3    H262864   2.093   2.392  14.557 -3.2554  1.6124 -1.8276
13817TIP3   OH262865   3.312   3.137  15.537  0.6733  0.0996 -0.3548
13817TIP3    H162866   3.341   3.058  15.581  0.1825 -0.2896 -0.7173
13817TIP3    H262867   3.303   3.202  15.606 -1.2440 -0.8220  0.3349
13818TIP3   OH262868   2.031   1.224  15.466  0.0581  0.0449  0.1091
13818TIP3    H162869   2.030   1.285  15.392  1.4014 -0.4995 -0.3813
13818TIP3    H262870   1.943   1.231  15.503 -0.6548  0.3643 -1.5119
13819TIP3   OH262871   4.133   2.277   0.289  0.7293 -0.6935 -0.6009
13819TIP3    H162872   4.171   2.364   0.302 -0.5955 -0.0282 -0.9993
13819TIP3    H262873   4.130   2.266   0.194  0.3862 -0.9380 -0.5643
13820TIP3   OH262874   0.446   2.862  16.701  0.2200  0.4470 -0.6321
13820TIP3    H162875   0.437   2.954  16.725  0.8066  0.4733 -0.4929
13820TIP3    H262876   0.494   2.823  16.775  0.9299  0.2602 -1.1761
13821TIP3   OH262877   2.564   2.953   3.575 -0.0386  0.5064 -0.0046
13821TIP3    H162878   2.595   2.899   3.647 -0.3928 -1.4173 -1.2312
13821TIP3    H262879   2.639   3.007   3.550  0.3407  0.5575  1.2223
13822TIP3   OH262880   4.119   1.049  11.273  0.1400 -0.0824  0.7208
13822TIP3    H162881   4.198   0.999  11.289 -0.9179 -1.8082  0.8401
13822TIP3    H262882   4.121   1.070  11.180  0.7629 -0.0458  0.7401
13823TIP3   OH262883   3.283   2.402  13.320 -0.2020 -0.8989 -0.0225
13823TIP3    H162884   3.235   2.447  13.389  1.6908  0.9866  0.1638
13823TIP3    H262885   3.215   2.370  13.260 -1.7277  1.2024  0.4661
13824TIP3   OH262886   6.427   4.202  14.169 -0.2102  0.1706 -0.2009
13824TIP3    H162887   6.372   4.261  14.117  0.2383  0.2358 -0.6095
13824TIP3    H262888   6.484   4.261  14.219 -0.5586  0.1052  0.2891
13825TIP3   OH262889   4.533   3.569   2.202  0.2473  0.1818  0.0447
13825TIP3    H162890   4.490   3.618   2.131 -0.1450 -0.3292 -0.0763
13825TIP3    H262891   4.577   3.497   2.157 -0.7130 -0.6410  0.3937
13826TIP3   OH262892   1.447   4.896   0.145  0.0695  0.0905 -0.2501
13826TIP3    H162893   1.528   4.939   0.121  0.8536 -1.6121 -0.8068
13826TIP3    H262894   1.429   4.835   0.073 -0.4606 -1.1860  0.8975
13827TIP3   OH262895   1.202   5.930   3.141 -0.6330  0.5569 -0.1593
13827TIP3    H162896   1.267   5.969   3.082 -1.0896 -0.0741 -1.0989
13827TIP3    H262897   1.166   6.005   3.189 -0.1062  1.0572 -0.5282
13828TIP3   OH262898   3.167   5.723   4.102  0.2466 -0.3733  0.9430
13828TIP3    H162899   3.156   5.664   4.176  1.9109 -0.4630  1.1562
13828TIP3    H262900   3.229   5.790   4.133 -0.7599  0.8857  0.3539
13829TIP3   OH262901   4.497   2.154   0.653  0.3367  0.4890  0.1322
13829TIP3    H162902   4.441   2.153   0.576 -0.0599 -3.1691  0.2721
13829TIP3    H262903   4.441   2.187   0.723 -0.6942 -0.1200 -0.3725
13830TIP3   OH262904   2.214   4.762  15.004 -0.5664 -0.0090  0.1655
13830TIP3    H162905   2.300   4.723  15.021  0.0123 -0.1574 -2.5921
13830TIP3    H262906   2.210   4.836  15.064  1.5024  0.0032  0.3826
13831TIP3   OH262907   3.706   3.551   5.975  0.2877 -0.3706  0.3487
13831TIP3    H162908   3.759   3.624   5.944  1.8362 -1.4270  0.3879
13831TIP3    H262909   3.643   3.591   6.036  1.4323  0.8546  0.7708
13832TIP3   OH262910   3.920   5.903  16.042  0.6292  0.0354  0.2993
13832TIP3    H162911   3.866   5.941  16.111  0.2401 -0.6702  0.3938
13832TIP3    H262912   3.928   5.810  16.066  0.5637 -0.2027 -0.5574
13833TIP3   OH262913   0.389   3.433   1.194 -0.0488 -0.3885  0.4236
13833TIP3    H162914   0.347   3.416   1.110 -0.6629  0.0745  0.6317
13833TIP3    H262915   0.475   3.469   1.171 -0.4314  0.2614 -0.0067
13834TIP3   OH262916   2.180   1.611   6.602  0.4050 -0.4845  0.3142
13834TIP3    H162917   2.180   1.518   6.627  0.8156 -0.1095  1.7754
13834TIP3    H262918   2.265   1.623   6.559 -0.0829 -1.0027 -0.8663
13835TIP3   OH262919   1.539   0.802   1.575  0.4506  0.4570  0.1347
13835TIP3    H162920   1.515   0.892   1.551 -0.0387  0.6114  1.1391
13835TIP3    H262921   1.500   0.748   1.506  0.6434  1.0041 -0.4146
13836TIP3   OH262922   1.817   1.996   3.927  0.0062  0.1251  0.1298
13836TIP3    H162923   1.782   2.037   3.848 -0.4588  1.7915  1.1533
13836TIP3    H262924   1.821   2.067   3.992  1.5350 -0.9088  1.2519
13837TIP3   OH262925   5.491   5.846  15.346 -0.5829 -0.3243  0.1577
13837TIP3    H162926   5.555   5.804  15.288  0.6576  0.8463  0.6431
13837TIP3    H262927   5.406   5.821  15.309  0.1387 -1.6301 -0.7037
13838TIP3   OH262928   1.706   2.107  11.535  0.7212 -0.4347 -1.0036
13838TIP3    H162929   1.782   2.078  11.486  1.1649  0.3250 -0.7780
13838TIP3    H262930   1.728   2.196  11.564  0.4400 -0.8121  0.4783
13839TIP3   OH262931   0.732   1.937  15.253 -0.5132 -0.0623  0.0308
13839TIP3    H162932   0.668   2.006  15.235 -2.3822 -1.6219  0.2709
13839TIP3    H262933   0.732   1.882  15.175  0.4021 -0.1962  0.1124
13840TIP3   OH262934   4.056   5.501   2.844  0.0540  0.2430 -0.6928
13840TIP3    H162935   4.142   5.530   2.875 -0.0754  1.1758 -1.1692
13840TIP3    H262936   4.070   5.476   2.753 -0.1175  0.1415 -0.6917
13841TIP3   OH262937   4.296   0.134   2.326  0.7752 -0.5517 -0.4990
13841TIP3    H162938   4.208   0.166   2.307  0.9810  1.0832  1.0719
13841TIP3    H262939   4.354   0.199   2.288  1.2763 -0.7700 -0.1170
13842TIP3   OH262940   0.651   0.271  11.052 -0.4900  0.4460  0.7040
13842TIP3    H162941   0.676   0.180  11.065 -5.2142 -1.0637  1.3026
13842TIP3    H262942   0.635   0.278  10.958 -2.1956 -0.0939  0.9220
13843TIP3   OH262943   6.654   0.405  13.426  0.0564  0.3522 -0.0385
13843TIP3    H162944   6.617   0.325  13.464  0.9522  0.2797  0.7164
13843TIP3    H262945   6.667   0.384  13.334 -1.1663  0.1647 -0.1909
13844TIP3   OH262946   1.109   0.278  16.320 -0.0161  0.0948  0.9793
13844TIP3    H162947   1.085   0.283  16.412  1.2256 -0.5332  1.3520
13844TIP3    H262948   1.050   0.212  16.283  0.2745 -0.5290  1.6051
13845TIP3   OH262949   2.126   0.144  13.360  0.6679 -0.0117  0.1288
13845TIP3    H162950   2.031   0.144  13.348  0.6907 -0.4409 -0.0762
13845TIP3    H262951   2.159   0.204  13.294  0.5120  0.4308  0.4489
13846TIP3   OH262952   1.145   5.227   3.014 -0.8246 -0.2553 -0.9112
13846TIP3    H162953   1.111   5.205   2.928  1.3280 -2.3975 -1.3145
13846TIP3    H262954   1.138   5.145   3.064 -3.0985  1.2073  1.4031
13847TIP3   OH262955   1.547   6.198  16.683 -0.4438 -0.3669  0.2139
13847TIP3    H162956   1.625   6.146  16.661 -0.1713  0.5225 -1.0210
13847TIP3    H262957   1.482   6.171  16.618 -1.4717 -1.7252  1.7594
13848TIP3   OH262958   2.633   5.307  11.472 -0.0953 -0.1254 -0.1043
13848TIP3    H162959   2.573   5.243  11.510 -0.3314  0.6247  0.8187
13848TIP3    H262960   2.643   5.280  11.381 -1.4162 -0.5645 -0.1354
13849TIP3   OH262961   5.591   1.978   5.933 -0.8295 -0.0566 -0.4775
13849TIP3    H162962   5.660   2.039   5.958 -1.6837  0.7523 -0.0365
13849TIP3    H262963   5.513   2.010   5.978 -1.4660 -1.0432 -0.8375
13850TIP3   OH262964   0.517   0.301  15.016 -0.3838  0.2948 -0.0451
13850TIP3    H162965   0.500   0.302  14.922 -1.3300 -1.5530  0.0471
13850TIP3    H262966   0.604   0.262  15.025 -0.3735  0.2927 -0.1573
13851TIP3   OH262967   4.331   4.989  13.111  0.1662  0.2871 -0.1178
13851TIP3    H162968   4.426   4.994  13.127  0.0976  0.3097  0.3056
13851TIP3    H262969   4.296   4.952  13.192  0.1600 -2.9121 -1.4315
13852TIP3   OH262970   1.374   0.154   2.010  0.4140  0.4198  0.2593
13852TIP3    H162971   1.407   0.081   2.061  0.0913  0.1089  0.0323
13852TIP3    H262972   1.445   0.176   1.950  0.3136 -0.0708 -0.0459
13853TIP3   OH262973   2.944   1.870  15.782  0.5099  0.0284  0.7431
13853TIP3    H162974   3.013   1.889  15.719  0.1307  0.7714  0.5420
13853TIP3    H262975   2.911   1.956  15.808 -1.8484 -0.3311 -0.8347
13854TIP3   OH262976   3.310   3.258   5.084  0.2982  0.6916 -0.0402
13854TIP3    H162977   3.389   3.209   5.062  0.4700  1.6090 -1.6575
13854TIP3    H262978   3.244   3.192   5.102  0.6506 -0.1451 -1.6881
13855TIP3   OH262979   0.983   4.044  11.432  0.4588 -0.3053  0.1298
13855TIP3    H162980   1.059   4.103  11.427  0.4724 -0.1322  1.9491
13855TIP3    H262981   0.910   4.102  11.453 -0.2553 -0.4508 -1.7487
13856TIP3   OH262982   3.513   2.158  13.914 -0.1067  0.0515 -0.7831
13856TIP3    H162983   3.432   2.205  13.932  0.5345  1.5519 -1.6409
13856TIP3    H262984   3.530   2.107  13.993 -0.4289  1.8631  0.5121
13857TIP3   OH262985   5.299   0.067  16.659  0.3978 -0.2739  0.7428
13857TIP3    H162986   5.326   0.110  16.741  0.7041  0.6655  0.1630
13857TIP3    H262987   5.213   0.031  16.679 -0.2476  1.3140  1.0365
13858TIP3   OH262988   1.148   0.884   3.912  0.5381 -0.0858 -0.3098
13858TIP3    H162989   1.230   0.842   3.888  1.0920  0.9879 -0.3507
13858TIP3    H262990   1.091   0.873   3.836  0.7158 -0.6424 -0.3617
13859TIP3   OH262991   6.054   0.441   2.346 -0.3201 -0.0155 -0.1592
13859TIP3    H162992   5.961   0.461   2.339 -1.0741 -3.1922 -0.8081
13859TIP3    H262993   6.094   0.481   2.269 -0.4846  3.7923  1.4913
13860TIP3   OH262994   4.913   1.262  11.361  0.1838 -0.3876 -0.1506
13860TIP3    H162995   4.977   1.284  11.428 -0.5511  2.0189 -0.1707
13860TIP3    H262996   4.963   1.253  11.280  1.0571 -3.1714  0.5784
13861TIP3   OH262997   0.578   5.040   6.262 -0.1559 -0.6464 -0.3246
13861TIP3    H162998   0.592   4.979   6.335  0.2082  0.3821  0.4938
13861TIP3    H262999   0.492   5.018   6.228 -1.5689  0.5867  2.1793
13862TIP3   OH263000   3.773   5.274   5.047 -0.4931  0.1355  0.2448
13862TIP3    H163001   3.786   5.201   4.987  1.6482 -0.6811  1.5985
13862TIP3    H263002   3.701   5.324   5.008  0.6533 -0.4055 -2.9148
13863TIP3   OH263003   0.923   5.440   1.769  0.0805 -0.2220  0.3201
13863TIP3    H163004   0.954   5.512   1.715  0.1501  0.1636  0.8654
13863TIP3    H263005   0.971   5.363   1.736 -0.3902 -0.1279 -0.6133
13864TIP3   OH263006   3.403   5.419  13.861 -0.3994  0.1816  0.5674
13864TIP3    H163007   3.424   5.507  13.895  1.1386  0.7214 -1.5756
13864TIP3    H263008   3.469   5.362  13.901 -0.7233  0.1855  1.1169
13865TIP3   OH263009   3.917   4.146  16.174  0.7823 -0.0933  0.5359
13865TIP3    H163010   3.914   4.124  16.081 -1.0691  1.7972  0.0802
13865TIP3    H263011   3.829   4.127  16.206  1.3535 -0.5554  1.8791
13866TIP3   OH263012   5.293   5.640   4.901 -0.4747 -0.3762 -0.7277
13866TIP3    H163013   5.250   5.582   4.963 -1.0210  1.6944  0.9690
13866TIP3    H263014   5.230   5.650   4.829 -0.0675 -2.3552 -1.4169
13867TIP3   OH263015   5.678   1.527  14.966 -0.6471  0.6398 -0.2809
13867TIP3    H163016   5.610   1.513  15.032 -0.7444  0.8945 -0.3242
13867TIP3    H263017   5.672   1.621  14.945 -0.1981  0.6864 -0.1956
13868TIP3   OH263018   6.799   2.708   0.495 -0.7912 -0.3534  0.1220
13868TIP3    H163019   6.797   2.694   0.590 -0.3161 -0.0112  0.1839
13868TIP3    H263020   6.721   2.662   0.463 -1.9782  1.0130  0.8931
13869TIP3   OH263021   5.658   2.152  14.184 -0.6524  0.3307  0.2304
13869TIP3    H163022   5.746   2.120  14.204 -0.9040 -0.1772  0.5324
13869TIP3    H263023   5.665   2.189  14.096  0.0457  0.9788  0.5478
13870TIP3   OH263024   0.419   2.977  14.400 -0.0794  0.0320  0.2417
13870TIP3    H163025   0.460   2.949  14.319  0.1503  0.2040  0.3004
13870TIP3    H263026   0.442   2.909  14.464 -0.0437  0.0315  0.2278
13871TIP3   OH263027   5.630   3.190   1.022 -0.0371  0.1362 -0.0768
13871TIP3    H163028   5.628   3.112   0.966 -1.5481  0.2177 -0.1985
13871TIP3    H263029   5.566   3.171   1.091 -0.2578  1.1629  0.0163
13872TIP3   OH263030   0.976   3.986  13.714  0.2539  0.3237 -0.6993
13872TIP3    H163031   1.002   3.922  13.648  1.0976 -0.6272  0.5218
13872TIP3    H263032   0.888   4.013  13.688 -0.7682 -2.4627 -0.4526
13873TIP3   OH263033   4.827   5.625  10.556  0.2469 -0.1367  0.4498
13873TIP3    H163034   4.905   5.665  10.518 -0.1054 -0.5739 -0.7544
13873TIP3    H263035   4.755   5.683  10.531  0.1642  0.2539  1.5361
13874TIP3   OH263036   2.921   2.646   4.619 -0.2067  0.0268 -0.3056
13874TIP3    H163037   2.968   2.592   4.682  0.0084 -0.2953 -0.7347
13874TIP3    H263038   2.830   2.615   4.623 -0.4863  0.9399  0.8336
13875TIP3   OH263039   3.799   2.798   6.108 -0.6355  0.3796  0.0791
13875TIP3    H163040   3.792   2.826   6.017 -0.2479  1.1201  0.2671
13875TIP3    H263041   3.722   2.742   6.122 -0.4394 -0.1403 -0.8296
13876TIP3   OH263042   1.183   6.497   4.211  0.6802  0.5244 -0.2548
13876TIP3    H163043   1.151   6.530   4.295 -0.4969  0.2361 -0.5682
13876TIP3    H263044   1.264   6.546   4.194  1.4113 -0.0309  1.4502
13877TIP3   OH263045   5.922   2.708  12.088  0.2662  0.1743 -0.5142
13877TIP3    H163046   5.883   2.766  12.154 -0.4676 -1.4160  0.5239
13877TIP3    H263047   6.016   2.716  12.100  0.1552 -1.0581  1.7087
13878TIP3   OH263048   6.540   6.534   4.725  0.6925  0.3813  0.4710
13878TIP3    H163049   6.598   6.590   4.777  0.8224  0.8146 -0.1225
13878TIP3    H263050   6.503   6.593   4.659 -1.5811  0.4603  1.7083
13879TIP3   OH263051   1.233   4.687   5.877 -0.1324  0.4870 -0.8582
13879TIP3    H163052   1.201   4.729   5.956  0.4807  1.3298 -1.0485
13879TIP3    H263053   1.155   4.648   5.838 -0.5720  0.7421 -0.2505
13880TIP3   OH263054   2.814   2.585  16.596 -0.5871 -0.1988  0.5149
13880TIP3    H163055   2.785   2.592  16.687 -0.5765  1.1676  0.4342
13880TIP3    H263056   2.733   2.576  16.546 -0.7463  1.1897  0.4940
13881TIP3   OH263057   1.330   4.037   2.968  0.5431  0.4949 -0.1924
13881TIP3    H163058   1.299   4.054   2.879 -1.1531  0.4249  0.3508
13881TIP3    H263059   1.284   4.102   3.022  0.8619 -0.0348  0.7365
13882TIP3   OH263060   1.350   3.222   0.131  0.2559 -0.3144  0.2488
13882TIP3    H163061   1.439   3.252   0.116  0.3324 -1.0754 -0.9347
13882TIP3    H263062   1.360   3.138   0.176  0.1409 -0.4144  0.0888
13883TIP3   OH263063   1.436   2.958  12.290 -0.6050  0.0267 -0.6115
13883TIP3    H163064   1.372   2.887  12.292 -1.5477  0.8499  0.5276
13883TIP3    H263065   1.390   3.030  12.246 -0.3486  0.5119 -0.1033
13884TIP3   OH263066   3.833   3.578  13.972  0.2117 -0.3041  0.2278
13884TIP3    H163067   3.856   3.556  14.063  1.4372  0.9426  0.2659
13884TIP3    H263068   3.842   3.496  13.924 -0.2001 -0.9263  1.1894
13885TIP3   OH263069   1.778   1.187  14.901 -0.3748 -0.0644 -0.4391
13885TIP3    H163070   1.816   1.169  14.815  2.4984  0.5434  0.6070
13885TIP3    H263071   1.813   1.273  14.926 -2.7052  0.6959  0.5783
13886TIP3   OH263072   2.389   1.939   1.846 -0.0582 -0.2917 -0.1980
13886TIP3    H163073   2.388   1.894   1.930 -0.2590  0.5315  0.2517
13886TIP3    H263074   2.481   1.937   1.818 -0.2958 -2.3679 -0.9687
13887TIP3   OH263075   0.627   3.604  11.100  0.5253  0.1414  0.0190
13887TIP3    H163076   0.678   3.585  11.021  1.0044 -0.5039  0.4695
13887TIP3    H263077   0.610   3.518  11.139  0.2269  0.4445  0.5748
13888TIP3   OH263078   2.758   4.474  13.198 -0.0952  0.9142  0.1891
13888TIP3    H163079   2.842   4.431  13.211  0.1795  0.6855 -1.9580
13888TIP3    H263080   2.695   4.403  13.185 -0.2077  1.0988 -0.3172
13889TIP3   OH263081   3.437   2.223  14.552 -0.7327  0.1525  0.3118
13889TIP3    H163082   3.518   2.195  14.595 -0.8400 -1.4379 -0.4437
13889TIP3    H263083   3.381   2.146  14.556 -1.3510  0.5084 -1.1921
13890TIP3   OH263084   5.747   3.406   4.187  0.1286  0.7101  0.2717
13890TIP3    H163085   5.701   3.367   4.113 -1.8322 -0.0307  1.7880
13890TIP3    H263086   5.840   3.393   4.167 -0.3791 -1.8764 -0.8382
13891TIP3   OH263087   1.225   3.832  16.922  0.5695  0.6718  0.1335
13891TIP3    H163088   1.172   3.790  16.989  0.5317  1.0543  0.3455
13891TIP3    H263089   1.199   3.924  16.925  1.4306  0.9145  0.4128
13892TIP3   OH263090   3.742   2.927   3.723 -0.4713 -0.0525 -0.6642
13892TIP3    H163091   3.727   3.007   3.674  0.2569 -1.2851 -3.0294
13892TIP3    H263092   3.804   2.877   3.671  1.3890 -0.9601  2.1552
13893TIP3   OH263093   6.606   6.223   5.445 -1.0445 -0.5414 -0.3671
13893TIP3    H163094   6.612   6.279   5.368 -0.1704  1.0790  0.8151
13893TIP3    H263095   6.527   6.253   5.490 -0.1119  0.3905  0.7109
13894TIP3   OH263096   4.319   5.822   5.743  0.6125 -0.3165 -0.5052
13894TIP3    H163097   4.363   5.783   5.819 -1.7061  2.2487  2.4266
13894TIP3    H263098   4.241   5.769   5.730  1.0601 -0.8179 -1.2451
13895TIP3   OH263099   3.038   1.866   1.693 -0.0302 -0.7609  0.0249
13895TIP3    H163100   3.101   1.794   1.701  0.5636 -0.2278  0.2502
13895TIP3    H263101   3.044   1.913   1.776 -0.4215 -0.4604 -0.1106
13896TIP3   OH263102   2.940   4.754   5.733 -0.3694 -0.1870  0.0838
13896TIP3    H163103   2.927   4.823   5.667  0.5124 -0.7883 -0.7591
13896TIP3    H263104   2.889   4.783   5.808 -2.3448 -0.0282 -1.2456
13897TIP3   OH263105   5.915   5.137  13.434 -0.0152 -0.6617  0.2227
13897TIP3    H163106   5.824   5.157  13.457 -0.0025 -1.0248  0.5983
13897TIP3    H263107   5.943   5.073  13.500  0.4534 -0.6924 -0.0025
13898TIP3   OH263108   3.562   1.871  11.758  0.1656 -0.2119  0.0355
13898TIP3    H163109   3.601   1.832  11.680 -0.1329  1.5238 -1.0368
13898TIP3    H263110   3.624   1.852  11.828  2.6027  1.6991 -1.4272
13899TIP3   OH263111   0.124   0.602  10.194  0.4054  0.1432  0.3062
13899TIP3    H163112   0.030   0.610  10.175  0.3487  2.6642  1.2482
13899TIP3    H263113   0.166   0.660  10.130  1.2142 -0.1693  0.5507
13900TIP3   OH263114   2.168   3.810  10.831 -0.2454 -0.2362 -0.8245
13900TIP3    H163115   2.213   3.735  10.870 -0.9260 -0.1737  0.1344
13900TIP3    H263116   2.165   3.875  10.901  1.1932  1.0977 -1.9344
13901TIP3   OH263117   4.318   2.359  12.509 -0.3876  0.5020  0.2227
13901TIP3    H163118   4.316   2.387  12.600  0.8675  0.0160  0.4103
13901TIP3    H263119   4.233   2.388  12.474 -0.7553  0.9797  1.4408
13902TIP3   OH263120   0.959   6.687  16.991 -0.8981  0.0723 -0.3339
13902TIP3    H163121   0.950   6.715  16.900 -1.2075 -0.9870 -0.6485
13902TIP3    H263122   0.932   6.595  16.991 -1.1119  0.1088  0.8684
13903TIP3   OH263123   0.735   0.814  16.717  0.4154 -0.0636 -0.4176
13903TIP3    H163124   0.809   0.774  16.762  1.0468  0.0809 -1.3089
13903TIP3    H263125   0.740   0.907  16.739  0.1156 -0.1482  0.0315
13904TIP3   OH263126   2.493   3.972  13.873 -0.0791  0.1538 -0.5550
13904TIP3    H163127   2.401   3.985  13.894  0.0423  1.0326 -0.5466
13904TIP3    H263128   2.495   3.954  13.779 -0.3381 -0.8320 -0.3878
13905TIP3   OH263129   0.008   5.812  11.527  0.3543  0.0730 -0.1922
13905TIP3    H163130  -0.059   5.781  11.466 -0.8044 -1.9692  1.9549
13905TIP3    H263131  -0.028   5.894  11.561  0.3856  0.5240 -1.1970
13906TIP3   OH263132   0.015   0.705   0.611 -0.0479  0.3443 -0.3816
13906TIP3    H163133   0.031   0.761   0.535 -0.5419 -2.7633 -2.9770
13906TIP3    H263134   0.102   0.677   0.640  0.1121  0.9753 -0.2493
13907TIP3   OH263135   0.343   0.250   2.296  0.2023 -0.5045 -0.0469
13907TIP3    H163136   0.355   0.158   2.317 -0.4437 -0.3919  0.8360
13907TIP3    H263137   0.340   0.253   2.200 -0.5723 -1.5004 -0.0642
13908TIP3   OH263138   0.579   4.587   0.763 -0.0719  0.3742 -0.6009
13908TIP3    H163139   0.598   4.499   0.730 -0.0441  0.5681 -1.1137
13908TIP3    H263140   0.659   4.612   0.810 -1.1303 -1.0445  2.2078
13909TIP3   OH263141   1.793   2.118  13.944 -0.0571 -0.5298 -0.2042
13909TIP3    H163142   1.709   2.111  13.898 -1.0183 -0.4899  1.4230
13909TIP3    H263143   1.783   2.196  13.999  1.6007  0.2794 -1.0058
13910TIP3   OH263144   0.013   1.360   5.719  0.5008 -0.2910  0.4426
13910TIP3    H163145  -0.013   1.452   5.726  1.3526 -0.0496  0.6097
13910TIP3    H263146   0.008   1.327   5.808  2.2487  0.2005  0.7739
13911TIP3   OH263147   5.356   3.464  16.634  0.2279 -0.0113  0.5159
13911TIP3    H163148   5.358   3.369  16.624 -2.8961 -0.0260 -1.1686
13911TIP3    H263149   5.364   3.478  16.729  0.3189 -1.9595  0.8426
13912TIP3   OH263150   2.257   6.080  15.390  0.1508  0.2766 -0.1725
13912TIP3    H163151   2.309   6.154  15.360 -1.3804  1.5270  0.0672
13912TIP3    H263152   2.222   6.109  15.475  0.8861 -1.4289  0.7599
13913TIP3   OH263153   5.443   1.694   1.484  0.3632 -0.2601  0.3233
13913TIP3    H163154   5.403   1.661   1.403  1.1832 -0.8772  0.1549
13913TIP3    H263155   5.407   1.781   1.495 -0.6584 -0.6139 -0.0833
13914TIP3   OH263156   3.365   6.200  12.572 -0.6745  0.2428  0.2026
13914TIP3    H163157   3.433   6.205  12.639 -0.6949 -1.2628  0.3752
13914TIP3    H263158   3.320   6.118  12.590 -2.3461  1.0495 -0.1097
13915TIP3   OH263159   6.516   3.153   5.030  0.1873  0.0597 -0.6660
13915TIP3    H163160   6.546   3.244   5.027  0.4540  0.0431  0.7048
13915TIP3    H263161   6.567   3.114   5.101  2.1259 -1.9436 -3.0045
13916TIP3   OH263162   3.402   1.459  11.944 -0.3983  0.2078  0.0351
13916TIP3    H163163   3.376   1.495  12.029  0.4587  0.3062  0.2556
13916TIP3    H263164   3.328   1.402  11.919  0.1463 -1.3268  1.7224
13917TIP3   OH263165   0.918   1.095  11.418  0.4569  0.0294  0.0091
13917TIP3    H163166   0.886   1.122  11.332  0.4906 -3.1427 -1.0992
13917TIP3    H263167   0.994   1.040  11.399  1.9567  1.2029  2.2337
13918TIP3   OH263168   6.732   4.648  12.016  0.5725 -0.2786  0.5204
13918TIP3    H163169   6.768   4.570  11.973 -0.2400  0.0356 -0.7988
13918TIP3    H263170   6.732   4.715  11.948 -3.3642 -0.5252  0.0271
13919TIP3   OH263171   0.125   4.682  14.801 -0.1004  0.0659 -0.4867
13919TIP3    H163172   0.134   4.691  14.896  0.3710 -1.1828 -0.3863
13919TIP3    H263173   0.042   4.635  14.789 -1.4517  2.4134 -0.8587
13920TIP3   OH263174   5.454   5.529   3.948 -0.1992 -0.5575  0.6179
13920TIP3    H163175   5.511   5.604   3.930 -1.2416 -0.0922 -0.9598
13920TIP3    H263176   5.366   5.566   3.956 -0.5488 -1.4718  1.1497
13921TIP3   OH263177   1.160   4.800   4.017 -0.4296  0.1394 -0.1490
13921TIP3    H163178   1.251   4.770   4.016 -0.5019 -0.0568 -1.0113
13921TIP3    H263179   1.132   4.787   4.108  0.2616 -0.2266  0.0171
13922TIP3   OH263180   6.308   2.951  15.682  0.3974  0.0577 -1.0517
13922TIP3    H163181   6.385   2.900  15.657 -0.0063 -0.5082 -1.1641
13922TIP3    H263182   6.321   2.971  15.774  0.9952  0.5407 -1.2339
13923TIP3   OH263183   5.311   1.483   1.942 -0.5043 -0.0624  0.4270
13923TIP3    H163184   5.225   1.514   1.915 -1.1683 -2.6023 -0.6481
13923TIP3    H263185   5.305   1.474   2.037 -2.0416 -1.7913  0.2128
13924TIP3   OH263186   3.847   5.874  11.855  0.0312  0.1343  0.2102
13924TIP3    H163187   3.783   5.878  11.784 -2.2878 -2.5367  1.9261
13924TIP3    H263188   3.803   5.918  11.928  1.4694  0.9104  0.6473
13925TIP3   OH263189   0.128   4.065  12.437  0.3934 -0.0277  0.0890
13925TIP3    H163190   0.139   4.005  12.363 -0.9662  0.1970 -0.3093
13925TIP3    H263191   0.131   4.008  12.514 -0.5753 -0.5749 -0.2691
13926TIP3   OH263192   3.217   1.417  13.812 -0.6785  0.0717  0.1142
13926TIP3    H163193   3.256   1.502  13.790 -0.8501 -0.5573 -2.9898
13926TIP3    H263194   3.132   1.440  13.851  0.2830  1.3130  1.5996
13927TIP3   OH263195   6.705   1.220  11.696 -0.2711 -0.7162  0.0376
13927TIP3    H163196   6.689   1.198  11.788  2.5976 -2.1749  0.3179
13927TIP3    H263197   6.708   1.135  11.652  1.1735 -0.2441 -0.8425
13928TIP3   OH263198   4.670   2.147   4.776 -0.0557  0.4787 -0.0265
13928TIP3    H163199   4.636   2.159   4.687 -0.4742  0.5715  0.1408
13928TIP3    H263200   4.649   2.056   4.797  1.1632  0.0743 -0.4822
13929TIP3   OH263201   4.379   5.647  13.883  0.1015 -0.6257  0.4337
13929TIP3    H163202   4.461   5.696  13.882 -0.3700  0.1784 -0.3855
13929TIP3    H263203   4.402   5.561  13.846  0.6747 -0.5974  0.7086
13930TIP3   OH263204   3.667   2.596   0.719  1.2004 -0.9983 -0.1754
13930TIP3    H163205   3.671   2.554   0.633  1.1417 -1.7134  0.1634
13930TIP3    H263206   3.736   2.662   0.717  0.6668 -0.4466 -1.0606
13931TIP3   OH263207   3.918   3.575   1.004 -0.6079  0.3886 -0.0139
13931TIP3    H163208   3.884   3.488   0.982 -1.6616  0.5313  0.9933
13931TIP3    H263209   3.970   3.600   0.927 -1.1222 -0.6957 -0.7389
13932TIP3   OH263210   6.069   1.146  15.916 -0.1982 -0.6658 -0.1453
13932TIP3    H163211   6.040   1.237  15.922  2.2514  0.2350 -0.7355
13932TIP3    H263212   6.092   1.122  16.006  0.4527 -0.1907 -0.1727
13933TIP3   OH263213   4.481   4.275  17.063 -0.0098  0.2761  0.1038
13933TIP3    H163214   4.526   4.354  17.093  0.9181  0.1455 -0.8875
13933TIP3    H263215   4.414   4.307  17.003 -0.6913  0.4012  0.9004
13934TIP3   OH263216   4.709   4.020  16.162  0.5085  0.0479 -0.3052
13934TIP3    H163217   4.654   4.005  16.085  0.2787  3.3207 -0.9135
13934TIP3    H263218   4.648   4.043  16.232  0.9116  1.5952 -0.4180
13935TIP3   OH263219   1.970   3.848   6.267  0.0719  0.4556  0.0422
13935TIP3    H163220   1.937   3.882   6.349 -0.8514 -0.6075  0.1368
13935TIP3    H263221   2.065   3.838   6.281  0.1254  1.5389  0.4963
13936TIP3   OH263222   3.058   1.356  17.013 -1.0554 -0.3325  0.2314
13936TIP3    H163223   3.151   1.357  17.035 -0.9088  1.3592 -0.3168
13936TIP3    H263224   3.026   1.272  17.047  0.9815 -1.7154 -0.9810
13937TIP3   OH263225   2.296   2.542  13.594 -0.5078 -0.6251  0.5189
13937TIP3    H163226   2.271   2.459  13.635  0.3999 -0.9641  0.4059
13937TIP3    H263227   2.242   2.548  13.515  0.3194 -1.7238 -0.1464
13938TIP3   OH263228   6.312   3.186   4.184 -0.2557 -0.6628  0.3213
13938TIP3    H163229   6.348   3.238   4.112  0.6188  0.0330  1.2394
13938TIP3    H263230   6.388   3.140   4.220 -0.7906 -1.4692  0.4232
13939TIP3   OH263231   0.817   0.958   2.700 -0.2170  0.5848 -0.2744
13939TIP3    H163232   0.814   0.921   2.612  2.3552  0.0053 -0.1876
13939TIP3    H263233   0.868   1.039   2.691 -1.4542  1.4841  0.4197
13940TIP3   OH263234   5.090   6.419   1.585  0.5579 -0.3712  0.2454
13940TIP3    H163235   5.154   6.358   1.620 -0.9830 -1.5897  1.0726
13940TIP3    H263236   5.096   6.409   1.490  0.8260 -1.2917  0.3541
13941TIP3   OH263237   2.562   6.108   2.459  0.0506 -0.7317  0.1900
13941TIP3    H163238   2.553   6.020   2.497  1.6937 -0.7522  0.5912
13941TIP3    H263239   2.637   6.101   2.400 -0.5294  0.1190 -0.6762
13942TIP3   OH263240   4.351   5.968  11.366  0.5393  0.0917  0.1770
13942TIP3    H163241   4.340   6.037  11.300  1.8217  2.1330  1.9890
13942TIP3    H263242   4.364   5.888  11.315 -1.5924  1.0109 -2.0114
13943TIP3   OH263243   2.798   2.519  15.242  0.5086 -0.1576  0.0525
13943TIP3    H163244   2.870   2.530  15.180 -0.2730  0.4902 -0.7617
13943TIP3    H263245   2.752   2.603  15.241  0.1009 -0.3473  1.0362
13944TIP3   OH263246   2.128   4.461   0.229 -0.5688  0.0192 -0.5145
13944TIP3    H163247   2.054   4.400   0.231 -0.2582 -0.3673 -0.5657
13944TIP3    H263248   2.193   4.417   0.174 -1.5844  1.8974 -3.4259
13945TIP3   OH263249   1.285   1.218  10.870  0.3871  0.3251 -0.5638
13945TIP3    H163250   1.358   1.187  10.816  0.3947 -0.9337  0.1242
13945TIP3    H263251   1.209   1.171  10.837  0.5401 -1.1335  1.0198
13946TIP3   OH263252   6.564   6.551  12.091  0.8273  0.3516 -0.4187
13946TIP3    H163253   6.575   6.468  12.044 -2.4678 -0.7230  0.4254
13946TIP3    H263254   6.590   6.618  12.028 -0.1071 -1.1835 -2.5448
13947TIP3   OH263255   4.660   3.287   4.962 -0.5483  0.3407 -0.5338
13947TIP3    H163256   4.737   3.245   4.924 -0.7013 -0.2583 -0.2072
13947TIP3    H263257   4.597   3.292   4.890 -0.1483  0.9862 -0.8439
13948TIP3   OH263258   3.946   3.026  14.710  0.0096 -0.0535 -0.1835
13948TIP3    H163259   3.959   3.114  14.674 -1.3715  0.8619  1.4100
13948TIP3    H263260   3.996   3.025  14.791 -1.3257 -0.1156  0.6649
13949TIP3   OH263261   5.311   2.504  13.384  0.2450 -0.4410 -0.0173
13949TIP3    H163262   5.317   2.581  13.327  2.0922  0.9125  1.8653
13949TIP3    H263263   5.227   2.515  13.429 -0.4229 -0.6221 -1.1640
13950TIP3   OH263264   0.358   1.615   4.358  0.3965  0.0197  0.0696
13950TIP3    H163265   0.344   1.709   4.344  2.2527  0.4289  0.7032
13950TIP3    H263266   0.424   1.591   4.293  0.2141 -0.7801  0.1706
13951TIP3   OH263267   3.352   6.120  14.590  0.2897 -0.0182  0.7764
13951TIP3    H163268   3.392   6.205  14.607  2.7574 -1.4074  2.6848
13951TIP3    H263269   3.366   6.071  14.671 -3.9071 -1.2951  0.9393
13952TIP3   OH263270   6.688   4.735   0.590 -0.0347  0.5936 -0.3735
13952TIP3    H163271   6.624   4.694   0.649  0.8748  0.6193  0.6572
13952TIP3    H263272   6.655   4.824   0.579 -1.5773 -0.1183 -1.9746
13953TIP3   OH263273   4.239   5.043  15.926  0.3653  1.0686 -0.4428
13953TIP3    H163274   4.179   4.987  15.876  0.5291  0.8249 -0.3721
13953TIP3    H263275   4.284   4.982  15.985  0.1989  1.3511 -0.0214
13954TIP3   OH263276   4.151   6.471  14.412 -0.2142 -0.5051 -0.4349
13954TIP3    H163277   4.095   6.454  14.488 -0.4114  1.1397 -0.1819
13954TIP3    H263278   4.109   6.424  14.340 -1.8867  0.5996 -0.2226
13955TIP3   OH263279   2.893   2.758  12.013  0.0984 -0.0002 -0.1105
13955TIP3    H163280   2.965   2.757  12.076  0.0720 -3.2028  0.0411
13955TIP3    H263281   2.821   2.714  12.058 -0.2444 -1.4837 -1.9489
13956TIP3   OH263282   0.924   4.227  15.251  0.1186  0.7299  0.7144
13956TIP3    H163283   0.923   4.319  15.226 -1.2375  1.0123  1.6762
13956TIP3    H263284   0.841   4.192  15.219 -0.4083  0.4278  2.2752
13957TIP3   OH263285   0.644   3.621  14.258  0.5783  0.0735  0.1960
13957TIP3    H163286   0.650   3.716  14.254  0.7704  0.0283 -0.8169
13957TIP3    H263287   0.572   3.600  14.198 -0.6061 -0.3206  1.6793
13958TIP3   OH263288   3.984   6.775   2.143  0.0944 -0.8200  0.2199
13958TIP3    H163289   3.937   6.757   2.224 -0.5020 -1.7118 -0.3113
13958TIP3    H263290   4.033   6.695   2.124  0.2151 -0.6278 -0.3067
13959TIP3   OH263291   4.324   0.708   3.742  0.1701 -0.0098 -0.5024
13959TIP3    H163292   4.239   0.738   3.711 -0.7010 -0.5637  1.2286
13959TIP3    H263293   4.363   0.786   3.782  0.0076 -0.0102 -0.3415
13960TIP3   OH263294   0.144   0.456  16.926  0.6163  0.1406  0.1174
13960TIP3    H163295   0.201   0.507  16.984 -0.3444  1.2387  0.1377
13960TIP3    H263296   0.198   0.382  16.899  1.1528 -0.3526  2.3107
13961TIP3   OH263297   1.744   4.856  15.298  0.3277 -0.0259  1.1119
13961TIP3    H163298   1.785   4.791  15.355  2.0369 -0.1624 -0.2121
13961TIP3    H263299   1.664   4.813  15.266  0.6401 -0.8826  1.4590
13962TIP3   OH263300   5.844   6.041   4.750  0.3584 -0.4032 -0.2535
13962TIP3    H163301   5.865   5.953   4.719 -1.0081 -0.4328 -1.2115
13962TIP3    H263302   5.814   6.028   4.840  0.2499 -0.9167 -0.3576
13963TIP3   OH263303   4.230   1.531  15.253  0.1705 -0.0223 -0.3958
13963TIP3    H163304   4.313   1.497  15.221  0.8233  1.2455 -0.1228
13963TIP3    H263305   4.238   1.528  15.348 -0.3277 -0.4288 -0.3639
13964TIP3   OH263306   3.994   3.175  14.325  0.2277 -0.0591  0.6985
13964TIP3    H163307   4.063   3.140  14.381  1.9154  1.6456 -0.2250
13964TIP3    H263308   4.038   3.197  14.243 -1.9689 -1.5510 -1.0196
13965TIP3   OH263309   4.936   4.804   0.449 -0.4152 -0.0066  0.3121
13965TIP3    H163310   4.924   4.732   0.512  1.4442  0.3067  1.0990
13965TIP3    H263311   4.866   4.866   0.470  0.1188  0.0527  2.0711
13966TIP3   OH263312   6.174   0.549  11.394  0.4707  0.4665  0.2451
13966TIP3    H163313   6.193   0.643  11.394 -1.0315  0.7971  0.1107
13966TIP3    H263314   6.214   0.516  11.314  0.3376  1.1391 -0.1045
13967TIP3   OH263315   3.955   2.567   5.609 -0.0077  0.1620  0.1728
13967TIP3    H163316   3.898   2.573   5.685 -0.7292  0.9107 -0.4162
13967TIP3    H263317   3.897   2.542   5.537  0.1713  2.0423 -0.6687
13968TIP3   OH263318   1.281   1.253   1.422 -0.4836 -0.2094 -0.2954
13968TIP3    H163319   1.322   1.331   1.385  0.1539  0.0128  0.8277
13968TIP3    H263320   1.260   1.277   1.513  0.5407 -1.5930  0.3503
13969TIP3   OH263321   6.391   3.244   3.670  0.3132  0.1215 -0.1040
13969TIP3    H163322   6.417   3.175   3.609  0.1884  0.9313 -1.1159
13969TIP3    H263323   6.474   3.284   3.698  0.4262 -0.9098  1.0742
13970TIP3   OH263324   6.319   1.167  10.712 -0.3620 -0.2675  0.6005
13970TIP3    H163325   6.363   1.194  10.793  1.8492 -4.0128  0.9269
13970TIP3    H263326   6.239   1.123  10.742  0.7046 -2.1004  0.9236
13971TIP3   OH263327   6.308   3.632  15.324 -0.4393  0.9188 -0.4412
13971TIP3    H163328   6.292   3.727  15.324  1.4751  1.3314  1.4877
13971TIP3    H263329   6.371   3.618  15.254  0.8572  1.4587  0.5697
13972TIP3   OH263330   5.160   2.088   1.471 -0.8302  0.5444 -0.1227
13972TIP3    H163331   5.145   2.111   1.379  1.4146  1.9918 -0.2201
13972TIP3    H263332   5.253   2.063   1.474 -0.7925  0.7481  1.7759
13973TIP3   OH263333   3.033   3.170  14.942 -0.1806 -0.2779 -0.2357
13973TIP3    H163334   2.943   3.141  14.932  0.1396 -2.6437  2.4130
13973TIP3    H263335   3.084   3.090  14.944  1.9662  0.9801 -1.1140
13974TIP3   OH263336   6.506   5.987  11.322 -0.6144 -0.3649 -0.3456
13974TIP3    H163337   6.466   6.074  11.326  2.7264  1.2889  0.8792
13974TIP3    H263338   6.477   5.943  11.401 -1.5105  0.0307 -0.4510
13975TIP3   OH263339   1.810   2.528   2.686  0.2074  0.0860 -0.7291
13975TIP3    H163340   1.900   2.495   2.678 -0.1604 -0.9898 -0.5931
13975TIP3    H263341   1.810   2.577   2.768  0.4663 -0.5944 -0.3172
13976TIP3   OH263342   4.477   3.566  15.857  0.2896  0.2273 -0.0549
13976TIP3    H163343   4.400   3.553  15.913  0.3539 -2.2258 -0.4507
13976TIP3    H263344   4.551   3.551  15.916  0.3582 -2.2906 -0.6946
13977TIP3   OH263345   5.104   6.047  12.437  0.1373 -0.4791 -0.2044
13977TIP3    H163346   5.189   6.030  12.398  0.5833 -0.4886  0.7570
13977TIP3    H263347   5.123   6.077  12.525 -0.7738  1.4764 -0.6210
13978TIP3   OH263348   3.105   2.625  12.485  0.3933 -0.2772  0.4180
13978TIP3    H163349   3.036   2.661  12.540  0.6162  0.3745  0.2852
13978TIP3    H263350   3.186   2.651  12.528  0.5540 -1.1351  0.6348
13979TIP3   OH263351   6.156   0.588   1.139 -0.0074 -0.4639 -0.5560
13979TIP3    H163352   6.157   0.655   1.071 -0.4906  1.1020  0.9113
13979TIP3    H263353   6.063   0.571   1.155  0.0721 -2.6885 -1.9681
13980TIP3   OH263354   4.598   0.096  11.206  0.3501 -0.0720  0.0685
13980TIP3    H163355   4.611   0.077  11.113  0.7862  0.1308  0.0852
13980TIP3    H263356   4.504   0.111  11.215  0.4541  1.0625 -0.5609
13981TIP3   OH263357   1.200   0.434  17.074  0.2201 -0.1063 -0.4732
13981TIP3    H163358   1.221   0.342  17.090  0.1889 -0.0479 -0.0680
13981TIP3    H263359   1.154   0.462  17.154  0.5791  0.3675 -0.4260
13982TIP3   OH263360   3.884   1.413   0.118  0.3748 -0.1550 -0.2217
13982TIP3    H163361   3.890   1.416   0.022  1.8933  1.7606 -0.1293
13982TIP3    H263362   3.927   1.331   0.142  1.8544  0.3159 -1.1205
13983TIP3   OH263363   5.031   5.919   3.644  0.4781  0.2807 -0.2037
13983TIP3    H163364   4.948   5.875   3.662  0.3891  0.9171  1.1057
13983TIP3    H263365   5.019   6.007   3.679  1.6976  0.3855 -0.0023
13984TIP3   OH263366   2.292   1.097   5.506 -1.0057  0.0708  0.0571
13984TIP3    H163367   2.332   1.024   5.554 -1.2111 -0.5733 -0.7192
13984TIP3    H263368   2.306   1.075   5.414  1.3859  2.3716 -0.2565
13985TIP3   OH263369   0.197   3.463   2.897  0.3288 -0.1628  0.4093
13985TIP3    H163370   0.150   3.383   2.921  0.5262 -0.1234  0.9313
13985TIP3    H263371   0.238   3.442   2.813 -0.3295 -0.3160  0.1165
13986TIP3   OH263372   6.403   0.430   6.025  0.6614 -0.2673  0.1722
13986TIP3    H163373   6.326   0.390   5.985 -0.2223 -0.0427  1.5726
13986TIP3    H263374   6.476   0.399   5.973 -0.1936 -2.0657 -0.0269
13987TIP3   OH263375   5.263   4.211   5.277  0.3240 -0.0150 -0.3937
13987TIP3    H163376   5.286   4.118   5.273 -0.5054 -0.2483 -0.0438
13987TIP3    H263377   5.327   4.249   5.337  1.2131 -0.1756 -1.2120
13988TIP3   OH263378   1.590   1.330   2.300  0.4762 -0.5090  0.9085
13988TIP3    H163379   1.647   1.266   2.256  0.6404  0.5746 -0.5163
13988TIP3    H263380   1.508   1.325   2.251  1.2421  2.0130 -0.8081
13989TIP3   OH263381   0.867   0.989   0.280  0.3531 -0.1238  0.2980
13989TIP3    H163382   0.820   1.053   0.226  0.2430 -0.1708  0.3377
13989TIP3    H263383   0.958   1.016   0.276  0.4834 -0.6609 -0.6773
13990TIP3   OH263384   1.286   3.159  12.166 -0.5023  0.5280 -0.5970
13990TIP3    H163385   1.345   3.221  12.208 -2.1971  2.4940 -0.9890
13990TIP3    H263386   1.226   3.213  12.115 -2.5059 -1.3739 -0.3853
13991TIP3   OH263387   0.061   0.643   2.817 -0.1540 -0.3733  0.8910
13991TIP3    H163388  -0.020   0.607   2.853  0.1128 -1.1387  0.7426
13991TIP3    H263389   0.095   0.574   2.760  0.2007  0.2430  0.3338
13992TIP3   OH263390   2.886   2.617  14.201  0.4138 -0.0379 -0.2641
13992TIP3    H163391   2.875   2.541  14.144 -2.8356  1.5402 -2.0687
13992TIP3    H263392   2.804   2.621  14.251  0.8863  1.7464  0.4268
13993TIP3   OH263393   6.771   4.524  15.182 -0.5173  0.1678 -0.1527
13993TIP3    H163394   6.680   4.551  15.173 -0.2538  0.8197 -0.9892
13993TIP3    H263395   6.788   4.528  15.277 -1.1288  0.8139 -0.0615
13994TIP3   OH263396   6.295   0.772  12.901 -0.3808 -0.2231  0.2971
13994TIP3    H163397   6.349   0.755  12.824 -1.8467 -0.1637 -0.7824
13994TIP3    H263398   6.339   0.726  12.972  1.1350 -0.0754 -0.5122
13995TIP3   OH263399   5.828   0.478   5.721  0.2391 -0.4090  0.2354
13995TIP3    H163400   5.898   0.436   5.770 -0.0583 -0.9631  0.1941
13995TIP3    H263401   5.747   0.451   5.765 -0.0107 -0.6312 -0.3455
13996TIP3   OH263402   0.157   1.412   2.494 -0.0690 -0.1584 -0.2076
13996TIP3    H163403   0.131   1.344   2.432 -0.6514 -1.0681  0.9879
13996TIP3    H263404   0.250   1.393   2.512 -0.3334 -0.9144  0.4270
13997TIP3   OH263405   1.395   3.758   1.304  0.0079 -0.1187 -0.2628
13997TIP3    H163406   1.414   3.664   1.308 -2.1164 -0.5814  0.1550
13997TIP3    H263407   1.369   3.773   1.213  0.7054  0.1693 -0.4237
13998TIP3   OH263408   5.265   4.124  11.504 -0.1139 -0.2243  0.1351
13998TIP3    H163409   5.292   4.052  11.446  3.0649  1.4083 -0.6501
13998TIP3    H263410   5.170   4.128  11.494  0.1561  0.2276 -5.5233
13999TIP3   OH263411   5.124   6.167  13.634 -0.1520 -0.1925  0.4140
13999TIP3    H163412   5.035   6.202  13.624 -0.2495 -0.7714 -0.8554
13999TIP3    H263413   5.162   6.173  13.546  1.3947  0.8902  1.1132
14000TIP3   OH263414   6.677   5.068  11.553  0.4371  0.3678  0.2590
14000TIP3    H163415   6.765   5.096  11.580 -0.0467  1.1602  1.0920
14000TIP3    H263416   6.667   4.981  11.592  1.1630 -0.0974 -0.5604
14001TIP3   OH263417   3.726   3.445   4.180  0.2975 -0.4086 -0.1121
14001TIP3    H163418   3.677   3.512   4.131 -0.2151 -0.0912  0.8046
14001TIP3    H263419   3.767   3.391   4.113  0.8393  0.9076 -0.8777
14002TIP3   OH263420   1.940   1.032   1.914  0.6476  0.0070 -0.0292
14002TIP3    H163421   1.849   1.010   1.930  0.8855 -1.3373 -0.4193
14002TIP3    H263422   1.987   0.998   1.991  0.9190 -0.0903 -0.2352
14003TIP3   OH263423   6.066   2.566   2.407 -0.3985 -0.3409  0.2661
14003TIP3    H163424   6.064   2.660   2.423 -0.2795 -0.1487 -0.7406
14003TIP3    H263425   6.047   2.557   2.313 -1.9296 -1.4225  0.6381
14004TIP3   OH263426   0.582   3.276  12.688 -0.0746  0.1171 -0.5845
14004TIP3    H163427   0.597   3.352  12.632 -0.7196 -1.1042 -2.4893
14004TIP3    H263428   0.512   3.305  12.748 -0.4193  0.9758 -1.3752
14005TIP3   OH263429   4.553   1.223  16.968  0.3357 -0.1841 -0.4135
14005TIP3    H163430   4.544   1.132  16.995 -0.3805 -0.4022 -1.3179
14005TIP3    H263431   4.647   1.241  16.970  0.3864 -0.5066  1.1126
14006TIP3   OH263432   1.584   0.410   2.087  0.1443 -0.4226 -0.1086
14006TIP3    H163433   1.516   0.360   2.042  0.7264 -0.9858 -0.3907
14006TIP3    H263434   1.538   0.458   2.155 -0.7964  0.6728 -1.4788
14007TIP3   OH263435   0.964   4.318  13.850 -0.7452  0.2573 -0.1078
14007TIP3    H163436   0.948   4.345  13.760  0.5460  1.4423 -0.0198
14007TIP3    H263437   1.054   4.284  13.849  0.5736  3.3139  1.2773
14008TIP3   OH263438   1.640   1.999   1.136  0.3253 -0.2021 -0.2766
14008TIP3    H163439   1.696   1.980   1.211  0.4179  0.0714 -0.2753
14008TIP3    H263440   1.687   1.965   1.061  0.2600 -0.4233 -0.2191
14009TIP3   OH263441   5.683   1.237   1.614  0.0394 -0.1092 -0.8614
14009TIP3    H163442   5.680   1.170   1.682  0.5401  2.3840  1.7592
14009TIP3    H263443   5.736   1.307   1.651  0.1313  1.4982 -3.7594
14010TIP3   OH263444   3.719   0.387  12.376  0.1895  0.5274  0.3796
14010TIP3    H163445   3.660   0.458  12.351 -0.1362  0.8562  1.9619
14010TIP3    H263446   3.661   0.318  12.408  0.5030 -0.4880 -1.1396
14011TIP3   OH263447   5.499   0.020  15.395  0.4590  0.1882  0.2272
14011TIP3    H163448   5.553   0.065  15.330 -0.4691 -1.3243 -1.6887
14011TIP3    H263449   5.482  -0.066  15.357 -1.2804 -0.2600  1.8618
14012TIP3   OH263450   0.467   3.522   1.474  0.5224  0.2498  0.3981
14012TIP3    H163451   0.528   3.553   1.406  0.0247  1.3348  0.4277
14012TIP3    H263452   0.390   3.577   1.463 -2.0163 -3.3275 -1.9824
14013TIP3   OH263453   4.280   2.658   5.114 -0.1622  0.2971  0.0782
14013TIP3    H163454   4.348   2.669   5.048 -1.4206 -1.5474 -1.6344
14013TIP3    H263455   4.199   2.682   5.069 -1.1378 -1.7015  0.6475
14014TIP3   OH263456   2.200   2.060  12.191 -0.6037  0.1196  0.1687
14014TIP3    H163457   2.116   2.104  12.179  0.7343  3.5875  2.1665
14014TIP3    H263458   2.263   2.116  12.146  0.9298 -1.1172  0.6859
14015TIP3   OH263459   4.758   2.960  15.801 -0.1111  0.3985  0.1482
14015TIP3    H163460   4.724   2.992  15.885 -0.7036  0.0674  0.0434
14015TIP3    H263461   4.681   2.923  15.758 -0.0501  1.5533 -1.0197
14016TIP3   OH263462   5.078   5.016  11.916 -0.0525 -0.8248 -0.0998
14016TIP3    H163463   5.052   4.998  11.826  1.1608 -2.5434 -0.1485
14016TIP3    H263464   5.171   5.038  11.910 -0.3597  0.8080  0.5609
14017TIP3   OH263465   0.904   5.601  16.298  0.5172  0.1338  0.0546
14017TIP3    H163466   0.833   5.666  16.303  0.6299  0.4985 -1.9543
14017TIP3    H263467   0.982   5.653  16.275  0.8324 -0.5649 -0.4966
14018TIP3   OH263468   4.016   4.299   2.489 -0.6892  0.3953 -0.0009
14018TIP3    H163469   4.077   4.297   2.563  1.3096 -0.3001 -1.5651
14018TIP3    H263470   4.032   4.217   2.443 -3.3928 -0.1553 -0.1136
14019TIP3   OH263471   4.615   4.601  15.638  0.0303  0.2627  0.2908
14019TIP3    H163472   4.646   4.513  15.615  0.5740  0.3195  0.7995
14019TIP3    H263473   4.611   4.647  15.554 -0.2145 -0.2254  0.0234
14020TIP3   OH263474   4.818   6.260   0.959  0.8566  0.2096 -0.1280
14020TIP3    H163475   4.771   6.266   0.876  2.5357 -1.9595 -1.3418
14020TIP3    H263476   4.781   6.183   1.002  1.6372 -0.1054 -0.0071
14021TIP3   OH263477   4.333   3.723   5.986  0.0725 -0.1760 -0.3941
14021TIP3    H163478   4.346   3.817   5.983  0.0768 -0.1522  0.3577
14021TIP3    H263479   4.398   3.692   6.049 -0.4246 -0.5987 -0.0901
14022TIP3   OH263480   4.638   6.439  11.846 -0.5859  0.0941 -0.4598
14022TIP3    H163481   4.594   6.489  11.778  0.2434  0.8663 -0.4522
14022TIP3    H263482   4.716   6.491  11.867 -0.4861 -0.4603  0.6122
14023TIP3   OH263483   2.456   1.987   0.985 -0.2343  0.1044 -0.1258
14023TIP3    H163484   2.384   2.033   0.943 -0.6416  2.2760  2.6774
14023TIP3    H263485   2.511   2.057   1.021  1.8305 -1.5530  0.1403
14024TIP3   OH263486   4.517   0.399  16.471  0.1835 -0.7458 -0.2660
14024TIP3    H163487   4.593   0.430  16.423  0.4861 -2.6877 -1.0985
14024TIP3    H263488   4.442   0.422  16.416  0.0254  1.7485  0.8505
14025TIP3   OH263489   4.987   4.385  11.078  0.3187  0.1640  0.0578
14025TIP3    H163490   4.943   4.442  11.014 -0.0320 -1.2593 -1.0326
14025TIP3    H263491   4.955   4.298  11.056  0.3378 -0.3858  2.1070
14026TIP3   OH263492   1.548   3.710  11.587  0.5789  0.0853 -0.0734
14026TIP3    H163493   1.503   3.681  11.508 -0.7190  2.7105 -0.3978
14026TIP3    H263494   1.481   3.710  11.655  1.5025 -1.3896  0.9141
14027TIP3   OH263495   4.901   3.822   3.085  0.0175 -0.5784 -0.9729
14027TIP3    H163496   4.894   3.739   3.037  0.1629 -0.2708 -1.5324
14027TIP3    H263497   4.993   3.846   3.078  0.1084 -0.6997 -0.2449
14028TIP3   OH263498   0.701   0.474   4.203  0.4227 -0.1274 -0.2646
14028TIP3    H163499   0.651   0.411   4.151  0.3278 -0.6282  0.4179
14028TIP3    H263500   0.728   0.425   4.281 -0.0207  0.7937  0.4863
14029TIP3   OH263501   5.147   2.703   1.479 -0.4238 -0.4318  0.2857
14029TIP3    H163502   5.131   2.609   1.488 -0.4835 -0.5775 -1.1192
14029TIP3    H263503   5.061   2.743   1.493 -0.7697 -0.7339 -0.8892
14030TIP3   OH263504   4.575   1.235  13.309 -0.0777 -0.5861  0.2305
14030TIP3    H163505   4.590   1.312  13.363 -0.9961  0.9247 -1.5225
14030TIP3    H263506   4.482   1.239  13.287 -0.0277 -1.9087 -0.3522
14031TIP3   OH263507   5.056   6.233  14.846 -0.4994 -0.2747  0.4925
14031TIP3    H163508   5.008   6.315  14.835  0.4885  0.1308 -1.0543
14031TIP3    H263509   5.067   6.223  14.940 -1.1684  1.0498  0.7208
14032TIP3   OH263510   6.490   5.565   0.717 -0.5542  0.0388  0.2041
14032TIP3    H163511   6.573   5.585   0.673 -0.4944  2.2266  1.2120
14032TIP3    H263512   6.483   5.470   0.711  1.3319 -0.0797 -1.1295
14033TIP3   OH263513   3.292   6.012  11.939  0.1663  0.4778  0.3264
14033TIP3    H163514   3.294   6.061  12.021 -0.5076 -0.3381  0.8519
14033TIP3    H263515   3.222   6.053  11.888  0.6880  1.0841  0.0813
14034TIP3   OH263516   1.379   1.607   5.985  0.1949 -0.2655 -0.3253
14034TIP3    H163517   1.465   1.631   6.018 -0.2535  0.4314  0.3771
14034TIP3    H263518   1.326   1.591   6.063 -0.6378  0.5347 -0.6954
14035TIP3   OH263519   6.453   1.589  11.876  0.2675 -0.0218 -0.4142
14035TIP3    H163520   6.467   1.501  11.912 -1.9549  0.3499  1.5881
14035TIP3    H263521   6.532   1.638  11.901  0.7384 -0.9630  0.0086
14036TIP3   OH263522   6.465   4.713  15.924 -0.6783 -0.3686  0.1285
14036TIP3    H163523   6.526   4.758  15.983  0.5658 -2.1019  0.2256
14036TIP3    H263524   6.388   4.695  15.977 -0.8362  0.7955  0.3309
14037TIP3   OH263525   0.406   1.478   3.895  0.4045 -0.1914  0.5238
14037TIP3    H163526   0.397   1.536   3.819  0.6503 -1.7504 -0.7375
14037TIP3    H263527   0.397   1.537   3.971  2.6481  1.8457 -0.6350
14038TIP3   OH263528   2.296   3.136   5.261  0.6106 -0.2137 -0.0143
14038TIP3    H163529   2.320   3.228   5.254 -1.9378  0.4675 -1.3016
14038TIP3    H263530   2.317   3.100   5.175 -1.7740  0.1794 -0.8457
14039TIP3   OH263531   2.585   6.253  17.048 -0.5317  1.0813  0.1994
14039TIP3    H163532   2.641   6.330  17.056 -1.2235  1.6687 -0.4763
14039TIP3    H263533   2.581   6.217  17.137  1.0525  0.9059  0.2331
14040TIP3   OH263534   0.497   1.865   1.701  0.2941  0.3477 -0.2282
14040TIP3    H163535   0.531   1.935   1.645 -0.8949  1.6280  0.5636
14040TIP3    H263536   0.408   1.849   1.667  0.6441 -1.0074 -0.5689
14041TIP3   OH263537   3.650   0.816   2.954  0.2125  0.5439 -0.2374
14041TIP3    H163538   3.708   0.746   2.923 -1.3181 -0.4604 -0.9751
14041TIP3    H263539   3.589   0.772   3.013 -0.6169  1.3285 -0.4968
14042TIP3   OH263540   3.398   2.102   3.690 -0.2154  0.3721 -0.5441
14042TIP3    H163541   3.392   2.144   3.775  0.7088 -1.0310  0.2654
14042TIP3    H263542   3.430   2.170   3.631 -1.0610  1.4099  0.1697
14043TIP3   OH263543   0.398   1.249  10.680 -0.1373  0.5024  0.5247
14043TIP3    H163544   0.334   1.306  10.721 -0.7128  0.6130 -0.4983
14043TIP3    H263545   0.377   1.252  10.587  0.8179 -0.1345  0.2719
14044TIP3   OH263546   2.162   3.723  14.695 -0.2618 -0.4271 -0.4331
14044TIP3    H163547   2.129   3.811  14.677  0.5267 -0.0968 -0.3173
14044TIP3    H263548   2.235   3.737  14.756  0.5740 -1.0535 -1.2530
14045TIP3   OH263549   6.659   1.707   0.146  0.1182 -1.2526  0.4619
14045TIP3    H163550   6.622   1.634   0.097  1.0703 -1.0601 -0.6064
14045TIP3    H263551   6.693   1.766   0.078 -0.6203  0.1851  1.2891
14046TIP3   OH263552   4.989   2.642   3.571 -0.2727 -0.1773 -0.1240
14046TIP3    H163553   4.923   2.590   3.618 -1.7314  1.1474 -0.6075
14046TIP3    H263554   4.978   2.617   3.479 -1.1011  1.0280 -0.3826
14047TIP3   OH263555   3.530   1.493  11.516 -0.1390  0.0511 -0.1702
14047TIP3    H163556   3.459   1.436  11.545 -1.2353  1.1072 -0.6671
14047TIP3    H263557   3.561   1.534  11.596 -0.1692 -0.3343  0.0400
14048TIP3   OH263558   2.836   2.196  12.103  0.3553  0.1395 -0.7600
14048TIP3    H163559   2.781   2.273  12.106  1.4609  0.9091  0.9168
14048TIP3    H263560   2.799   2.143  12.032 -1.0617  1.6915 -1.2381
14049TIP3   OH263561   1.116   1.974   0.578 -0.1334  0.0736 -0.2567
14049TIP3    H163562   1.070   2.002   0.499 -1.8343 -0.9162  0.3254
14049TIP3    H263563   1.125   1.880   0.568  0.4520  0.0630  0.3249
14050TIP3   OH263564   5.572   5.307  12.400  0.4385 -0.4497  0.2537
14050TIP3    H163565   5.552   5.392  12.439 -1.5826 -1.1096  0.7955
14050TIP3    H263566   5.531   5.310  12.313  0.3497 -0.8676  0.2802
14051TIP3   OH263567   0.302   5.351  14.378  0.0040  0.1243 -0.1312
14051TIP3    H163568   0.365   5.423  14.378 -0.1809  0.2890  0.1281
14051TIP3    H263569   0.239   5.374  14.446 -0.8787  0.4522 -1.0199
14052TIP3   OH263570   4.432   6.072   2.879 -0.1848 -0.3136 -0.3907
14052TIP3    H163571   4.512   6.041   2.922  0.3291  0.7027 -0.5651
14052TIP3    H263572   4.453   6.074   2.786 -0.8273 -1.1760 -0.5671
14053TIP3   OH263573   0.902   0.048   0.432  0.2739 -0.2736  0.0965
14053TIP3    H163574   0.961  -0.014   0.474 -0.8435 -1.3569  0.1041
14053TIP3    H263575   0.851  -0.005   0.370 -1.3794  0.4316  0.7993
14054TIP3   OH263576   3.419   1.311  16.785  0.3115 -0.4013 -0.0640
14054TIP3    H163577   3.363   1.290  16.860 -1.2804 -0.6436 -1.2638
14054TIP3    H263578   3.384   1.394  16.751  1.6444  0.2260  0.0300
14055TIP3   OH263579   3.364   1.397   4.560 -0.1613  0.0419  0.3879
14055TIP3    H163580   3.322   1.432   4.481 -0.0901 -0.7968 -0.0415
14055TIP3    H263581   3.315   1.316   4.578  2.7888 -2.4121 -1.6546
14056TIP3   OH263582   3.904   4.941   1.399  0.1642 -0.4812 -0.4330
14056TIP3    H163583   3.835   4.882   1.429 -0.2854  0.4086  0.2984
14056TIP3    H263584   3.944   4.975   1.479  0.4137  0.2241 -0.8488
14057TIP3   OH263585   5.285   4.868  11.245 -0.1150  0.3483  0.3365
14057TIP3    H163586   5.278   4.798  11.180  1.8201  1.1535 -0.8476
14057TIP3    H263587   5.218   4.932  11.219 -0.5586 -0.1578  0.2275
14058TIP3   OH263588   4.417   0.356  13.690 -0.1481 -0.2549 -0.1278
14058TIP3    H163589   4.401   0.271  13.731  0.6893 -0.6148 -0.5261
14058TIP3    H263590   4.512   0.361  13.680  0.0643  1.7969  2.1005
14059TIP3   OH263591   1.272   6.099   3.513  0.4035  0.1052  0.4090
14059TIP3    H163592   1.301   6.009   3.504 -0.7718 -0.6567  3.0863
14059TIP3    H263593   1.327   6.135   3.582 -0.6633  0.6632  1.0039
14060TIP3   OH263594   3.240   3.165  15.843  0.8045 -0.5637  0.0532
14060TIP3    H163595   3.292   3.244  15.826 -0.8552  0.4826 -0.5295
14060TIP3    H263596   3.289   3.094  15.801  1.9686  0.2809 -0.0607
14061TIP3   OH263597   6.594   2.507  13.887  0.0466 -0.6791  0.3053
14061TIP3    H163598   6.544   2.539  13.812  0.1980 -0.7296  0.1816
14061TIP3    H263599   6.545   2.429  13.916  0.3680 -1.0698 -0.1800
14062TIP3   OH263600   2.610   3.291  14.468 -0.2721 -0.0218 -0.0000
14062TIP3    H163601   2.554   3.220  14.499  0.0379 -0.2859 -0.0454
14062TIP3    H263602   2.648   3.258  14.387 -0.9125  0.5830 -0.5682
14063TIP3   OH263603   4.274   1.889   4.763  0.0932  0.0451  0.3031
14063TIP3    H163604   4.222   1.968   4.747 -0.0525 -0.0236  0.4293
14063TIP3    H263605   4.245   1.860   4.849 -0.5449 -0.6826 -0.1469
14064TIP3   OH263606   2.406   1.973  16.507  0.1370 -0.2101 -0.7010
14064TIP3    H163607   2.324   2.017  16.527 -0.1794  0.0560 -2.4108
14064TIP3    H263608   2.390   1.881  16.525  0.0648  0.0608  0.6990
14065TIP3   OH263609   4.022   5.098  12.621  0.2761 -0.0496 -0.0667
14065TIP3    H163610   4.006   5.026  12.560 -2.9045 -0.5502  1.2086
14065TIP3    H263611   4.053   5.170  12.565 -1.2171 -0.9075 -2.1201
14066TIP3   OH263612   5.934   6.320   5.112  0.2080 -0.1644 -0.0504
14066TIP3    H163613   5.996   6.391   5.096  0.1054 -0.1514 -0.3970
14066TIP3    H263614   5.979   6.241   5.083 -0.1774 -0.0786 -0.9383
14067TIP3   OH263615   1.048   0.019  12.855 -0.3366 -0.6459  0.4739
14067TIP3    H163616   1.003   0.104  12.849  1.8177  0.5686  0.6686
14067TIP3    H263617   1.004  -0.025  12.928 -2.6612 -0.4970 -0.7371
14068TIP3   OH263618   1.702   5.532   2.750 -0.1153  0.0392 -0.3492
14068TIP3    H163619   1.740   5.603   2.698 -0.4784  0.5640  0.0966
14068TIP3    H263620   1.690   5.570   2.837  0.8284 -0.9402  0.2362
14069TIP3   OH263621   5.815   5.221  11.572  0.0361  0.1755 -0.1956
14069TIP3    H163622   5.784   5.289  11.632 -0.1029  0.2785 -0.3814
14069TIP3    H263623   5.837   5.147  11.628  2.6696  1.2374  0.3034
14070TIP3   OH263624   1.074   2.917  15.143  0.0748  0.1495  0.1094
14070TIP3    H163625   1.067   3.000  15.097  0.2688 -0.6153 -1.3693
14070TIP3    H263626   0.995   2.912  15.196 -0.0778  1.1474 -0.0072
14071TIP3   OH263627   3.236   2.150  16.866 -0.5853  0.4011 -0.6437
14071TIP3    H163628   3.310   2.096  16.895 -1.9460 -0.4866  1.3625
14071TIP3    H263629   3.179   2.090  16.819 -1.1569  0.5265 -0.1238
14072TIP3   OH263630   4.918   5.018   4.160 -0.9143 -0.8830  0.0899
14072TIP3    H163631   5.001   4.973   4.146  1.0567  2.8282 -1.6543
14072TIP3    H263632   4.943   5.105   4.192 -3.7935  1.3789 -3.0852
14073TIP3   OH263633   5.441   0.006   3.277 -0.3672  0.5245 -0.4184
14073TIP3    H163634   5.362  -0.000   3.330 -0.1598  0.0424 -0.1514
14073TIP3    H263635   5.445  -0.078   3.230 -0.4008  0.8374 -0.9783
14074TIP3   OH263636   5.667   3.235  16.048  0.0571  0.0416 -0.0280
14074TIP3    H163637   5.713   3.194  15.974  0.4133 -0.7456  0.6040
14074TIP3    H263638   5.624   3.162  16.092  0.0270  0.4745  0.6662
14075TIP3   OH263639   6.390   5.944  16.284 -0.0036  0.1735  0.6877
14075TIP3    H163640   6.359   5.860  16.250 -0.8466  0.3908  0.8886
14075TIP3    H263641   6.465   5.922  16.338  0.4404 -0.3364 -0.1103
14076TIP3   OH263642   1.975   6.129   3.023 -0.1704  0.0315  0.1347
14076TIP3    H163643   1.993   6.193   3.091 -0.4007  0.9007 -0.6076
14076TIP3    H263644   2.056   6.123   2.973 -0.0568 -0.4816  0.3690
14077TIP3   OH263645   5.072   4.326   1.580 -0.3088 -0.8985  0.0063
14077TIP3    H163646   5.078   4.422   1.583  3.4780 -1.0237  0.7808
14077TIP3    H263647   5.020   4.309   1.501  0.0244  1.7808 -0.9186
14078TIP3   OH263648   5.379   5.267   1.446  0.6000 -0.0494  0.4335
14078TIP3    H163649   5.327   5.241   1.370  0.6759 -1.3893  0.8162
14078TIP3    H263650   5.435   5.337   1.414  2.6415 -2.3979 -1.5231
14079TIP3   OH263651   0.970   1.558  14.297  0.3620  0.1761 -0.3208
14079TIP3    H163652   0.964   1.506  14.216 -1.4681 -0.8632  0.4147
14079TIP3    H263653   0.886   1.603  14.302  1.3452  2.1036 -0.1466
14080TIP3   OH263654   4.778   1.688   2.677  0.2369  0.2235  0.7125
14080TIP3    H163655   4.712   1.659   2.740 -0.5630 -1.8303 -0.9356
14080TIP3    H263656   4.760   1.781   2.665  0.0807  0.5485  3.0599
14081TIP3   OH263657   1.623   2.012   0.772  0.2038 -0.7724  0.2301
14081TIP3    H163658   1.699   1.976   0.818 -1.4204 -0.5898  3.3227
14081TIP3    H263659   1.573   1.935   0.745  1.5225 -0.9027 -2.0930
14082TIP3   OH263660   6.354   6.189   5.209 -0.3382  0.2108  0.0955
14082TIP3    H163661   6.383   6.098   5.206  1.9856  0.8580  0.8712
14082TIP3    H263662   6.382   6.226   5.125  0.3312  0.6228  0.4901
14083TIP3   OH263663   1.437   2.058   3.229  0.0194 -0.0838 -0.1077
14083TIP3    H163664   1.479   1.973   3.246 -0.5087 -0.3905 -0.3188
14083TIP3    H263665   1.505   2.123   3.250 -0.2390 -0.4746  2.1572
14084TIP3   OH263666   0.741   4.366   4.553 -0.2046 -0.0569 -0.1995
14084TIP3    H163667   0.722   4.294   4.492 -1.1780  0.7963 -0.9392
14084TIP3    H263668   0.823   4.403   4.521  0.1746 -0.6726  0.0400
14085TIP3   OH263669   3.470   2.211  11.149 -0.4694 -0.5536  0.4843
14085TIP3    H163670   3.532   2.233  11.219 -0.9537  0.2772  0.6713
14085TIP3    H263671   3.504   2.257  11.072 -0.8404 -0.1083  0.5842
14086TIP3   OH263672   6.261   4.804  14.148  0.4684 -0.1575 -0.2795
14086TIP3    H163673   6.197   4.867  14.115  1.2109  0.6299 -0.2592
14086TIP3    H263674   6.329   4.858  14.189  0.8879 -0.9970  0.1491
14087TIP3   OH263675   6.757   5.926   0.578 -0.4839 -0.1866  0.0868
14087TIP3    H163676   6.826   5.990   0.561  0.1933 -0.5240  1.4361
14087TIP3    H263677   6.758   5.868   0.502  0.4625  0.0543 -0.0948
14088TIP3   OH263678   1.052   4.018  16.139  0.3252 -0.0803 -0.1016
14088TIP3    H163679   1.062   4.071  16.060 -0.1347  0.3203  0.1003
14088TIP3    H263680   1.119   4.053  16.199  2.4666 -2.0948 -1.1760
14089TIP3   OH263681   2.428   6.484   4.107 -0.3051  0.3007  0.3070
14089TIP3    H163682   2.424   6.519   4.018 -1.0103  1.1408  0.6576
14089TIP3    H263683   2.370   6.541   4.158 -0.3313 -0.4960  1.1936
14090TIP3   OH263684   6.045   4.303   3.135  0.1544  0.2327 -0.0353
14090TIP3    H163685   6.082   4.221   3.169 -3.2531 -0.9490  1.2491
14090TIP3    H263686   6.048   4.363   3.210  0.4717  0.5291 -0.2792
14091TIP3   OH263687   3.380   4.071  16.283 -0.3378 -0.1787 -0.5103
14091TIP3    H163688   3.408   4.066  16.374 -1.9744  1.2670  0.1199
14091TIP3    H263689   3.320   3.996  16.272 -0.2775 -0.2511 -0.3428
14092TIP3   OH263690   2.096   0.085   1.392  0.1207  0.9363  0.0123
14092TIP3    H163691   2.167   0.139   1.358  0.6075  0.7648  0.7282
14092TIP3    H263692   2.081   0.118   1.480  0.3065  0.0300  0.3932
14093TIP3   OH263693   1.270   3.601  13.370 -0.2134  0.0486 -0.1385
14093TIP3    H163694   1.234   3.635  13.289 -2.1439 -0.8547  0.2917
14093TIP3    H263695   1.364   3.620  13.365 -0.5302  1.2972 -1.9019
14094TIP3   OH263696   3.888   5.682  15.545  0.2074  0.5576 -0.1817
14094TIP3    H163697   3.843   5.608  15.504 -0.9172 -0.4949  2.6569
14094TIP3    H263698   3.938   5.643  15.616  1.2733  2.3473  0.1214
14095TIP3   OH263699   3.949   0.453  12.652 -0.3425 -0.1910 -0.4055
14095TIP3    H163700   3.881   0.510  12.618  0.6540  0.3002 -1.6560
14095TIP3    H263701   4.007   0.437  12.577  2.4312  1.5978  1.1494
14096TIP3   OH263702   0.037   0.512   2.111 -0.6541 -0.2591  0.2087
14096TIP3    H163703   0.028   0.598   2.152 -0.5912 -0.3462  0.4048
14096TIP3    H263704   0.035   0.450   2.184  0.2896 -0.3607  0.1641
14097TIP3   OH263705   6.613   6.590  12.603 -0.3577 -0.2562  0.7667
14097TIP3    H163706   6.609   6.504  12.644  1.0761 -0.8029 -0.1534
14097TIP3    H263707   6.629   6.572  12.510 -1.7406  0.9814  0.2433
14098TIP3   OH263708   0.694   3.839   5.307 -0.3912  0.7668 -0.2838
14098TIP3    H163709   0.649   3.766   5.350  1.8591 -0.6623 -0.1888
14098TIP3    H263710   0.661   3.837   5.217 -0.0463 -0.6866 -0.4043
14099TIP3   OH263711   1.668   3.806  11.843  0.0336  0.6120  0.1165
14099TIP3    H163712   1.665   3.769  11.755 -0.0850 -0.4890  0.5755
14099TIP3    H263713   1.582   3.844  11.856 -0.0930  0.3965 -0.0816
14100TIP3   OH263714   4.301   1.663  16.793  0.0643  0.5064 -0.0357
14100TIP3    H163715   4.286   1.612  16.873 -2.5418  0.3000 -0.5785
14100TIP3    H263716   4.324   1.598  16.727 -1.0970  0.2617 -0.2135
14101TIP3   OH263717   6.183   0.515  13.500  0.6419 -0.3114 -0.1108
14101TIP3    H163718   6.213   0.502  13.410 -0.3587 -1.2536 -0.3387
14101TIP3    H263719   6.087   0.514  13.493  0.5581 -0.5825  0.9848
14102TIP3   OH263720   3.665   5.554  15.020  0.4927  0.0564  0.6101
14102TIP3    H163721   3.725   5.480  15.006  1.3172  0.6338  0.9877
14102TIP3    H263722   3.581   5.513  15.041  0.6106 -0.7745 -0.4312
14103TIP3   OH263723   5.654   2.955  12.635  0.4344 -0.0164 -0.3417
14103TIP3    H163724   5.568   2.914  12.638  0.3140  0.1328 -1.3257
14103TIP3    H263725   5.681   2.962  12.726 -0.6054 -0.0391 -0.0227
14104TIP3   OH263726   3.931   0.783  13.924 -0.4587  0.0528  0.1234
14104TIP3    H163727   3.960   0.844  13.992 -1.1735  1.4945 -0.8078
14104TIP3    H263728   3.876   0.720  13.970 -1.3552  1.3059  0.8389
14105TIP3   OH263729   1.885   3.548   3.006  0.3808 -0.8903 -0.4434
14105TIP3    H163730   1.850   3.527   3.092  0.3906 -0.4172 -0.3188
14105TIP3    H263731   1.887   3.465   2.960  0.8914 -1.2471  0.2014
14106TIP3   OH263732   6.290   6.402  15.190 -0.3140 -0.5153  0.3390
14106TIP3    H163733   6.368   6.450  15.218  0.6532 -1.5005 -0.5892
14106TIP3    H263734   6.224   6.470  15.177  0.9128  0.5668 -0.5918
14107TIP3   OH263735   5.520   0.943  13.512 -0.1550 -0.4257 -0.0012
14107TIP3    H163736   5.555   0.940  13.601  3.3528  0.6178 -1.1890
14107TIP3    H263737   5.542   0.858  13.474  0.4152 -0.0619 -0.5145
14108TIP3   OH263738   5.087   0.112   3.992  0.2421  0.2393 -0.3834
14108TIP3    H163739   5.050   0.029   3.962  0.1108 -0.6225  1.9717
14108TIP3    H263740   5.034   0.178   3.949 -0.1822 -0.8850 -1.6831
14109TIP3   OH263741   3.825   2.718   4.037 -0.6766  0.0106 -0.6399
14109TIP3    H163742   3.759   2.649   4.031 -0.5733 -0.0872 -0.6761
14109TIP3    H263743   3.870   2.701   4.120 -0.3489 -0.2433 -0.8649
14110TIP3   OH263744   6.463   6.186   0.874 -0.0842  0.5883  0.2491
14110TIP3    H163745   6.437   6.277   0.863 -2.8910 -0.1028  0.1542
14110TIP3    H263746   6.532   6.171   0.810 -0.0308  2.4592 -0.1664
14111TIP3   OH263747   4.280   0.237   0.645  0.1240  0.0467  0.1614
14111TIP3    H163748   4.299   0.295   0.718  0.6450 -0.3981  0.3831
14111TIP3    H263749   4.331   0.271   0.572 -3.1079  2.7458 -1.1498
14112TIP3   OH263750   1.378   5.591  10.978  0.3040 -0.3923  0.4578
14112TIP3    H163751   1.375   5.496  10.987 -0.6986 -0.2553  1.9918
14112TIP3    H263752   1.306   5.613  10.919  0.1012 -0.5325  0.6532
14113TIP3   OH263753   3.940   4.164  14.253 -0.5438 -0.1329  0.6321
14113TIP3    H163754   3.943   4.244  14.306 -1.1046  0.6197 -0.4224
14113TIP3    H263755   4.032   4.145  14.234 -0.4382  0.7817  0.1649
14114TIP3   OH263756   6.019   2.060  15.857  0.8186 -0.3963 -0.2871
14114TIP3    H163757   5.964   1.989  15.824  2.6791 -2.3931  0.6715
14114TIP3    H263758   6.077   2.018  15.921  0.1289  2.5048  2.5125
14115TIP3   OH263759   0.125   5.143   1.284  0.5198 -0.6506  0.1717
14115TIP3    H163760   0.201   5.190   1.318  1.0994 -0.9887 -0.6134
14115TIP3    H263761   0.136   5.144   1.189 -0.4425 -0.7439  0.0419
14116TIP3   OH263762   4.749   1.077   1.636  0.0428  0.1786 -0.3543
14116TIP3    H163763   4.817   1.131   1.597  1.0448 -1.6693 -1.3199
14116TIP3    H263764   4.795   1.024   1.701 -0.0865 -2.1282 -2.0106
14117TIP3   OH263765   2.490   6.554  15.709 -0.7948  0.4527  0.7756
14117TIP3    H163766   2.483   6.582  15.618 -1.4954  0.8361  0.9375
14117TIP3    H263767   2.563   6.604  15.745 -1.0801  0.9569  0.6581
14118TIP3   OH263768   3.241   1.854  13.757  0.4514  0.1315  0.6480
14118TIP3    H163769   3.228   1.883  13.847 -0.3581 -1.2338  1.0093
14118TIP3    H263770   3.317   1.903  13.726  1.6351 -0.4019  2.5430
14119TIP3   OH263771   5.599   3.994   0.610 -0.0391  0.0459  0.6324
14119TIP3    H163772   5.663   3.924   0.617 -1.3303 -1.2850 -0.2150
14119TIP3    H263773   5.555   3.978   0.526  1.0684  3.1878 -0.6984
14120TIP3   OH263774   0.143   5.245   4.515  0.4162 -0.0506  0.2637
14120TIP3    H163775   0.086   5.178   4.478 -1.2252  0.5660  1.4835
14120TIP3    H263776   0.105   5.328   4.484  1.5765  0.3561 -0.1132
14121TIP3   OH263777   5.054   1.389   4.005  0.4463 -0.0789  0.1467
14121TIP3    H163778   5.131   1.405   3.951  1.1487 -0.9153  0.8700
14121TIP3    H263779   5.028   1.475   4.037  0.1283  0.4117 -1.3403
14122TIP3   OH263780   2.665   2.493   2.937 -0.1686  0.0829  0.1306
14122TIP3    H163781   2.647   2.579   2.976  0.4754  0.2988 -0.0335
14122TIP3    H263782   2.612   2.491   2.857 -0.0040  0.4227  0.0121
14123TIP3   OH263783   4.898   2.449  15.139  0.4603  0.1888 -0.0103
14123TIP3    H163784   4.954   2.440  15.216 -3.1179 -1.6265  2.6591
14123TIP3    H263785   4.819   2.490  15.172 -1.0859 -0.3292 -2.8107
14124TIP3   OH263786   1.381   4.425  11.013  0.9277  0.1308  0.3252
14124TIP3    H163787   1.290   4.396  11.002  1.5030 -2.1566  0.9714
14124TIP3    H263788   1.409   4.451  10.925  1.2119 -4.4060 -1.2114
14125TIP3   OH263789   6.736   4.229  12.284 -0.3738  0.5141 -0.1516
14125TIP3    H163790   6.790   4.186  12.351 -1.7623  0.3867  0.9248
14125TIP3    H263791   6.714   4.314  12.322 -1.8247  0.1290 -0.0934
14126TIP3   OH263792   0.774   0.758  13.033 -0.7405  0.1633  0.0531
14126TIP3    H163793   0.689   0.749  13.077 -0.8989  1.7204  0.1273
14126TIP3    H263794   0.775   0.848  13.001  0.5972 -0.0496 -0.5833
14127TIP3   OH263795   5.871   2.076   2.530  0.3273  0.5775  0.5091
14127TIP3    H163796   5.919   2.050   2.451  0.6107  2.2624  0.0853
14127TIP3    H263797   5.919   2.153   2.562  0.4836 -0.3177  2.5860
14128TIP3   OH263798   5.079   1.167   0.511  0.0527  0.4701  0.3159
14128TIP3    H163799   5.066   1.074   0.495  1.8654  0.4266 -1.3412
14128TIP3    H263800   5.121   1.171   0.597 -0.7431 -0.1628  0.7458
14129TIP3   OH263801   0.277   2.777  13.202  0.3785  0.5667 -1.0249
14129TIP3    H163802   0.285   2.845  13.135 -0.0962  0.9035 -0.7449
14129TIP3    H263803   0.190   2.739  13.188  0.7350 -0.1620 -1.3396
14130TIP3   OH263804   0.802   3.066  16.331 -0.1517  0.5482  0.3117
14130TIP3    H163805   0.840   3.018  16.257 -0.1911 -1.0243  1.2638
14130TIP3    H263806   0.720   3.102  16.296 -0.2043 -0.2388 -0.4093
14131TIP3   OH263807   1.436   5.619   2.102  0.1625 -0.5032  0.5844
14131TIP3    H163808   1.356   5.670   2.091  0.4025 -0.5636 -1.8455
14131TIP3    H263809   1.505   5.684   2.116  0.2746 -0.1796 -1.2795
14132TIP3   OH263810   1.885   3.769  13.183  0.0154 -0.0073  0.1211
14132TIP3    H163811   1.953   3.835  13.168  2.2882 -1.7032  2.1815
14132TIP3    H263812   1.886   3.715  13.105 -0.0467  0.8654 -0.4955
14133TIP3   OH263813   6.019   6.732  10.411 -0.0378 -0.1834 -0.4258
14133TIP3    H163814   5.961   6.769  10.344 -1.2384 -0.8353  0.2186
14133TIP3    H263815   6.000   6.639  10.410  1.0822 -0.4248 -0.2477
14134TIP3   OH263816   6.575   3.821   4.405 -0.5267 -0.7906  0.1893
14134TIP3    H163817   6.559   3.728   4.391  0.4488 -0.8959 -0.3179
14134TIP3    H263818   6.507   3.848   4.467 -1.6023 -1.5453 -0.6202
14135TIP3   OH263819   1.530   4.289   1.401  0.4242  0.1016 -0.2217
14135TIP3    H163820   1.575   4.240   1.471  0.1623 -1.6426 -1.2141
14135TIP3    H263821   1.448   4.242   1.387  0.5460  0.3152 -1.8176
14136TIP3   OH263822   6.677   0.099   2.042  0.1920  0.0682  0.0829
14136TIP3    H163823   6.611   0.165   2.061  0.3266 -0.4064  2.5744
14136TIP3    H263824   6.632   0.036   1.985 -1.0945  0.4136  0.6783
14137TIP3   OH263825   3.152   4.867   0.357  0.3685  0.6412 -0.3071
14137TIP3    H163826   3.227   4.920   0.384 -0.5217  2.4862 -1.2891
14137TIP3    H263827   3.131   4.897   0.268 -1.6544  0.3362  0.0076
14138TIP3   OH263828   1.722   2.346  14.136  0.0789  0.3428 -0.3076
14138TIP3    H163829   1.648   2.297  14.172 -0.6616  0.0213 -2.1545
14138TIP3    H263830   1.689   2.435  14.126  0.4475  0.5485  0.2385
14139TIP3   OH263831   3.482   1.975  15.321 -0.1172  0.3910 -0.4143
14139TIP3    H163832   3.523   1.920  15.388 -0.5343  1.5380  0.8215
14139TIP3    H263833   3.429   1.914  15.269  2.3441 -0.9997 -1.4989
14140TIP3   OH263834   1.088   0.625  15.104  0.1654  0.1519  0.1964
14140TIP3    H163835   1.150   0.603  15.035  0.1492 -0.6027  0.4120
14140TIP3    H263836   1.004   0.636  15.059 -0.0128 -1.1216  0.1670
14141TIP3   OH263837   6.746   6.379  10.924  0.9190  0.0398 -0.1231
14141TIP3    H163838   6.702   6.305  10.883  1.2701  0.1640 -0.7365
14141TIP3    H263839   6.734   6.365  11.018  1.9502 -1.3970 -0.1769
14142TIP3   OH263840   4.220   2.796   0.398 -0.6236 -0.1384  0.9685
14142TIP3    H163841   4.251   2.800   0.307 -2.2570  1.0738  0.4241
14142TIP3    H263842   4.192   2.705   0.410 -1.1686 -0.1119 -0.0201
14143TIP3   OH263843   3.379   2.079   0.053 -0.2148 -0.0401  0.4625
14143TIP3    H163844   3.297   2.034   0.075 -0.7092  1.0467  0.9265
14143TIP3    H263845   3.422   2.022  -0.010 -1.7030 -0.2678 -0.3858
14144TIP3   OH263846   3.102   3.668   3.032 -0.0901 -0.0511  0.0193
14144TIP3    H163847   3.149   3.612   3.094 -0.1179  1.0739  1.0793
14144TIP3    H263848   3.170   3.702   2.974 -0.2829 -2.6889 -1.9446
14145TIP3   OH263849   6.528   4.281   1.286 -0.1062 -0.2197 -0.2431
14145TIP3    H163850   6.504   4.300   1.377 -0.5329  1.4224 -0.6610
14145TIP3    H263851   6.457   4.225   1.254  0.2144 -1.0835  0.5136
14146TIP3   OH263852   2.334   2.831  15.431  0.2433  0.1296  0.0343
14146TIP3    H163853   2.376   2.917  15.437  0.3618  0.1672 -1.1392
14146TIP3    H263854   2.260   2.837  15.492  0.3812  0.9883  0.1360
14147TIP3   OH263855   6.584   3.430  12.909 -0.1230 -0.3500  0.2037
14147TIP3    H163856   6.544   3.358  12.862  1.1695 -0.0163 -1.5207
14147TIP3    H263857   6.677   3.426  12.886 -0.1326  2.3457 -0.6834
14148TIP3   OH263858   1.548   6.473   5.914  0.2909  0.5057  0.4016
14148TIP3    H163859   1.553   6.388   5.957  0.7811 -0.2377 -1.0465
14148TIP3    H263860   1.541   6.536   5.986 -0.5079 -0.7693  1.4947
14149TIP3   OH263861   6.340   4.748  12.733  0.0613  0.5176 -0.5479
14149TIP3    H163862   6.319   4.769  12.824  0.7955 -0.0088 -0.2514
14149TIP3    H263863   6.255   4.742  12.689 -0.3703 -0.5915  0.4049
14150TIP3   OH263864   2.929   0.124  14.543  0.6071 -0.0976  0.4339
14150TIP3    H163865   2.933   0.080  14.628  3.0182 -0.6922  0.0901
14150TIP3    H263866   3.014   0.107  14.503 -0.8910 -1.0740 -2.7341
14151TIP3   OH263867   0.904   3.196   1.900 -0.0946  0.2461  0.3530
14151TIP3    H163868   0.886   3.206   1.807 -0.7365 -0.9940  0.3320
14151TIP3    H263869   0.832   3.241   1.944  0.1885  0.7978  0.2685
14152TIP3   OH263870   4.441   0.106  16.320 -1.0573 -0.2252  0.1348
14152TIP3    H163871   4.388   0.133  16.395 -1.6398 -1.2264  0.0999
14152TIP3    H263872   4.498   0.037  16.355 -1.5100 -0.8774 -0.3831
14153TIP3   OH263873   2.683   5.127   1.191  0.4059  1.0056  0.3225
14153TIP3    H163874   2.648   5.093   1.274 -0.9225  1.3189 -0.0809
14153TIP3    H263875   2.770   5.089   1.184 -0.1553 -0.4831  0.9827
14154TIP3   OH263876   6.395   5.591  11.713 -0.2547 -0.1982 -0.0656
14154TIP3    H163877   6.381   5.549  11.628 -1.5258  0.4058 -0.1784
14154TIP3    H263878   6.474   5.549  11.748  0.6499 -0.0286 -1.7919
14155TIP3   OH263879   5.176   5.109   6.114 -0.0985  0.2439 -0.6171
14155TIP3    H163880   5.135   5.063   6.041 -2.3664  1.1091  0.0374
14155TIP3    H263881   5.118   5.092   6.188  0.1691  2.3658  0.1363
14156TIP3   OH263882   2.010   1.078  14.041  0.0845  0.2063 -0.0545
14156TIP3    H163883   2.033   1.145  13.976  1.6506  2.1117  2.2622
14156TIP3    H263884   1.930   1.111  14.082 -1.2560 -1.3030 -1.3403
14157TIP3   OH263885   0.996   4.157   2.245  0.2689  0.3755 -0.3053
14157TIP3    H163886   0.944   4.229   2.212  1.2577  0.3131 -2.1223
14157TIP3    H263887   1.085   4.192   2.252 -0.0255  0.7929  3.6971
14158TIP3   OH263888   2.452   6.605  11.020  0.1426 -0.0846 -0.6246
14158TIP3    H163889   2.438   6.600  11.115 -1.2085  0.0563 -0.8034
14158TIP3    H263890   2.378   6.559  10.983  0.7840 -0.3323 -1.6243
14159TIP3   OH263891   4.614   3.426  17.113 -0.1442 -0.3973 -0.1372
14159TIP3    H163892   4.681   3.363  17.088  1.5765  2.3063 -3.2173
14159TIP3    H263893   4.586   3.465  17.030 -2.6700  1.3787  1.4003
14160TIP3   OH263894   3.726   4.748  11.271 -0.3677 -0.0867  0.3430
14160TIP3    H163895   3.731   4.671  11.328 -1.6987 -0.3970  0.0819
14160TIP3    H263896   3.746   4.716  11.184 -0.7619 -0.1193  0.2600
14161TIP3   OH263897   4.277   4.453  14.639  0.4243 -0.1188 -0.3369
14161TIP3    H163898   4.271   4.495  14.725 -1.4083 -0.4440 -0.2699
14161TIP3    H263899   4.250   4.521  14.577 -0.1481 -0.4562 -0.4628
14162TIP3   OH263900   4.908   2.673   5.522  0.2854 -0.3090 -0.6137
14162TIP3    H163901   4.917   2.729   5.444  0.1738  0.4021 -0.1293
14162TIP3    H263902   4.830   2.621   5.506 -0.0280  0.1998 -0.7597
14163TIP3   OH263903   5.286   2.014  16.392 -0.1609 -0.1481  0.5657
14163TIP3    H163904   5.243   1.931  16.411 -0.7179 -0.1597 -0.6624
14163TIP3    H263905   5.379   1.997  16.406 -0.4197 -0.4508  2.0979
14164TIP3   OH263906   2.308   2.694   6.578 -0.0146  0.1452  0.2075
14164TIP3    H163907   2.299   2.605   6.544 -0.9603  0.3429 -0.0834
14164TIP3    H263908   2.403   2.707   6.587  0.2387 -0.1424 -1.7402
14165TIP3   OH263909   1.167   3.160  11.380  0.1117 -0.3058  0.6339
14165TIP3    H163910   1.087   3.210  11.370 -0.3974 -1.1556  0.3016
14165TIP3    H263911   1.214   3.171  11.297 -0.3646 -0.9759  0.2618
14166TIP3   OH263912   5.724   5.468   1.931  0.5126  0.1068 -0.2547
14166TIP3    H163913   5.769   5.384   1.926  0.0678 -0.1838  0.4563
14166TIP3    H263914   5.707   5.492   1.840  2.2041  0.3016 -0.5486
14167TIP3   OH263915   5.365   2.691   4.020 -0.1819 -0.7838 -0.3103
14167TIP3    H163916   5.406   2.678   3.935  0.0873  0.7044 -0.4277
14167TIP3    H263917   5.404   2.623   4.076  2.5505  0.5755 -0.3930
14168TIP3   OH263918   2.844   2.076   6.438 -0.2285  0.8521 -0.4203
14168TIP3    H163919   2.924   2.122   6.463  1.1401  0.2741 -3.3684
14168TIP3    H263920   2.867   1.983   6.443 -0.6784  0.6805 -1.3119
14169TIP3   OH263921   2.357   0.391  11.776  0.4152 -0.1022 -0.2919
14169TIP3    H163922   2.347   0.409  11.869 -3.0643  0.2924 -0.5981
14169TIP3    H263923   2.374   0.477  11.737 -2.3706  0.5178 -0.3477
14170TIP3   OH263924   3.811   0.111   1.165 -0.1908  0.1872 -0.8206
14170TIP3    H163925   3.734   0.146   1.121 -0.8780 -0.7354 -0.3767
14170TIP3    H263926   3.870   0.087   1.094  0.5222  2.6226 -1.1431
14171TIP3   OH263927   2.319   0.108  14.968  0.4209  0.1731  0.9538
14171TIP3    H163928   2.340   0.187  15.017  1.1976  0.5989 -0.0287
14171TIP3    H263929   2.340   0.130  14.877  0.5696 -1.1334  0.6533
14172TIP3   OH263930   6.086   5.544   3.359 -0.3731 -0.0922 -0.5344
14172TIP3    H163931   6.110   5.463   3.403 -0.4907  0.0052 -0.2915
14172TIP3    H263932   6.023   5.586   3.417  0.7020  0.8235  0.0091
14173TIP3   OH263933   0.372   1.340   6.395 -0.3042  0.0196  0.1008
14173TIP3    H163934   0.412   1.424   6.374 -0.7228  0.1106 -0.3672
14173TIP3    H263935   0.282   1.347   6.362  0.0809 -1.1447 -1.3385
14174TIP3   OH263936   2.970   3.159  11.647  0.0858  0.2650  0.0971
14174TIP3    H163937   2.960   3.066  11.667 -2.4335  1.1141  3.8924
14174TIP3    H263938   2.881   3.194  11.650  1.0109  2.9191 -0.6819
14175TIP3   OH263939   4.158   6.174   0.834 -0.0253 -1.2226 -0.0821
14175TIP3    H163940   4.166   6.083   0.862 -1.2586 -1.0082  1.0591
14175TIP3    H263941   4.201   6.177   0.749  1.6717 -2.4527  0.6698
14176TIP3   OH263942   1.679   6.303  12.582  0.2735  0.3455 -0.2895
14176TIP3    H163943   1.629   6.345  12.513  2.1202  1.3795 -1.0681
14176TIP3    H263944   1.712   6.376  12.636 -0.3503 -0.3879  1.1452
14177TIP3   OH263945   6.673   0.210  14.771 -0.0940 -0.3017 -0.0951
14177TIP3    H163946   6.727   0.131  14.766 -0.8663 -0.8492  0.0792
14177TIP3    H263947   6.715   0.263  14.839  1.7701  0.4974 -1.7713
14178TIP3   OH263948   2.497   5.044  12.916  0.1155  0.8751  0.1424
14178TIP3    H163949   2.416   5.034  12.866 -1.0652  1.3382  1.8592
14178TIP3    H263950   2.475   5.013  13.004  2.0042  0.4288  0.4972
14179TIP3   OH263951   0.533   1.110   5.355  0.2556 -0.8677 -0.5674
14179TIP3    H163952   0.481   1.080   5.281  0.4878  0.3145 -1.2320
14179TIP3    H263953   0.494   1.194   5.379  0.3599 -1.1087  0.4805
14180TIP3   OH263954   4.340   6.545  11.048  0.9312 -0.3546 -0.6403
14180TIP3    H163955   4.405   6.581  10.988  1.0476  0.4827 -0.0381
14180TIP3    H263956   4.318   6.459  11.012  2.6013 -0.7928 -0.6722
14181TIP3   OH263957   2.817   1.572   2.710 -0.3797 -0.3625  0.0099
14181TIP3    H163958   2.807   1.616   2.794 -1.0263 -0.4555 -0.0147
14181TIP3    H263959   2.799   1.640   2.645 -0.2836 -0.3915 -0.0478
14182TIP3   OH263960   3.592   1.078  15.621  0.7194 -0.0355  0.0995
14182TIP3    H163961   3.683   1.049  15.612  1.2342  1.3831  0.4824
14182TIP3    H263962   3.596   1.149  15.685 -1.0954 -1.9821  2.5705
14183TIP3   OH263963   0.440   0.778   0.225  0.5311 -0.4427 -0.4092
14183TIP3    H163964   0.393   0.859   0.244  1.3276 -0.1464  0.3596
14183TIP3    H263965   0.498   0.765   0.300  0.8007 -1.4414 -0.7709
14184TIP3   OH263966   6.248   0.339   1.422  0.2879 -0.4830  0.3834
14184TIP3    H163967   6.162   0.299   1.418  0.0137  0.1685 -1.8183
14184TIP3    H263968   6.237   0.415   1.478 -0.2867 -0.9901  0.9726
14185TIP3   OH263969   5.923   0.501   1.217  0.0886  0.0471  0.6563
14185TIP3    H163970   5.837   0.512   1.177 -0.2884  0.5898  1.5685
14185TIP3    H263971   5.974   0.451   1.153 -0.5674  0.6359 -0.3514
14186TIP3   OH263972   5.840   2.576   5.552 -0.3866 -0.3135  0.3437
14186TIP3    H163973   5.870   2.624   5.629 -0.1694  0.8958 -0.4755
14186TIP3    H263974   5.776   2.513   5.586 -0.3326  0.2414  1.4948
14187TIP3   OH263975   2.361   3.115  13.706 -0.1235 -0.2890 -0.5811
14187TIP3    H163976   2.390   3.149  13.791 -2.5106 -1.1331  0.6847
14187TIP3    H263977   2.440   3.077  13.667  0.9471 -0.4050  1.5359
14188TIP3   OH263978   3.286   2.868  13.054 -0.3803 -1.0635 -0.1971
14188TIP3    H163979   3.336   2.874  13.135 -0.7721 -0.6045  0.0140
14188TIP3    H263980   3.281   2.774  13.035 -0.0461 -1.1529  0.1548
14189TIP3   OH263981   3.269   0.391   2.484  0.4638  0.2163  0.1765
14189TIP3    H163982   3.194   0.357   2.436 -0.5458  1.3035  0.9044
14189TIP3    H263983   3.277   0.481   2.454  1.2968  0.1959  0.3267
14190TIP3   OH263984   1.310   5.172   5.533 -0.5912  0.5063  0.5415
14190TIP3    H163985   1.237   5.111   5.522 -1.6672  1.7505  0.5297
14190TIP3    H263986   1.344   5.184   5.444 -0.5577  0.1480  0.5037
14191TIP3   OH263987   0.312   2.375   0.003 -0.0444  0.2011 -0.4060
14191TIP3    H163988   0.249   2.320   0.050  0.8557 -0.6175 -0.1386
14191TIP3    H263989   0.318   2.336  -0.084  0.7121 -0.2372 -0.1670
14192TIP3   OH263990   1.943   5.537   2.345 -0.4381  0.4704  0.1010
14192TIP3    H163991   2.003   5.584   2.287 -0.2377  1.7584  1.2964
14192TIP3    H263992   1.865   5.591   2.350 -0.3056  0.5902  1.3047
14193TIP3   OH263993   2.507   4.489   3.843 -0.1637  0.4196 -0.8338
14193TIP3    H163994   2.500   4.492   3.748 -1.0679 -0.4683 -0.8186
14193TIP3    H263995   2.417   4.502   3.874 -0.1905 -1.1204 -0.1773
14194TIP3   OH263996   4.643   1.606   4.337  0.6575 -0.6318  0.4536
14194TIP3    H163997   4.667   1.691   4.374 -0.7658  0.2385 -0.5162
14194TIP3    H263998   4.604   1.558   4.411 -2.4830  1.2133  0.1669
14195TIP3   OH263999   2.456   5.894   0.479  0.3516  0.0569  0.0261
14195TIP3    H164000   2.389   5.958   0.501  0.3726  0.4847 -1.1214
14195TIP3    H264001   2.481   5.856   0.564  0.7706  1.9708  0.8243
14196TIP3   OH264002   4.163   5.734   2.578 -0.3987  0.1821  0.2337
14196TIP3    H164003   4.191   5.646   2.552 -2.0510  0.3708 -2.4815
14196TIP3    H264004   4.237   5.768   2.628  1.0893 -2.0093 -0.3238
14197TIP3   OH264005   5.413   0.243   0.290 -0.0921  0.3177 -0.0802
14197TIP3    H164006   5.364   0.164   0.270  1.1121 -0.1692 -1.2849
14197TIP3    H264007   5.439   0.233   0.381  0.1996 -0.7695 -0.2686
14198TIP3   OH264008   4.503   0.284   4.881 -0.5658  0.3274  0.8325
14198TIP3    H164009   4.451   0.255   4.955  0.3380  1.0650  1.7913
14198TIP3    H264010   4.496   0.379   4.882  0.1494  0.3954  0.5093
14199TIP3   OH264011   3.116   4.141  13.438 -0.2782 -0.0678 -0.3538
14199TIP3    H164012   3.155   4.058  13.408 -2.4106 -0.5753 -1.9402
14199TIP3    H264013   3.159   4.208  13.384  2.0178  0.0391  1.4630
14200TIP3   OH264014   0.248   5.206   1.860 -0.8302 -0.4047  0.0989
14200TIP3    H164015   0.186   5.138   1.887 -0.8697 -2.0334 -3.5307
14200TIP3    H264016   0.195   5.285   1.851 -1.6501 -0.9041  0.4280
14201TIP3   OH264017   0.864   0.666   4.348  0.1112 -0.0326 -0.4658
14201TIP3    H164018   0.816   0.585   4.330 -0.0490 -0.2068  0.6629
14201TIP3    H264019   0.911   0.685   4.267  1.2646 -2.0236 -0.3098
14202TIP3   OH264020   4.341   3.227  15.323 -0.3853 -0.0222 -0.5509
14202TIP3    H164021   4.432   3.197  15.321 -0.3510  0.0817 -0.5608
14202TIP3    H264022   4.329   3.273  15.240  0.0567  1.4353  0.1626
14203TIP3   OH264023   6.538   2.014   1.569  0.1081 -0.1119  0.5529
14203TIP3    H164024   6.626   2.019   1.606  0.0772  0.0363  0.6091
14203TIP3    H264025   6.528   1.923   1.541  0.8482  0.2159 -0.8778
14204TIP3   OH264026   3.539   3.635   3.031  0.4142  0.1598 -0.2849
14204TIP3    H164027   3.525   3.541   3.021 -0.1873 -0.0341  1.9678
14204TIP3    H264028   3.502   3.657   3.116  2.4191  2.0651  0.1998
14205TIP3   OH264029   1.734   1.951  11.057 -0.4797 -0.7539  0.3761
14205TIP3    H164030   1.782   1.905  11.126  0.0180 -0.4553  0.2414
14205TIP3    H264031   1.786   1.936  10.978 -0.9213 -0.9041  0.1106
14206TIP3   OH264032   2.262   3.036  14.978 -0.1602 -0.5811  0.0785
14206TIP3    H164033   2.269   2.942  14.992 -0.8197 -0.8496 -1.2221
14206TIP3    H264034   2.281   3.048  14.885  1.0085  0.7159  0.4354
14207TIP3   OH264035   0.231   6.690  14.726  0.0622  0.1067  0.6742
14207TIP3    H164036   0.324   6.710  14.715  0.1304 -0.3169  0.4463
14207TIP3    H264037   0.225   6.596  14.708 -0.6900  0.4651 -1.2119
14208TIP3   OH264038   6.789   1.343   5.994 -0.2925  0.0685  0.1953
14208TIP3    H164039   6.694   1.351   6.004 -0.1692  1.3009  0.4596
14208TIP3    H264040   6.816   1.291   6.070 -0.6176  0.6964  0.7531
14209TIP3   OH264041   3.753   4.096  15.041  0.4696  0.4231  0.5623
14209TIP3    H164042   3.702   4.135  15.112 -1.2124 -0.5480 -0.0582
14209TIP3    H264043   3.717   4.008  15.032  1.0755  0.3225 -1.0832
14210TIP3   OH264044   1.625   0.009   3.768 -0.1767 -0.0709 -0.3546
14210TIP3    H164045   1.603   0.100   3.787  0.5282  0.5222 -2.1518
14210TIP3    H264046   1.697   0.014   3.705 -0.1196 -1.8700 -0.4971
14211TIP3   OH264047   2.995   5.470   5.065  0.5232  0.6557  0.2494
14211TIP3    H164048   3.003   5.374   5.065 -0.6866  0.5464  0.4687
14211TIP3    H264049   2.937   5.489   4.991  0.1552  1.1648  0.6633
14212TIP3   OH264050   4.413   5.701   4.785 -0.5632  0.3135  0.0220
14212TIP3    H164051   4.426   5.728   4.876 -0.9859  0.4737  0.0370
14212TIP3    H264052   4.437   5.778   4.733  2.9688 -0.7794 -0.2097
14213TIP3   OH264053   5.516   1.784  14.778  0.1694  0.0283 -0.0350
14213TIP3    H164054   5.575   1.715  14.751  1.1388  1.0339 -0.5481
14213TIP3    H264055   5.526   1.788  14.873  0.0788 -0.5455  0.0029
14214TIP3   OH264056   0.092   2.926  10.982 -0.3511  0.3034  0.3170
14214TIP3    H164057   0.180   2.937  10.948 -0.3363  0.3923  0.3847
14214TIP3    H264058   0.035   2.960  10.912 -0.3073  0.7739  0.5086
14215TIP3   OH264059   4.335   6.234   4.062 -0.2252 -0.2619  0.2374
14215TIP3    H164060   4.378   6.214   4.145  0.2073  1.3447  0.4213
14215TIP3    H264061   4.339   6.329   4.055 -0.7774 -0.3337 -1.3536
14216TIP3   OH264062   2.301   1.628  14.244  0.0641  1.2581  0.4048
14216TIP3    H164063   2.311   1.540  14.280  1.4301  1.4428  0.5106
14216TIP3    H264064   2.245   1.615  14.167 -0.4489  0.4382  0.8924
14217TIP3   OH264065   5.259   2.526  16.600 -0.4753 -1.0175 -0.8747
14217TIP3    H164066   5.206   2.605  16.610 -0.6409 -1.2758  0.5731
14217TIP3    H264067   5.349   2.557  16.602 -0.5466 -0.7659 -1.3931
14218TIP3   OH264068   5.857   1.481   1.426 -1.2043 -0.0660  0.5131
14218TIP3    H164069   5.831   1.552   1.484 -0.6595 -1.1197  2.1245
14218TIP3    H264070   5.909   1.422   1.481 -0.0776 -0.7901 -1.2128
14219TIP3   OH264071   1.664   6.099  15.571  0.1339 -0.1127 -0.3459
14219TIP3    H164072   1.719   6.174  15.596 -0.6398  0.5274 -0.5024
14219TIP3    H264073   1.644   6.056  15.654  0.2013  0.1316 -0.1991
14220TIP3   OH264074   1.661   1.882   5.072 -0.0953  0.3492 -0.4312
14220TIP3    H164075   1.679   1.941   4.999 -0.9931 -0.4649 -1.3408
14220TIP3    H264076   1.684   1.795   5.040  0.1557  0.0664  0.4988
14221TIP3   OH264077   5.321   6.167  14.285 -0.2332  0.5344 -0.5546
14221TIP3    H164078   5.289   6.168  14.375  1.2457  0.2432  0.0038
14221TIP3    H264079   5.378   6.244  14.279  0.6283 -0.1147 -0.8554
14222TIP3   OH264080   2.699   6.270   4.803 -0.8132 -0.3653  0.3514
14222TIP3    H164081   2.626   6.331   4.812 -0.8455  0.2184 -2.7802
14222TIP3    H264082   2.656   6.185   4.787 -0.8703 -0.0520 -1.3228
14223TIP3   OH264083   6.610   5.297   2.766 -0.1012 -0.0599 -0.4464
14223TIP3    H164084   6.683   5.236   2.760 -1.3809 -2.0733  2.2640
14223TIP3    H264085   6.533   5.242   2.780 -1.6595  2.1003  0.0950
14224TIP3   OH264086   1.376   1.337   5.644  0.5707 -0.0360  0.3707
14224TIP3    H164087   1.319   1.409   5.616 -0.9446 -2.0649 -2.2349
14224TIP3    H264088   1.334   1.302   5.722  0.3694  0.7997  0.6548
14225TIP3   OH264089   3.418   5.606  16.361  0.6925  0.3282  0.1061
14225TIP3    H164090   3.381   5.576  16.444 -1.5454  0.2988 -0.8363
14225TIP3    H264091   3.483   5.539  16.338  0.7123 -0.1175  1.3828
14226TIP3   OH264092   0.597   6.217   4.138 -0.2546  0.1415 -0.3646
14226TIP3    H164093   0.625   6.132   4.171 -1.7598  0.6363  2.5606
14226TIP3    H264094   0.573   6.201   4.047 -0.9240 -2.6997  0.2193
14227TIP3   OH264095   1.135   5.130   4.309  0.5937  0.2604  0.0471
14227TIP3    H164096   1.157   5.193   4.377  0.1539  0.1417  0.3044
14227TIP3    H264097   1.212   5.073   4.303  0.9606  0.7638 -0.1293
14228TIP3   OH264098   4.407   3.978   1.629  0.0017  0.2504  0.3084
14228TIP3    H164099   4.370   4.016   1.708 -0.2509  1.1401 -0.2257
14228TIP3    H264100   4.332   3.942   1.582 -0.0241  0.8951 -0.1528
14229TIP3   OH264101   1.838   2.767   4.879  0.1822 -0.4008  0.0657
14229TIP3    H164102   1.875   2.854   4.862  1.1246 -0.7100  0.4612
14229TIP3    H264103   1.909   2.719   4.922 -0.4435 -1.2597  0.1620
14230TIP3   OH264104   0.050   4.196   4.814 -0.6355  0.2903 -0.5284
14230TIP3    H164105  -0.027   4.252   4.820 -0.6423  0.3957 -1.4042
14230TIP3    H264106   0.099   4.213   4.894 -1.0990  0.8594 -0.3615
14231TIP3   OH264107   6.415   2.718   6.193  0.4537  0.4580  0.0360
14231TIP3    H164108   6.325   2.714   6.159 -1.0658  1.4296  3.4425
14231TIP3    H264109   6.428   2.634   6.237  0.8971  0.6297  0.2400
14232TIP3   OH264110   5.761   3.734   2.813 -0.5542 -1.0730  0.1597
14232TIP3    H164111   5.824   3.732   2.884  0.2205 -1.5169 -0.5280
14232TIP3    H264112   5.813   3.720   2.734 -1.1922  0.8299 -0.6534
14233TIP3   OH264113   5.603   5.413  13.633  0.3603 -0.3204  0.2442
14233TIP3    H164114   5.661   5.489  13.627 -2.0443  1.6852  0.5361
14233TIP3    H264115   5.515   5.449  13.617 -1.1864 -2.6122  2.7122
14234TIP3   OH264116   5.223   0.689  12.130 -0.2736  0.2878  0.4923
14234TIP3    H164117   5.289   0.740  12.177  0.2288 -0.9541  1.1597
14234TIP3    H264118   5.268   0.609  12.104 -0.9925  0.2644 -0.7394
14235TIP3   OH264119   3.287   3.117  16.371 -0.5344 -0.3305  0.0696
14235TIP3    H164120   3.282   3.069  16.454  0.8742  0.4957  0.6703
14235TIP3    H264121   3.228   3.192  16.383  1.3655  1.0570  1.2614
14236TIP3   OH264122   5.208   6.104  15.768 -0.2519  0.3820 -0.1635
14236TIP3    H164123   5.289   6.146  15.740  0.5917  0.8300  2.6209
14236TIP3    H264124   5.217   6.013  15.741  0.6715  0.6655 -0.8651
14237TIP3   OH264125   3.354   2.918  12.794 -0.1221  0.2833  0.6075
14237TIP3    H164126   3.446   2.943  12.799  0.4454 -1.3190 -0.8062
14237TIP3    H264127   3.330   2.896  12.884  0.9113  0.6233  0.9793
14238TIP3   OH264128   4.035   0.231   2.305 -0.2122  0.6515 -0.5914
14238TIP3    H164129   4.003   0.271   2.387  1.5467  0.1441  0.4031
14238TIP3    H264130   3.957   0.221   2.251 -1.4550  0.8763  1.0848
14239TIP3   OH264131   3.573   0.367   0.081  0.5989  0.0932 -0.1208
14239TIP3    H164132   3.652   0.412   0.050  0.9027  1.0968  1.9200
14239TIP3    H264133   3.545   0.418   0.158 -1.0009 -1.2895  0.2701
14240TIP3   OH264134   0.277   4.411   5.994 -0.9448  0.2125  0.3489
14240TIP3    H164135   0.243   4.324   5.972  0.7068 -0.5456  0.6436
14240TIP3    H264136   0.278   4.413   6.090 -0.0685  0.1638  0.3491
14241TIP3   OH264137   2.466   5.815   5.362 -0.5198 -0.1794  0.1171
14241TIP3    H164138   2.412   5.776   5.431 -1.3984 -0.6054 -0.7870
14241TIP3    H264139   2.407   5.823   5.287  0.5533 -0.2280 -0.7555
14242TIP3   OH264140   3.968   0.775  15.773 -0.4398  0.1988  0.1526
14242TIP3    H164141   4.044   0.764  15.716  0.6582 -1.2827  1.8335
14242TIP3    H264142   3.893   0.749  15.718  0.6231 -1.6815 -0.4945
14243TIP3   OH264143   2.305   3.410   3.431 -0.0989 -0.3668 -0.0466
14243TIP3    H164144   2.300   3.367   3.516  0.9680 -0.4684 -0.0160
14243TIP3    H264145   2.287   3.502   3.450  0.9384 -0.2443  0.4435
14244TIP3   OH264146   3.752   1.540   4.425  0.1143  0.4520  0.3220
14244TIP3    H164147   3.738   1.451   4.394  1.6281  0.0493  0.6970
14244TIP3    H264148   3.712   1.543   4.512 -0.3705  0.2927  0.1060
14245TIP3   OH264149   2.748   1.776   0.782 -0.1769 -0.1574 -0.4668
14245TIP3    H164150   2.828   1.772   0.835 -0.9101 -0.3247  0.6655
14245TIP3    H264151   2.753   1.859   0.736  0.9432 -0.4477 -0.9057
14246TIP3   OH264152   2.741   4.886  16.669  0.0903  0.4772 -0.6419
14246TIP3    H164153   2.648   4.892  16.690  0.3018 -0.0875  0.5289
14246TIP3    H264154   2.782   4.955  16.721  0.2914  0.9759 -1.4459
14247TIP3   OH264155   6.462   1.867   2.546  0.3664 -0.2095  0.0188
14247TIP3    H164156   6.380   1.851   2.591  0.3286 -0.8501 -0.2697
14247TIP3    H264157   6.517   1.791   2.568  0.5175 -0.2886 -0.6053
14248TIP3   OH264158   2.556   1.719   3.212  0.2055 -0.5979 -0.0070
14248TIP3    H164159   2.631   1.776   3.227  0.2327 -1.1015  2.0561
14248TIP3    H264160   2.594   1.633   3.196  0.0886 -0.9863  1.6835
14249TIP3   OH264161   0.673   3.202   1.665 -0.5159  0.3103  0.1231
14249TIP3    H164162   0.631   3.220   1.581  1.1936  0.5732 -0.7178
14249TIP3    H264163   0.601   3.203   1.728 -1.6125  2.0234 -1.0521
14250TIP3   OH264164   6.271   1.306  12.138  0.2680  0.1780 -0.0097
14250TIP3    H164165   6.286   1.211  12.135  1.3841  0.3650 -1.7891
14250TIP3    H264166   6.197   1.320  12.079  1.0915  0.5634 -0.9620
14251TIP3   OH264167   5.739   2.289   0.605 -0.4822  0.2876  0.1670
14251TIP3    H164168   5.679   2.252   0.540  1.1420  2.0721 -2.5755
14251TIP3    H264169   5.826   2.266   0.573  0.3995 -0.1461  2.6955
14252TIP3   OH264170   4.449   0.962  11.917  0.5833 -0.1049 -0.4260
14252TIP3    H164171   4.454   0.972  11.821 -1.8824  1.5009 -0.4939
14252TIP3    H264172   4.364   0.920  11.932  1.4567 -1.4309  1.0466
14253TIP3   OH264173   0.470   2.797   0.554 -0.4690 -0.4206  0.4783
14253TIP3    H164174   0.489   2.769   0.464  0.6398  1.1849  0.1543
14253TIP3    H264175   0.394   2.854   0.546 -0.5212 -0.4751  0.5900
14254TIP3   OH264176   5.443   3.480  15.255 -0.0630  0.0591  0.0701
14254TIP3    H164177   5.424   3.444  15.169 -0.3469 -2.8605  1.2402
14254TIP3    H264178   5.506   3.550  15.238 -1.5601  0.9050 -2.6315
14255TIP3   OH264179   4.912   2.563  11.335 -0.5409  0.1221  0.3494
14255TIP3    H164180   4.935   2.653  11.358 -0.1632 -0.1701  1.1618
14255TIP3    H264181   4.907   2.563  11.240  1.6921  0.4750  0.1883
14256TIP3   OH264182   2.181   6.435  17.048  0.4217  0.1050 -0.5248
14256TIP3    H164183   2.201   6.529  17.053  0.2203  0.1293 -0.1053
14256TIP3    H264184   2.158   6.411  17.138 -0.3433 -0.1605 -0.7804
14257TIP3   OH264185   0.498   0.025  12.051 -0.1781  0.1177 -0.5831
14257TIP3    H164186   0.501   0.049  12.144  3.1245 -2.4643  0.2151
14257TIP3    H264187   0.547   0.094  12.007 -0.4080  0.5642 -0.1529
14258TIP3   OH264188   0.559   4.897  16.646 -0.2906  0.0507 -0.1856
14258TIP3    H164189   0.639   4.871  16.601 -0.1994 -0.8248  0.4365
14258TIP3    H264190   0.545   4.827  16.711  0.0159  1.6448  1.6844
14259TIP3   OH264191   3.159   1.467  11.633 -0.1791 -0.0766 -0.0772
14259TIP3    H164192   3.151   1.372  11.647 -2.0405 -0.0473 -0.6507
14259TIP3    H264193   3.231   1.476  11.572 -0.2145 -1.1705 -0.3014
14260TIP3   OH264194   1.655   4.312  16.252  0.0822 -0.1163 -0.0298
14260TIP3    H164195   1.577   4.295  16.306  0.8053  0.2945  1.1923
14260TIP3    H264196   1.636   4.270  16.169 -0.4675 -2.0838  1.0248
14261TIP3   OH264197   5.672   5.003   0.187 -1.1016  0.7377  0.0552
14261TIP3    H164198   5.580   4.982   0.169 -1.0275  0.2092  0.2834
14261TIP3    H264199   5.671   5.097   0.207 -1.5034  0.8658 -0.5271
14262TIP3   OH264200   5.586   1.973  16.454  0.2443  0.3452  0.6851
14262TIP3    H164201   5.606   2.064  16.475  1.7109 -0.1229  1.4868
14262TIP3    H264202   5.613   1.962  16.363 -1.1429  1.0045  0.1547
14263TIP3   OH264203   2.963   0.451  13.885  0.2968 -0.0348 -0.1056
14263TIP3    H164204   2.929   0.464  13.974  2.3288  3.4174  0.3724
14263TIP3    H264205   3.058   0.441  13.897  0.5309 -0.2593 -1.8394
14264TIP3   OH264206   0.126   0.018   1.637  0.1646  0.1210 -0.9773
14264TIP3    H164207   0.146  -0.009   1.548  1.0181  0.6572 -0.9682
14264TIP3    H264208   0.031   0.022   1.641 -0.1019 -3.4794 -0.7738
14265TIP3   OH264209   5.121   4.534   6.443 -0.4638 -0.1915 -0.0831
14265TIP3    H164210   5.187   4.571   6.501  0.9008 -0.0550 -1.6532
14265TIP3    H264211   5.059   4.490   6.502  1.5941 -1.2427  1.4051
14266TIP3   OH264212   6.701   4.478  16.801  0.0189  0.0295  0.0795
14266TIP3    H164213   6.707   4.475  16.896  0.0095  1.2774  0.1285
14266TIP3    H264214   6.757   4.551  16.775 -0.7520  0.3352 -0.7969
14267TIP3   OH264215   3.709   6.137  17.085  0.1456  0.6194 -0.0094
14267TIP3    H164216   3.635   6.182  17.044  0.0227  0.6347  0.2308
14267TIP3    H264217   3.780   6.147  17.022 -0.2081  0.1292 -0.4949
14268TIP3   OH264218   4.052   3.348   5.464  0.3015  0.4067  0.3066
14268TIP3    H164219   4.051   3.261   5.425 -0.5872  0.4801  0.1514
14268TIP3    H264220   4.030   3.407   5.391 -0.0540  0.6721  0.6267
14269TIP3   OH264221   5.027   6.168   1.754 -0.1803  0.3948 -0.7335
14269TIP3    H164222   5.107   6.134   1.715  0.3889  0.0706  0.6449
14269TIP3    H264223   5.056   6.220   1.829 -1.2476 -0.0865  0.0571
14270TIP3   OH264224   0.835   4.578   4.177  0.2260 -0.3463  0.1391
14270TIP3    H164225   0.888   4.566   4.098 -1.0321  1.0075 -0.9611
14270TIP3    H264226   0.771   4.507   4.174 -0.1141 -0.0214 -0.3093
14271TIP3   OH264227   6.557   5.215  17.030  0.3414 -0.2854  0.0996
14271TIP3    H164228   6.599   5.139  16.990  0.1167 -0.5974  0.4568
14271TIP3    H264229   6.502   5.179  17.099  2.7084  0.4145  2.4771
14272TIP3   OH264230   2.988   4.290  12.174 -0.2240 -0.6289 -0.0865
14272TIP3    H164231   3.078   4.283  12.206 -0.1804  0.1330 -0.0349
14272TIP3    H264232   2.991   4.360  12.108 -0.6950 -0.8920 -0.3977
14273TIP3   OH264233   2.550   3.819   5.478 -0.1424 -0.0400 -0.2449
14273TIP3    H164234   2.474   3.876   5.480  0.1367  0.3694 -0.9845
14273TIP3    H264235   2.515   3.733   5.453 -0.4533 -0.0232  0.1222
14274TIP3   OH264236   3.528   1.818  12.339  0.0491  0.0133 -0.5735
14274TIP3    H164237   3.520   1.913  12.332  0.7297  0.1398  0.2392
14274TIP3    H264238   3.604   1.804  12.396  1.5800 -1.0562 -2.7726
14275TIP3   OH264239   5.382   3.180   0.301 -0.5416 -0.0034  0.1375
14275TIP3    H164240   5.443   3.137   0.361 -1.5558 -1.3067  0.2713
14275TIP3    H264241   5.398   3.139   0.216 -0.2627  0.6708 -0.1497
14276TIP3   OH264242   3.544   0.367  12.669 -0.3892 -0.2784  0.3986
14276TIP3    H164243   3.603   0.295  12.647  0.7009  0.5724  0.4584
14276TIP3    H264244   3.579   0.403  12.750 -1.3256 -0.0939  0.7418
14277TIP3   OH264245   0.189   1.106  15.854  0.3497  0.0850  0.4232
14277TIP3    H164246   0.138   1.027  15.870  0.9186 -0.9544 -2.4108
14277TIP3    H264247   0.225   1.129  15.940 -3.4110 -0.0540  2.2560
14278TIP3   OH264248   3.094   4.080  12.687  0.0429 -0.3629  0.7190
14278TIP3    H164249   3.001   4.096  12.671 -0.3034 -2.0608  0.9412
14278TIP3    H264250   3.115   4.004  12.633  1.1148 -0.4594  1.2605
14279TIP3   OH264251   6.402   5.826  15.566  0.4885 -0.2801  0.4657
14279TIP3    H164252   6.485   5.779  15.560  0.9305  0.4540  0.6211
14279TIP3    H264253   6.383   5.854  15.476  1.8595  1.9223  0.7653
14280TIP3   OH264254   3.187   5.695   0.805  0.0603 -0.0908  0.5363
14280TIP3    H164255   3.260   5.690   0.867  0.8508  0.2039 -0.3447
14280TIP3    H264256   3.221   5.747   0.732 -0.5210 -1.2044 -0.5700
14281TIP3   OH264257   1.940   3.011   4.703 -0.5539 -0.7701  0.2709
14281TIP3    H164258   1.977   2.984   4.619  1.0310  0.9531  0.3460
14281TIP3    H264259   1.890   3.091   4.683  0.0761 -0.1774  0.9760
14282TIP3   OH264260   5.406   3.633   5.926  0.0654  0.3960 -0.3558
14282TIP3    H164261   5.397   3.638   6.021 -0.8168  1.0599 -0.4568
14282TIP3    H264262   5.340   3.570   5.899  0.9644 -0.5309 -0.4629
14283TIP3   OH264263   4.336   0.976  11.105 -0.1653  0.0531 -0.7498
14283TIP3    H164264   4.421   0.960  11.145 -1.0234 -0.0927  1.1029
14283TIP3    H264265   4.321   0.900  11.049  1.2828  0.5095 -1.8390
14284TIP3   OH264266   0.657   5.540  11.130 -0.0883 -0.4362  0.4373
14284TIP3    H164267   0.564   5.529  11.113 -0.4968  0.3349  1.9571
14284TIP3    H264268   0.691   5.585  11.052 -1.3902  0.9917  0.6405
14285TIP3   OH264269   5.395   0.152   2.859  0.2490  0.3932  0.0239
14285TIP3    H164270   5.317   0.110   2.821  1.0144 -1.1249  0.0543
14285TIP3    H264271   5.408   0.107   2.942  1.0031  0.8142  0.1383
14286TIP3   OH264272   2.407   0.887  12.905  0.5447  0.1272 -0.1678
14286TIP3    H164273   2.489   0.867  12.860 -0.2600 -1.0896 -1.1518
14286TIP3    H264274   2.375   0.967  12.864  1.4465  0.8690  0.5373
14287TIP3   OH264275   0.621   2.322   5.625  0.1506  0.2908 -0.3098
14287TIP3    H164276   0.669   2.299   5.546 -0.4457 -1.2777 -0.2572
14287TIP3    H264277   0.686   2.361   5.683  0.6232  1.3392 -1.4993
14288TIP3   OH264278   4.435   2.938  11.412 -0.2249  0.0185  0.5655
14288TIP3    H164279   4.456   2.952  11.320  0.6567 -2.2672  0.3767
14288TIP3    H264280   4.407   3.025  11.443 -1.0770  0.7350 -1.9526
14289TIP3   OH264281   0.781   4.632   6.048  0.1716  0.2095 -0.2860
14289TIP3    H164282   0.797   4.719   6.083  0.3260 -0.7998  2.3205
14289TIP3    H264283   0.688   4.631   6.027  0.1423  0.9300 -0.2057
14290TIP3   OH264284   2.555   4.718  14.260 -0.0314  0.6929 -0.1168
14290TIP3    H164285   2.589   4.629  14.274  0.2787  0.9841  1.0707
14290TIP3    H264286   2.494   4.709  14.187 -0.6858 -0.6843  0.5609
14291TIP3   OH264287   6.354   4.700  15.274 -0.4559  0.2912  0.0046
14291TIP3    H164288   6.427   4.749  15.312  0.4813 -1.5484  0.7038
14291TIP3    H264289   6.300   4.676  15.349 -2.0440  1.9155 -0.5327
14292TIP3   OH264290   3.146   5.800  14.656  0.0542 -0.2189 -0.1480
14292TIP3    H164291   3.146   5.823  14.749  0.3246  1.8323 -0.5935
14292TIP3    H264292   3.074   5.851  14.619  0.6704 -0.1120 -1.2490
14293TIP3   OH264293   0.962   5.882  15.333 -0.8559  0.3296 -0.0010
14293TIP3    H164294   1.023   5.876  15.407 -0.7109 -0.8612 -0.1932
14293TIP3    H264295   1.018   5.893  15.256 -1.0070  1.5757  0.0353
14294TIP3   OH264296   4.988   0.862  16.275  0.1173 -0.1466 -0.0240
14294TIP3    H164297   5.048   0.792  16.249 -0.7970 -0.4756 -1.3347
14294TIP3    H264298   4.997   0.928  16.207 -0.1305  0.3517  0.4215
14295TIP3   OH264299   0.349   4.313   4.348 -0.0296 -0.8889  0.0191
14295TIP3    H164300   0.388   4.380   4.403 -0.2758 -1.0147  0.3524
14295TIP3    H264301   0.358   4.232   4.399  0.2051 -1.0978 -0.3496
14296TIP3   OH264302   2.428   0.626   0.733 -0.2146  0.1175  0.6638
14296TIP3    H164303   2.460   0.618   0.643  0.6420 -0.3239  0.9958
14296TIP3    H264304   2.375   0.705   0.733 -1.5114 -0.7192 -0.6019
14297TIP3   OH264305   3.033   6.039  16.128  0.2383  0.0013 -0.9573
14297TIP3    H164306   2.963   6.053  16.193  1.4305  1.5137  0.0480
14297TIP3    H264307   2.986   6.025  16.046 -1.3141 -1.6873  0.1219
14298TIP3   OH264308   4.604   0.185  16.632  0.5947 -0.1150  0.3412
14298TIP3    H164309   4.574   0.108  16.583  0.8775  0.6819 -1.1627
14298TIP3    H264310   4.567   0.259  16.584 -0.4493  0.6882  2.2921
14299TIP3   OH264311   4.730   0.305   1.478  0.2296  0.4270  0.1169
14299TIP3    H164312   4.728   0.349   1.393 -1.1990  1.3685  0.6005
14299TIP3    H264313   4.789   0.358   1.531 -1.9670  2.2715  0.8949
14300TIP3   OH264314   2.329   1.458   1.089 -0.8911  1.1346  0.2687
14300TIP3    H164315   2.310   1.382   1.145  0.0977  0.6491 -0.0251
14300TIP3    H264316   2.424   1.466   1.091 -0.7958  1.0068 -1.4362
14301TIP3   OH264317   5.836   3.647  15.806 -0.8685 -0.0244  0.0110
14301TIP3    H164318   5.834   3.634  15.711 -2.9712  0.4819 -0.0647
14301TIP3    H264319   5.863   3.563  15.842 -1.5447 -0.6812 -0.9877
14302TIP3   OH264320   4.493   1.151  10.855  0.0536 -0.0965 -0.2847
14302TIP3    H164321   4.415   1.202  10.874  0.3878  0.2967  0.0399
14302TIP3    H264322   4.460   1.069  10.819 -0.5348 -0.2560  0.6017
14303TIP3   OH264323   3.027   0.497   5.668 -0.3899  0.2551 -0.4035
14303TIP3    H164324   2.997   0.408   5.688 -0.2491  0.3477  0.2399
14303TIP3    H264325   3.070   0.526   5.749  0.5187  0.5066 -0.9698
14304TIP3   OH264326   4.620   5.052  13.731  0.1759 -0.0335 -0.3794
14304TIP3    H164327   4.682   5.066  13.659  1.0564  0.0198  0.3740
14304TIP3    H264328   4.674   5.053  13.810 -0.8366  0.3364  0.3264
14305TIP3   OH264329   2.707   6.644  15.851  0.0515  0.0683  0.2772
14305TIP3    H164330   2.759   6.564  15.843  0.6457  0.5255 -0.5487
14305TIP3    H264331   2.705   6.661  15.946  0.7171 -0.3993  0.3896
14306TIP3   OH264332   3.782   2.273   6.660 -0.4663  0.4238  0.0739
14306TIP3    H164333   3.826   2.189   6.669 -1.7112 -0.3042 -0.4087
14306TIP3    H264334   3.845   2.329   6.614  0.2888 -0.2959  0.2199
14307TIP3   OH264335   2.543   3.422  11.865 -0.4205  0.0549  0.0883
14307TIP3    H164336   2.613   3.398  11.804 -1.6579 -1.9625 -0.6225
14307TIP3    H264337   2.488   3.483  11.815  0.7756  1.7185  0.6784
14308TIP3   OH264338   1.972   2.449  15.256 -0.3262 -0.6166  0.0928
14308TIP3    H164339   2.033   2.383  15.288 -0.4562  0.3363  2.5575
14308TIP3    H264340   1.901   2.449  15.320 -0.6417  1.4199 -0.1831
14309TIP3   OH264341   0.836   6.226  11.239  0.4025 -0.3610 -0.3985
14309TIP3    H164342   0.797   6.213  11.152  0.7177 -2.6901 -0.2598
14309TIP3    H264343   0.807   6.151  11.290 -1.8246  2.1578  2.3880
14310TIP3   OH264344   4.582   5.298  15.956 -0.5968  0.3496 -0.1019
14310TIP3    H164345   4.662   5.305  15.905  0.8783  1.2383  2.1965
14310TIP3    H264346   4.587   5.212  15.997 -0.2871  0.8262  0.8727
14311TIP3   OH264347   2.051   2.963   0.975  0.0232 -0.5345  0.3568
14311TIP3    H164348   2.115   3.027   1.005  0.1331 -1.1815  1.5756
14311TIP3    H264349   2.010   2.931   1.056 -1.3449 -0.6398 -0.3541
14312TIP3   OH264350   6.558   1.717   0.724 -0.5280 -0.1938  0.4924
14312TIP3    H164351   6.650   1.743   0.730 -0.0654 -1.0589 -1.7005
14312TIP3    H264352   6.510   1.799   0.715 -0.0426  0.2796  1.9129
14313TIP3   OH264353   1.581   5.575  16.992  0.1235 -0.7049 -0.1257
14313TIP3    H164354   1.577   5.489  16.950  1.3832 -0.6446 -0.4367
14313TIP3    H264355   1.529   5.566  17.072  1.6856 -2.3431  0.8001
14314TIP3   OH264356   3.135   1.645   5.228 -0.8535 -0.7105  0.2518
14314TIP3    H164357   3.056   1.665   5.278 -2.2340 -1.8863 -1.3838
14314TIP3    H264358   3.167   1.562   5.264 -2.2327 -1.9145 -1.1649
14315TIP3   OH264359   4.891   0.756   2.367 -0.0326  0.7302 -0.1616
14315TIP3    H164360   4.799   0.767   2.392 -0.1242  0.1169 -0.2248
14315TIP3    H264361   4.920   0.678   2.414  1.0373  2.0413  1.4310
14316TIP3   OH264362   1.110   2.089  15.688  0.1287 -0.2459 -0.1450
14316TIP3    H164363   1.138   2.062  15.601  1.4730  0.2043  0.1251
14316TIP3    H264364   1.039   2.151  15.672  0.6479  0.1567 -0.9363
14317TIP3   OH264365   1.953   0.364  11.101 -0.0589  0.4758  0.3044
14317TIP3    H164366   1.904   0.377  11.020  0.4096  0.8325  0.0719
14317TIP3    H264367   1.886   0.351  11.168 -0.4258 -1.1272 -0.3431
14318TIP3   OH264368   4.093   0.501  11.698  0.1733  0.4254 -0.6681
14318TIP3    H164369   4.162   0.493  11.633  0.6483 -0.2191 -0.0997
14318TIP3    H264370   4.136   0.480  11.781  0.0456  3.0395  0.1561
14319TIP3   OH264371   6.297   3.772  12.521  0.8968 -0.0645 -0.7914
14319TIP3    H164372   6.372   3.794  12.576  1.3212  0.2197 -1.4646
14319TIP3    H264373   6.291   3.677  12.524 -0.0213  0.0109  0.9477
14320TIP3   OH264374   1.621   1.793  13.321 -0.4890  0.2167 -0.4651
14320TIP3    H164375   1.698   1.742  13.295 -0.4077  0.0943  0.0060
14320TIP3    H264376   1.594   1.838  13.241 -0.4374 -0.4014 -0.8352
14321TIP3   OH264377   4.234   1.960   2.438  0.0229  0.1582  0.4155
14321TIP3    H164378   4.165   1.893   2.436  0.9368 -0.7848 -0.0611
14321TIP3    H264379   4.196   2.033   2.389 -0.4834 -0.5177 -0.2350
14322TIP3   OH264380   5.150   6.519  16.885 -0.7574  0.0656 -0.0878
14322TIP3    H164381   5.230   6.480  16.921 -0.0251  1.9723  0.4684
14322TIP3    H264382   5.139   6.476  16.800  0.6504 -0.5030 -0.0123
14323TIP3   OH264383   4.495   1.676   5.520 -0.4251 -0.1296 -0.0807
14323TIP3    H164384   4.456   1.764   5.514 -0.9624 -0.3219  0.4797
14323TIP3    H264385   4.582   1.691   5.556 -0.7443  0.1265  0.6070
14324TIP3   OH264386   0.261   1.365  10.450  0.2617 -0.4530  0.1202
14324TIP3    H164387   0.252   1.448  10.496 -2.2707 -0.0764 -0.8989
14324TIP3    H264388   0.329   1.381  10.386  0.0726  0.7401  0.1840
14325TIP3   OH264389   5.218   4.897  10.053  0.0378 -0.2573 -0.1150
14325TIP3    H164390   5.266   4.922  10.132  1.6866  2.8239 -1.8753
14325TIP3    H264391   5.126   4.908  10.076  0.5427  2.8400  0.8653
14326TIP3   OH264392   2.140   1.443   3.519 -0.0274  1.0225 -0.8547
14326TIP3    H164393   2.130   1.537   3.506  1.9546  1.3242 -0.5883
14326TIP3    H264394   2.100   1.403   3.442 -2.3406  1.9580 -0.2177
14327TIP3   OH264395   3.095   4.719   2.320  0.5361  0.2385 -0.0886
14327TIP3    H164396   3.012   4.765   2.319  0.9495  1.0173  0.4689
14327TIP3    H264397   3.159   4.784   2.350  1.5063 -0.0877 -1.3498
14328TIP3   OH264398   1.076   0.790   3.122  0.1874  0.2170  0.4075
14328TIP3    H164399   1.171   0.791   3.107  0.3975  2.6920  1.4755
14328TIP3    H264400   1.067   0.752   3.210  0.2117  0.3024  0.4468
14329TIP3   OH264401   6.781   4.535   1.392 -0.2989 -0.5057 -0.3681
14329TIP3    H164402   6.862   4.506   1.351 -0.4878 -0.7112 -0.5980
14329TIP3    H264403   6.808   4.602   1.455  0.0476 -0.5791 -0.4405
14330TIP3   OH264404   6.170   4.719  12.032  0.0044 -0.0999  0.3702
14330TIP3    H164405   6.241   4.729  11.970  0.0780  0.3851  0.5282
14330TIP3    H264406   6.213   4.710  12.117 -0.0799 -1.1839  0.3173
14331TIP3   OH264407   0.183   0.324   0.844 -0.3396  0.5153  0.1381
14331TIP3    H164408   0.190   0.230   0.860  2.0941  0.6213  0.1514
14331TIP3    H264409   0.235   0.338   0.764 -0.1343  1.9181  0.5007
14332TIP3   OH264410   5.473   0.006   5.667  0.5794 -0.0097 -0.0724
14332TIP3    H164411   5.466   0.096   5.699  0.4481 -0.0849  0.1125
14332TIP3    H264412   5.382  -0.025   5.663  0.4417  0.5675 -2.1653
14333TIP3   OH264413   1.606   3.906   5.590 -0.1736  0.1137  0.0197
14333TIP3    H164414   1.682   3.866   5.633  0.0378 -0.0282 -0.4789
14333TIP3    H264415   1.592   3.852   5.512 -0.0605  0.8340 -0.5128
14334TIP3   OH264416   1.963   0.716  12.321  0.1912 -0.1439 -0.0409
14334TIP3    H164417   2.029   0.770  12.278  0.1608 -1.2406 -1.5439
14334TIP3    H264418   1.891   0.776  12.341  1.7410  1.1666  2.0059
14335TIP3   OH264419   6.236   1.124   3.659  0.8215  0.1014  0.3259
14335TIP3    H164420   6.283   1.049   3.623 -2.8193 -3.2888  1.8687
14335TIP3    H264421   6.243   1.114   3.754 -1.1611  0.6131  0.5873
14336TIP3   OH264422   1.416   1.198   1.771 -0.1161 -0.4026 -0.5095
14336TIP3    H164423   1.358   1.254   1.720 -0.1970 -0.7867 -0.8476
14336TIP3    H264424   1.490   1.180   1.713 -0.2745 -0.9533 -0.5544
14337TIP3   OH264425   2.838   5.417  11.242 -0.9241 -0.0570  0.1082
14337TIP3    H164426   2.795   5.363  11.176 -1.0353  0.3937 -0.1937
14337TIP3    H264427   2.885   5.355  11.297 -1.2919 -0.4838 -0.0553
14338TIP3   OH264428   2.537   5.233  11.230  0.2942  0.1274  0.4279
14338TIP3    H164429   2.612   5.259  11.176 -0.7164  2.4149  0.0294
14338TIP3    H264430   2.467   5.215  11.168 -0.2359  0.5824  0.8876
14339TIP3   OH264431   5.772   2.329   2.298 -0.1836  0.0417  0.6708
14339TIP3    H164432   5.833   2.346   2.370 -0.2073 -1.6790  1.1474
14339TIP3    H264433   5.718   2.256   2.330 -0.0231 -0.9399 -1.1945
14340TIP3   OH264434   4.962   5.104   5.654 -0.3391  0.6061 -0.0436
14340TIP3    H164435   4.939   5.119   5.746 -1.3312 -0.1146 -0.1552
14340TIP3    H264436   4.923   5.179   5.608 -0.6285  0.4949  0.0192
14341TIP3   OH264437   0.903   0.107  16.200  0.5478 -0.4061 -0.0716
14341TIP3    H164438   0.971   0.042  16.218 -1.1560 -1.9806  1.0789
14341TIP3    H264439   0.827   0.055  16.173 -0.8869  1.1110  0.8460
14342TIP3   OH264440   4.315   1.968   3.285 -0.5018  0.3184  0.0652
14342TIP3    H164441   4.377   1.980   3.357 -1.0130  1.5720  0.3312
14342TIP3    H264442   4.323   2.048   3.233 -1.4264  0.2191 -0.2549
14343TIP3   OH264443   1.477   3.982   4.358 -0.2425  0.0658 -0.7688
14343TIP3    H164444   1.400   3.988   4.301 -1.1107 -0.2259  0.3385
14343TIP3    H264445   1.511   3.894   4.344 -1.1126 -0.4037 -0.0500
14344TIP3   OH264446   0.238   6.119  12.621  0.5047  0.5334  0.2934
14344TIP3    H164447   0.244   6.045  12.681 -0.1233  0.5474  0.3796
14344TIP3    H264448   0.203   6.190  12.674 -0.6804  0.3666 -0.2262
14345TIP3   OH264449   1.090   4.123  13.267  0.1415  0.3519 -1.0391
14345TIP3    H164450   1.010   4.071  13.275  0.8619 -0.6810 -0.2716
14345TIP3    H264451   1.082   4.167  13.182 -0.9833 -0.1640 -1.2190
14346TIP3   OH264452   4.344   3.757   0.982  0.3198  0.6525  0.2339
14346TIP3    H164453   4.400   3.698   1.032  0.1908  0.4757  0.1685
14346TIP3    H264454   4.292   3.700   0.926  0.5618  0.8553 -0.2035
14347TIP3   OH264455   3.472   5.775  15.521  0.6351  0.0436  0.0974
14347TIP3    H164456   3.493   5.760  15.429 -0.3127 -0.9651  0.0247
14347TIP3    H264457   3.542   5.833  15.553  1.6943 -0.6350 -0.9209
14348TIP3   OH264458   0.870   5.418   3.404  0.1263 -0.6713 -0.0020
14348TIP3    H164459   0.838   5.331   3.425 -1.8982 -0.2288 -1.0666
14348TIP3    H264460   0.836   5.437   3.317  1.8990  0.5597 -0.4912
14349TIP3   OH264461   5.307   0.372  16.289  0.5643  0.2299 -0.4004
14349TIP3    H164462   5.319   0.432  16.215  0.3500  0.8816  0.0794
14349TIP3    H264463   5.251   0.420  16.350 -1.4029 -1.2801 -0.9286
14350TIP3   OH264464   0.327   4.426  14.547  0.2217 -0.0066  0.3719
14350TIP3    H164465   0.296   4.515  14.563 -1.2480 -0.3854 -0.1993
14350TIP3    H264466   0.405   4.437  14.492  0.4509  0.9388  0.8706
14351TIP3   OH264467   6.397   4.637   2.584 -0.1408  0.2086  0.1721
14351TIP3    H164468   6.402   4.542   2.592 -0.1457  0.2712  0.9606
14351TIP3    H264469   6.339   4.665   2.654 -2.5576  0.5611 -1.8193
14352TIP3   OH264470   6.008   0.725  15.360  0.2692  0.6093 -0.2335
14352TIP3    H164471   6.058   0.657  15.405 -0.1857 -0.4230 -1.2710
14352TIP3    H264472   5.931   0.739  15.414  0.2461  0.1363 -0.1462
14353TIP3   OH264473   5.404   0.987  12.276  0.3761  0.6076  0.1097
14353TIP3    H164474   5.450   1.006  12.194  3.3935  0.8712  1.6974
14353TIP3    H264475   5.334   1.052  12.281 -0.5453 -0.0505 -2.6463
14354TIP3   OH264476   4.930   2.909  15.603  0.4557  0.0851 -0.0092
14354TIP3    H164477   4.988   2.836  15.624 -0.0576 -0.1197  0.7508
14354TIP3    H264478   4.877   2.921  15.682 -0.5277  0.2637 -0.6646
14355TIP3   OH264479   3.439   6.362   1.635 -0.1010  0.3199  0.4837
14355TIP3    H164480   3.521   6.339   1.680 -0.3934  0.5319  1.1375
14355TIP3    H264481   3.411   6.280   1.594  0.2456  0.1540  0.5672
14356TIP3   OH264482   2.641   1.655   0.229 -0.0721  0.1046  0.2783
14356TIP3    H164483   2.615   1.659   0.321  2.0222  1.9650  0.8622
14356TIP3    H264484   2.667   1.745   0.207  1.1338 -0.6423 -1.5985
14357TIP3   OH264485   0.775   5.542   0.940  0.1170 -0.0331  0.3212
14357TIP3    H164486   0.804   5.509   0.855 -2.7638 -1.7768 -0.1120
14357TIP3    H264487   0.843   5.512   1.001 -0.4879 -3.8985 -0.5985
14358TIP3   OH264488   3.189   5.291  13.265 -0.0109 -0.3363  0.6465
14358TIP3    H164489   3.135   5.267  13.189  0.8406  0.9308 -0.4100
14358TIP3    H264490   3.135   5.269  13.340 -0.3522 -2.9185 -0.2509
14359TIP3   OH264491   3.924   2.766   4.833  0.1448 -0.4871  0.1040
14359TIP3    H164492   4.015   2.758   4.805  0.2119  0.9181 -0.1651
14359TIP3    H264493   3.875   2.708   4.774  0.6728 -0.0060 -0.8264
14360TIP3   OH264494   5.400   0.681   3.797  0.2858  0.2104 -0.1607
14360TIP3    H164495   5.351   0.682   3.715 -0.3404  0.4581  0.2109
14360TIP3    H264496   5.431   0.771   3.808 -1.3315  0.6928  0.8601
14361TIP3   OH264497   3.062   4.839   1.384  0.0999  0.1632  0.4570
14361TIP3    H164498   3.072   4.839   1.288 -2.0765 -0.2304  0.1836
14361TIP3    H264499   3.059   4.746   1.407 -1.1682  0.2452  0.6652
14362TIP3   OH264500   2.388   5.639   6.262  0.0244 -0.0394  0.3039
14362TIP3    H164501   2.438   5.578   6.208 -0.2776 -0.2015  0.2070
14362TIP3    H264502   2.310   5.660   6.209 -0.9564 -1.2258  1.2189
14363TIP3   OH264503   3.233   1.240  11.262 -0.0110  0.6132  0.2973
14363TIP3    H164504   3.224   1.145  11.258  1.1104  0.5173 -0.3142
14363TIP3    H264505   3.191   1.271  11.182  0.5200  0.5459 -0.0139
14364TIP3   OH264506   6.530   4.055  11.624  0.3084  0.3889 -0.3216
14364TIP3    H164507   6.583   4.016  11.693 -1.4239  0.7459  1.3027
14364TIP3    H264508   6.586   4.120  11.583  1.6796 -0.4825  0.1173
14365TIP3   OH264509   4.631   3.573  16.100  0.1715 -0.0830  0.2886
14365TIP3    H164510   4.659   3.593  16.190 -0.4274  0.0473  0.4454
14365TIP3    H264511   4.571   3.499  16.109 -0.1314  0.1280  0.0275
14366TIP3   OH264512   3.307   3.487   1.500 -0.1697 -0.1336  0.2423
14366TIP3    H164513   3.385   3.513   1.549 -1.3001  0.9427  1.5708
14366TIP3    H264514   3.238   3.481   1.566 -1.1649 -1.3130 -0.8579
14367TIP3   OH264515   6.259   5.163  10.793  0.2732  0.4099  0.1195
14367TIP3    H164516   6.248   5.085  10.846 -0.5328  0.4730  0.0581
14367TIP3    H264517   6.314   5.136  10.720 -0.4946 -0.2647 -0.2254
14368TIP3   OH264518   2.991   1.440   3.602 -0.2839 -0.2512 -0.1501
14368TIP3    H164519   2.924   1.508   3.606  0.2619  0.2586  0.5665
14368TIP3    H264520   3.061   1.478   3.550 -0.6931 -0.9316 -1.2348
14369TIP3   OH264521   0.371   3.352  12.883  0.3243  0.8185  0.1642
14369TIP3    H164522   0.296   3.293  12.884  0.4539  0.4190 -3.0215
14369TIP3    H264523   0.346   3.424  12.940 -2.6980  0.9270 -1.1387
14370TIP3   OH264524   4.611   5.899  16.165 -0.0823  0.1927  0.1015
14370TIP3    H164525   4.573   5.908  16.078 -1.0859 -0.4429  0.4601
14370TIP3    H264526   4.603   5.806  16.185  0.6496  0.2380  0.6555
14371TIP3   OH264527   2.692   2.174   2.957  0.6118  0.2377  0.5185
14371TIP3    H164528   2.704   2.174   2.862 -1.9186 -1.7494  0.0987
14371TIP3    H264529   2.703   2.266   2.982  1.6903  0.7562 -1.6052
14372TIP3   OH264530   1.340   1.557   1.087 -0.0854 -0.2010 -0.0561
14372TIP3    H164531   1.257   1.508   1.090  0.1394 -0.6300 -0.7756
14372TIP3    H264532   1.400   1.506   1.141  0.7650 -1.9195 -2.4863
14373TIP3   OH264533   3.046   2.814   4.293  0.4833 -0.2098  0.0373
14373TIP3    H164534   3.095   2.875   4.238 -1.4102  1.7347  0.3854
14373TIP3    H264535   2.964   2.859   4.312 -1.1026 -2.9260  0.2144
14374TIP3   OH264536   4.352   3.316   6.069  0.0137  0.2525 -0.2261
14374TIP3    H164537   4.307   3.234   6.089  2.2456 -0.5910  1.8305
14374TIP3    H264538   4.332   3.372   6.144 -0.0611  0.9766 -0.7796
14375TIP3   OH264539   4.213   6.387  16.368 -0.7099  0.0090 -0.1523
14375TIP3    H164540   4.191   6.459  16.309  1.5484  2.1514  1.3926
14375TIP3    H264541   4.309   6.388  16.372 -0.6753 -2.0824  1.1800
14376TIP3   OH264542   5.633   6.676   5.495 -0.2251 -0.3492 -0.6287
14376TIP3    H164543   5.551   6.716   5.524 -0.1814 -1.1018  0.6281
14376TIP3    H264544   5.661   6.624   5.570  0.3442 -1.7465 -1.7662
14377TIP3   OH264545   5.594   4.379  13.559  0.3899  1.1397  0.3542
14377TIP3    H164546   5.645   4.320  13.615 -2.6815 -0.2263  1.9197
14377TIP3    H264547   5.620   4.355  13.470  1.3359 -0.5797  1.0386
14378TIP3   OH264548   0.781   0.387  13.211  0.1221  0.6760 -0.0703
14378TIP3    H164549   0.715   0.322  13.235 -0.8214  1.8159  0.5638
14378TIP3    H264550   0.749   0.426  13.130  1.0239 -0.0881 -0.8091
14379TIP3   OH264551   2.276   4.883   1.648  0.1029 -0.1409  0.2167
14379TIP3    H164552   2.257   4.791   1.634 -1.1532  0.2360 -0.7353
14379TIP3    H264553   2.200   4.916   1.696  0.9628  0.2151  1.3799
14380TIP3   OH264554   3.713   6.095  12.984 -0.3668 -0.1910  0.4527
14380TIP3    H164555   3.646   6.154  13.019  0.5264  1.9767 -1.2031
14380TIP3    H264556   3.691   6.087  12.891  0.3149 -1.4310  0.3706
14381TIP3   OH264557   0.781   0.156  12.198  0.0637  0.2953  0.2871
14381TIP3    H164558   0.769   0.215  12.124  1.6498  1.1294  0.6476
14381TIP3    H264559   0.722   0.189  12.265 -0.5109  0.2455 -0.1854
14382TIP3   OH264560   2.997   0.251  14.943  0.2595  0.5834  0.6954
14382TIP3    H164561   3.085   0.239  14.976  0.9098 -1.1485 -1.4626
14382TIP3    H264562   2.976   0.170  14.898 -2.3176  1.0851  0.8092
14383TIP3   OH264563   0.009   2.415   1.204  0.2241  0.4197 -0.6610
14383TIP3    H164564  -0.009   2.332   1.250 -0.2610  0.5267 -0.6536
14383TIP3    H264565   0.015   2.480   1.274  0.0172  0.4892 -0.7054
14384TIP3   OH264566   5.839   3.498   3.496 -0.4549 -0.0590  0.0564
14384TIP3    H164567   5.900   3.471   3.565 -0.1938  0.2372 -0.0523
14384TIP3    H264568   5.755   3.463   3.522 -0.1627 -0.8114  0.0167
14385TIP3   OH264569   3.908   1.510   4.745 -0.4460  0.2194  0.4010
14385TIP3    H164570   3.816   1.534   4.735 -0.3733  0.7409  0.9138
14385TIP3    H264571   3.940   1.567   4.815  0.9499  1.9267 -1.5245
14386TIP3   OH264572   1.191   0.240  15.750 -0.5820 -0.5875  0.2839
14386TIP3    H164573   1.205   0.187  15.828  0.2015 -0.2715  0.3662
14386TIP3    H264574   1.190   0.330  15.781  1.5861 -0.3104 -0.2543
14387TIP3   OH264575   1.799   1.180  13.621  0.4483 -0.1670  0.1097
14387TIP3    H164576   1.864   1.242  13.588  0.0894 -0.5052 -1.2844
14387TIP3    H264577   1.827   1.095  13.587 -1.3561 -0.1559 -1.5616
14388TIP3   OH264578   1.968   5.315  14.423  0.0262 -0.6167 -0.2300
14388TIP3    H164579   1.875   5.323  14.405  0.3917  2.7510 -1.3280
14388TIP3    H264580   2.011   5.351  14.346  2.1773 -0.3220  1.0313
14389TIP3   OH264581   0.317   1.296  15.526  0.0390  0.0485  0.1282
14389TIP3    H164582   0.321   1.253  15.440  1.0377  0.6035 -0.1197
14389TIP3    H264583   0.310   1.389  15.506 -0.0390  0.1595  0.6556
14390TIP3   OH264584   2.552   4.082  12.439 -0.6252  0.5377 -0.1893
14390TIP3    H164585   2.548   3.986  12.433 -2.3371  0.5307  0.4737
14390TIP3    H264586   2.646   4.102  12.443 -0.2287 -1.0875 -0.5269
14391TIP3   OH264587   5.099   5.484   0.036  0.1359  0.6844  0.8251
14391TIP3    H164588   5.130   5.545  -0.032 -0.8101  2.3742  1.8184
14391TIP3    H264589   5.032   5.431  -0.009  0.7125  0.6200  0.0221
14392TIP3   OH264590   3.633   3.658  11.276 -0.0704 -0.1827 -0.0648
14392TIP3    H164591   3.590   3.573  11.269 -1.1517  0.2105  1.2204
14392TIP3    H264592   3.649   3.668  11.370  1.9491  0.1434 -0.4089
14393TIP3   OH264593   2.176   3.806  13.756  0.4303  0.1376  0.6117
14393TIP3    H164594   2.176   3.901  13.769  1.3151  0.2659 -0.1309
14393TIP3    H264595   2.092   3.787  13.714  0.7280  0.7883 -0.3264
14394TIP3   OH264596   3.308   6.019   4.802 -0.6675  0.3472  0.0075
14394TIP3    H164597   3.324   6.022   4.707 -2.7436  1.2937 -0.3760
14394TIP3    H264598   3.264   6.102   4.821 -1.2449 -0.2854  1.6048
14395TIP3   OH264599   3.117   6.272  14.089 -0.0512  0.7653 -0.6399
14395TIP3    H164600   3.043   6.232  14.134  0.7594  0.1909  0.2113
14395TIP3    H264601   3.188   6.209  14.098  1.5823  2.7624  1.6525
14396TIP3   OH264602   2.064   0.512   5.440 -0.7708  0.3492  0.5984
14396TIP3    H164603   2.062   0.428   5.486  0.1529  1.5630  3.0051
14396TIP3    H264604   2.113   0.494   5.360  0.0276 -1.2739  1.4079
14397TIP3   OH264605   5.996   5.951  13.501 -0.1208  0.5549  0.2437
14397TIP3    H164606   5.919   5.894  13.498 -0.2693  0.7847 -0.4716
14397TIP3    H264607   5.965   6.033  13.539 -0.0404  0.3717  0.7145
14398TIP3   OH264608   1.827   3.185   5.674  0.8810 -0.1984  0.0639
14398TIP3    H164609   1.824   3.165   5.580  2.3708  1.9510 -0.5309
14398TIP3    H264610   1.745   3.232   5.691  0.2505 -1.2632  0.0516
14399TIP3   OH264611   4.625   2.543   0.340 -0.1777 -0.3751  0.1406
14399TIP3    H164612   4.678   2.506   0.269 -0.5570  0.2839 -0.5005
14399TIP3    H264613   4.625   2.475   0.408  2.6001  0.1131  0.7626
14400TIP3   OH264614   1.533   6.531   4.581  0.3814 -0.1544 -0.0170
14400TIP3    H164615   1.472   6.528   4.656 -1.0399 -1.6447 -1.1516
14400TIP3    H264616   1.607   6.477   4.608  0.4794  0.3695  0.7884
14401TIP3   OH264617   0.712   0.900   4.866 -0.9719 -0.3900 -0.3670
14401TIP3    H164618   0.651   0.935   4.930 -1.3297  0.2226 -1.0219
14401TIP3    H264619   0.661   0.897   4.784 -0.6299 -1.4635 -0.5490
14402TIP3   OH264620   0.004   3.805  14.745  0.1084  0.3455 -0.3029
14402TIP3    H164621   0.082   3.767  14.784  0.8222  1.4812 -0.5490
14402TIP3    H264622   0.021   3.804  14.651  0.3275  1.5995 -0.2935
14403TIP3   OH264623   3.443   6.300  13.976 -0.2275  0.0914 -0.6882
14403TIP3    H164624   3.392   6.228  14.013 -0.4718  0.5769 -0.0598
14403TIP3    H264625   3.465   6.271  13.887 -1.4252 -0.2081 -0.9065
14404TIP3   OH264626   4.558   2.499   4.325  0.5826  0.0266  0.2942
14404TIP3    H164627   4.490   2.438   4.352  0.2070 -0.0044 -0.6897
14404TIP3    H264628   4.614   2.449   4.267  3.1307 -0.7910  3.2105
14405TIP3   OH264629   6.201   5.244  10.254 -0.0342  0.3705 -0.5114
14405TIP3    H164630   6.240   5.168  10.297 -0.7970  0.3505  0.1594
14405TIP3    H264631   6.140   5.208  10.191 -0.5336  0.4245 -0.0625
14406TIP3   OH264632   5.858   5.196  14.083  0.3291  0.1490 -0.1520
14406TIP3    H164633   5.805   5.179  14.004  1.1317  0.3660 -0.7495
14406TIP3    H264634   5.817   5.272  14.124 -0.0016  0.1347 -0.4506
14407TIP3   OH264635   6.336   3.598  13.269 -0.2063 -0.0902 -0.3017
14407TIP3    H164636   6.402   3.542  13.310 -1.8402 -1.2708  0.8391
14407TIP3    H264637   6.259   3.542  13.260 -1.3808  1.5126 -0.6809
14408TIP3   OH264638   4.559   0.307   0.026 -0.1060 -0.5224 -0.4873
14408TIP3    H164639   4.475   0.286  -0.015 -0.1400 -2.3798  0.4504
14408TIP3    H264640   4.590   0.224   0.061  1.8290  0.2555 -0.2332
14409TIP3   OH264641   3.927   1.312   3.249  0.6322  0.7590  0.3264
14409TIP3    H164642   3.971   1.318   3.163 -0.9012  0.1561 -0.5353
14409TIP3    H264643   3.904   1.402   3.271 -0.8014  0.7363 -0.9240
14410TIP3   OH264644   4.028   3.254   6.092  0.2032 -0.4100 -1.3827
14410TIP3    H164645   4.087   3.222   6.024  1.9633  2.6363 -1.4643
14410TIP3    H264646   4.068   3.228   6.174  2.3888  2.4593 -1.4018
14411TIP3   OH264647   3.531   1.760   3.733 -0.0593 -0.3928 -0.4932
14411TIP3    H164648   3.507   1.808   3.812  1.0647 -1.8396  0.7693
14411TIP3    H264649   3.480   1.803   3.663 -1.6029  0.4830  1.0837
14412TIP3   OH264650   5.956   1.449  14.288 -0.2683 -0.5825  0.1380
14412TIP3    H164651   6.036   1.424  14.333 -0.6224 -0.3219  0.9320
14412TIP3    H264652   5.894   1.379  14.307 -0.1274 -0.9700 -0.7817
14413TIP3   OH264653   1.785   4.894   2.109  0.2969 -0.6295  0.7006
14413TIP3    H164654   1.873   4.928   2.092 -0.0853  0.3286  0.5633
14413TIP3    H264655   1.730   4.939   2.045 -0.3726 -0.8367  1.1258
14414TIP3   OH264656   1.642   2.355   5.086  0.3052  0.2314 -0.5896
14414TIP3    H164657   1.595   2.382   5.165  0.2555  2.0667 -1.1770
14414TIP3    H264658   1.729   2.393   5.096  1.7227 -2.9547  0.3885
14415TIP3   OH264659   3.223   4.493   5.269 -0.4133  0.0762  0.5769
14415TIP3    H164660   3.292   4.427   5.262 -0.6863 -0.6241  3.2496
14415TIP3    H264661   3.270   4.575   5.286 -0.1833 -0.0522  0.5593
14416TIP3   OH264662   0.477   0.844  16.860  0.1426  0.4536 -0.3654
14416TIP3    H164663   0.520   0.893  16.930  1.7094 -1.2166 -0.0464
14416TIP3    H264664   0.542   0.841  16.790  0.4303 -1.7322 -0.0734
14417TIP3   OH264665   4.088   5.276   2.057  0.2361  0.3981 -0.5721
14417TIP3    H164666   4.019   5.341   2.068  0.4955  0.5518  0.2442
14417TIP3    H264667   4.148   5.315   1.994  0.8478  1.3617  0.5620
14418TIP3   OH264668   4.599   6.145  11.339 -0.4086 -0.0960  0.4295
14418TIP3    H164669   4.640   6.189  11.265 -0.9039 -0.6493 -0.1865
14418TIP3    H264670   4.505   6.149  11.320 -0.4943 -0.9198  0.6385
14419TIP3   OH264671   2.586   3.539   0.458 -0.4923  0.3101 -0.3964
14419TIP3    H164672   2.623   3.546   0.369  0.4561 -0.8832 -0.1168
14419TIP3    H264673   2.620   3.457   0.492 -3.1870 -0.7484  0.0191
14420TIP3   OH264674   3.702   0.435  14.476  0.0737 -0.2488 -0.6319
14420TIP3    H164675   3.657   0.391  14.548 -0.5920 -1.0828 -1.5296
14420TIP3    H264676   3.754   0.503  14.518 -0.2859 -0.7303  0.6329
14421TIP3   OH264677   2.118   2.561  13.046  0.0174 -0.6437 -0.4191
14421TIP3    H164678   2.158   2.635  13.092  0.2607  0.7894 -2.7474
14421TIP3    H264679   2.150   2.483  13.092  0.0490  0.6458  1.9002
14422TIP3   OH264680   3.254   6.467   2.225  0.0871  0.0885 -0.4246
14422TIP3    H164681   3.214   6.541   2.269  0.5554  0.4486 -0.5950
14422TIP3    H264682   3.228   6.391   2.277 -0.1259  0.4081 -0.0618
14423TIP3   OH264683   2.891   2.503   2.330 -0.6540  0.1379  0.8744
14423TIP3    H164684   2.835   2.579   2.317  0.0137  0.6264  0.7866
14423TIP3    H264685   2.862   2.465   2.413 -0.3032  1.1104  1.4590
14424TIP3   OH264686   3.841   5.112   2.117  0.6554 -0.3294  0.2238
14424TIP3    H164687   3.874   5.199   2.093 -1.0937  0.5100  0.7016
14424TIP3    H264688   3.804   5.124   2.204  0.0840 -1.4877  0.1523
14425TIP3   OH264689   5.355   1.555  12.767 -0.4180  0.4002 -0.1017
14425TIP3    H164690   5.328   1.464  12.775  1.6172 -0.2225  0.4275
14425TIP3    H264691   5.405   1.573  12.846  4.2103  0.0195 -2.5563
14426TIP3   OH264692   3.078   4.304   0.474 -0.4219 -0.1530 -0.1674
14426TIP3    H164693   3.064   4.399   0.472 -0.9986 -0.2318 -2.7595
14426TIP3    H264694   3.003   4.270   0.524 -1.7063  0.5873 -1.5046
14427TIP3   OH264695   1.588   3.834  13.700  0.1143  0.2901 -0.2163
14427TIP3    H164696   1.544   3.831  13.785 -1.2644 -3.6374 -0.8491
14427TIP3    H264697   1.680   3.846  13.721 -0.3788  1.1054  1.6862
14428TIP3   OH264698   4.660   2.248  13.384 -0.0731 -0.3848  0.1728
14428TIP3    H164699   4.682   2.332  13.344 -2.3441  0.9799  1.6079
14428TIP3    H264700   4.605   2.204  13.319  0.1464 -0.2467 -0.1077
14429TIP3   OH264701   0.154   5.017  12.347  0.4486  0.0028 -0.1262
14429TIP3    H164702   0.070   5.023  12.301 -0.9048  1.7982  2.3283
14429TIP3    H264703   0.195   4.939  12.311 -2.6277 -1.4108 -0.9449
14430TIP3   OH264704   0.648   4.349  17.139 -0.3601  0.1739 -0.2899
14430TIP3    H164705   0.583   4.296  17.095  0.8841  0.0894 -2.1046
14430TIP3    H264706   0.621   4.439  17.121 -0.6096  0.1505 -0.0445
14431TIP3   OH264707   5.215   6.760  13.604 -0.3141  0.3772  0.1640
14431TIP3    H164708   5.128   6.800  13.596 -0.6202  0.0543  1.6038
14431TIP3    H264709   5.265   6.822  13.657  0.0214  0.0685  0.2110
14432TIP3   OH264710   1.085   3.656   1.638 -0.8768  0.1408  0.3343
14432TIP3    H164711   1.090   3.693   1.727 -2.3396  0.6835  0.2152
14432TIP3    H264712   1.175   3.631   1.618 -0.6788 -1.0148  2.3958
14433TIP3   OH264713   5.365   2.625  15.537  0.0475 -0.2694  0.2525
14433TIP3    H164714   5.445   2.611  15.486 -0.0404 -1.8299  0.4783
14433TIP3    H264715   5.394   2.624  15.628 -0.0901  0.2784  0.3057
14434TIP3   OH264716   2.623   2.875  13.160  0.0120 -0.0280  0.3490
14434TIP3    H164717   2.617   2.837  13.247 -2.2164  0.8334  0.6509
14434TIP3    H264718   2.689   2.944  13.168 -0.5434  0.3866  1.5167
14435TIP3   OH264719   4.765   3.085   1.366  0.3176 -0.2644  0.2638
14435TIP3    H164720   4.704   3.121   1.302  1.7290  2.0486  0.1360
14435TIP3    H264721   4.710   3.066   1.442 -0.8376  0.0873 -0.4568
14436TIP3   OH264722   2.716   0.019   4.885 -0.1297  0.2433  0.3261
14436TIP3    H164723   2.788   0.081   4.893 -0.1500  0.3946 -0.5485
14436TIP3    H264724   2.687   0.028   4.794 -1.1558  0.0789  0.6251
14437TIP3   OH264725   3.042   6.602  13.257 -0.1249  0.2280 -0.6446
14437TIP3    H164726   3.028   6.520  13.304 -0.2879  0.2551 -0.6454
14437TIP3    H264727   3.118   6.642  13.299 -0.3457  0.3124 -0.3257
14438TIP3   OH264728   2.841   3.257   5.889 -0.2235  0.1314 -0.5061
14438TIP3    H164729   2.746   3.259   5.877 -0.7313  2.3151  2.6335
14438TIP3    H264730   2.869   3.347   5.869  0.7820  0.1437  0.8635
14439TIP3   OH264731   4.951   2.351  16.604 -1.0339 -0.0054  0.2240
14439TIP3    H164732   4.982   2.385  16.689 -0.6455  3.2175 -1.0443
14439TIP3    H264733   5.018   2.288  16.578  0.9287  1.7673  0.6710
14440TIP3   OH264734   1.017   5.612   0.542 -0.4602 -0.1408  0.4771
14440TIP3    H164735   1.040   5.692   0.494  0.5820 -0.4585  0.4355
14440TIP3    H264736   0.986   5.644   0.627  2.8635  0.2762  1.6973
14441TIP3   OH264737   1.732   6.154  13.882 -0.0667 -0.0793 -0.2636
14441TIP3    H164738   1.808   6.203  13.849  0.8162 -0.8734  0.5373
14441TIP3    H264739   1.763   6.064  13.888 -1.5739 -0.7025 -1.3919
14442TIP3   OH264740   1.131   2.191   0.130  0.2864  0.5077  0.3001
14442TIP3    H164741   1.148   2.248   0.055 -0.9486 -0.7413 -0.9965
14442TIP3    H264742   1.051   2.225   0.169 -0.7121 -0.5472 -0.7539
14443TIP3   OH264743   5.832   6.605   5.706 -0.2653  0.0016 -1.0294
14443TIP3    H164744   5.786   6.576   5.784  1.7341  0.5536  0.4323
14443TIP3    H264745   5.924   6.608   5.732  0.7274 -1.4595 -3.8990
14444TIP3   OH264746   6.576   2.557  15.773 -0.2292  0.5224  0.4676
14444TIP3    H164747   6.641   2.530  15.708  0.4699  4.0199 -0.4863
14444TIP3    H264748   6.627   2.579  15.850 -0.7931 -0.8450  1.2707
14445TIP3   OH264749   2.012   4.237   3.192 -0.5449  0.1919 -0.5911
14445TIP3    H164750   1.960   4.279   3.124  0.1686  1.4251 -0.4070
14445TIP3    H264751   2.074   4.182   3.144 -2.5867 -2.0959 -0.7914
14446TIP3   OH264752   4.165   2.514   3.690  0.2883 -0.4324  0.2936
14446TIP3    H164753   4.101   2.560   3.744 -0.4750  1.4067 -1.9813
14446TIP3    H264754   4.231   2.581   3.668 -0.1086 -0.6909 -1.9914
14447TIP3   OH264755   1.982   6.156   4.224  0.2286 -0.1749 -0.2870
14447TIP3    H164756   2.033   6.093   4.174 -0.7711 -0.5248 -0.8827
14447TIP3    H264757   1.937   6.209   4.158  1.0566  1.1801  0.1975
14448TIP3   OH264758   6.496   4.984  11.793 -0.0955 -0.0870 -0.4923
14448TIP3    H164759   6.461   4.979  11.882  0.9567 -1.8574 -0.1308
14448TIP3    H264760   6.419   4.980  11.736 -0.7175  0.1614  0.3231
14449TIP3   OH264761   2.165   3.621  16.636 -0.2321  0.1204 -0.2744
14449TIP3    H164762   2.076   3.648  16.613  0.0920 -0.7035 -2.9298
14449TIP3    H264763   2.220   3.694  16.608  0.1953 -0.9654 -2.4953
14450TIP3   OH264764   1.959   2.878   2.723  0.5181  0.6368 -0.4034
14450TIP3    H164765   1.876   2.867   2.770  1.3040  0.1150  0.9193
14450TIP3    H264766   1.942   2.840   2.637 -0.3023 -0.4934  0.2227
14451TIP3   OH264767   1.288   2.472  10.417 -0.1161  0.1033  0.2842
14451TIP3    H164768   1.346   2.496  10.490  0.0655  2.0045 -0.4295
14451TIP3    H264769   1.320   2.387  10.388  0.3386 -0.3074  1.8744
14452TIP3   OH264770   5.162   1.076  14.184  0.3347  0.5337  0.4653
14452TIP3    H164771   5.247   1.109  14.155  0.2232  0.7457  0.3806
14452TIP3    H264772   5.099   1.119  14.127  0.0229  1.7433  1.6646
14453TIP3   OH264773   4.284   5.944  11.640  0.9110 -0.2470 -0.3360
14453TIP3    H164774   4.279   5.970  11.548  0.6890  1.4786  0.1264
14453TIP3    H264775   4.203   5.897  11.655 -0.2278  1.5644 -0.4593
14454TIP3   OH264776   6.160   1.062   6.209  0.0078  0.3616  0.6078
14454TIP3    H164777   6.228   1.095   6.151 -0.2602 -1.8626 -1.0988
14454TIP3    H264778   6.078   1.086   6.167 -0.2092 -2.8207 -1.0900
14455TIP3   OH264779   2.933   3.931  13.032 -0.7160 -0.1383  0.2699
14455TIP3    H164780   2.965   3.870  13.098  1.5235  1.0289  0.3544
14455TIP3    H264781   2.970   4.016  13.058  0.1522  0.3811 -2.3672
14456TIP3   OH264782   2.211   0.588   1.443 -0.2602  0.0320  0.2872
14456TIP3    H164783   2.157   0.620   1.515  0.8163 -1.3210  1.7897
14456TIP3    H264784   2.149   0.557   1.377 -1.2957  0.0495  1.2306
14457TIP3   OH264785   3.056   1.515   6.451 -0.2466 -0.9597  0.5665
14457TIP3    H164786   3.068   1.448   6.383  1.9534 -0.8075  0.7367
14457TIP3    H264787   3.120   1.582   6.429 -1.8020  0.7005  0.9241
14458TIP3   OH264788   5.501   6.788  14.846  0.9433 -0.0506  0.7159
14458TIP3    H164789   5.592   6.793  14.875  1.0543 -0.9014  0.5400
14458TIP3    H264790   5.460   6.726  14.907  0.6384 -0.1499  0.4131
14459TIP3   OH264791   1.645   6.316  14.984  0.8988  0.7154  0.7945
14459TIP3    H164792   1.653   6.228  14.946 -0.1295  0.4702  1.1234
14459TIP3    H264793   1.556   6.319  15.019  0.1637  2.6229 -1.0310
14460TIP3   OH264794   6.043   5.919  11.163  0.2299 -0.1401 -0.0936
14460TIP3    H164795   6.035   5.933  11.257 -1.3490 -2.1517  0.1514
14460TIP3    H264796   6.130   5.882  11.151 -0.3525 -1.9242  0.9158
14461TIP3   OH264797   3.327   2.825   4.014 -0.4485 -0.0395  0.3816
14461TIP3    H164798   3.287   2.753   4.064  0.7120 -1.5917 -0.8110
14461TIP3    H264799   3.261   2.849   3.950 -0.8721  0.0211  0.8330
14462TIP3   OH264800   4.207   3.026  17.088  0.3497 -0.6136 -0.2001
14462TIP3    H164801   4.133   2.969  17.067 -0.8878  0.0982  1.8952
14462TIP3    H264802   4.206   3.092  17.018 -0.3814 -1.1679 -0.7325
14463TIP3   OH264803   2.639   3.627  16.135  0.6250  0.0705 -0.5590
14463TIP3    H164804   2.722   3.590  16.164  1.7880  0.9232 -2.5693
14463TIP3    H264805   2.606   3.565  16.070  0.1338  0.1648 -0.4060
14464TIP3   OH264806   6.343   4.485   0.460  0.3105  0.0152  0.0744
14464TIP3    H164807   6.325   4.414   0.522  1.8407 -1.1752 -0.7491
14464TIP3    H264808   6.436   4.475   0.439  0.3797  1.8293 -0.6401
14465TIP3   OH264809   1.654   6.410   1.760 -0.1118  0.0859 -0.0356
14465TIP3    H164810   1.732   6.465   1.753  1.2757 -1.9817 -3.1882
14465TIP3    H264811   1.668   6.359   1.839  0.9339  0.8671  0.3077
14466TIP3   OH264812   2.950   1.732  13.329 -0.5306  0.3569  0.2197
14466TIP3    H164813   2.985   1.800  13.387 -0.3414 -0.1387  0.6895
14466TIP3    H264814   3.000   1.654  13.352 -1.2398 -0.1114  0.1713
14467TIP3   OH264815   4.815   3.276  12.031 -0.1856 -0.0149  0.1399
14467TIP3    H164816   4.745   3.331  12.067 -1.0853  0.2196 -1.8459
14467TIP3    H264817   4.846   3.324  11.954  1.7223 -0.4542  0.5735
14468TIP3   OH264818   3.010   4.411  13.291  0.2166 -0.7109 -0.6443
14468TIP3    H164819   2.965   4.440  13.371 -1.2106 -1.0689 -1.2790
14468TIP3    H264820   3.102   4.404  13.316 -0.6167 -4.9637  2.2787
14469TIP3   OH264821   1.564   1.299  11.872 -0.0007 -0.4022 -0.0382
14469TIP3    H164822   1.547   1.381  11.918 -0.5629 -0.5595  0.0380
14469TIP3    H264823   1.479   1.272  11.837  0.5916  0.2332 -2.0734
14470TIP3   OH264824   0.727   0.135  16.531  0.1290 -0.8517 -0.3690
14470TIP3    H164825   0.704   0.055  16.484  1.3893 -1.9782  0.8671
14470TIP3    H264826   0.700   0.119  16.622  1.5004 -0.3691  0.1474
14471TIP3   OH264827   6.407   3.857  13.339 -0.3272  0.5305  0.3178
14471TIP3    H164828   6.382   3.905  13.260  0.3501 -0.0226 -0.2432
14471TIP3    H264829   6.384   3.766  13.320 -0.0391  0.3762  0.7015
14472TIP3   OH264830   3.262   1.202  15.647 -0.1052  0.7877 -0.2210
14472TIP3    H164831   3.290   1.275  15.701 -0.3837  0.5412  0.2685
14472TIP3    H264832   3.292   1.124  15.694 -0.3974  0.5706 -0.3871
14473TIP3   OH264833   2.783   2.717   1.398 -0.1908  0.0240  0.3464
14473TIP3    H164834   2.862   2.757   1.435  0.2841  0.6940 -1.2885
14473TIP3    H264835   2.729   2.791   1.372 -0.8070 -0.4329  0.3093
14474TIP3   OH264836   0.491   3.951  14.663 -0.5051  0.2438 -0.1180
14474TIP3    H164837   0.413   4.006  14.658 -0.4191  0.2803 -1.2987
14474TIP3    H264838   0.560   4.005  14.624  0.7810  1.2938  3.2457
14475TIP3   OH264839   1.022   0.551   0.107  0.3013  0.0225 -0.1415
14475TIP3    H164840   0.953   0.570   0.170  1.4305  0.1373  1.1096
14475TIP3    H264841   1.069   0.634   0.097  0.8574 -0.2923 -0.2161
14476TIP3   OH264842   4.939   2.485  13.114  0.3886  0.1971 -0.4345
14476TIP3    H164843   4.855   2.508  13.155 -0.5177 -1.9007 -0.9541
14476TIP3    H264844   4.918   2.409  13.060  2.9288 -1.2468  0.4874
14477TIP3   OH264845   4.307   0.774  14.336  0.0949  0.0640  0.3218
14477TIP3    H164846   4.319   0.806  14.425  3.0992  0.4697 -0.1233
14477TIP3    H264847   4.253   0.841  14.294  0.9707  1.3379  1.1331
14478TIP3   OH264848   1.602   5.129  16.094 -0.5839  0.2475 -0.1765
14478TIP3    H164849   1.564   5.044  16.073  1.1580  0.1908 -4.1112
14478TIP3    H264850   1.685   5.109  16.137 -1.9763  0.1928  2.6506
14479TIP3   OH264851   1.550   3.419  11.746 -0.1408  0.3206 -0.6240
14479TIP3    H164852   1.566   3.375  11.830 -1.0962  1.7555  0.3679
14479TIP3    H264853   1.471   3.471  11.762  1.0466  2.5496 -1.6591
14480TIP3   OH264854   5.595   1.373   6.271  0.3084 -0.3492  0.4678
14480TIP3    H164855   5.584   1.289   6.316  3.4878 -0.6878  0.8273
14480TIP3    H264856   5.665   1.417   6.320  0.4750  1.4094 -1.2368
14481TIP3   OH264857   6.444   3.539  10.687 -0.0690  0.0444  0.1017
14481TIP3    H164858   6.497   3.545  10.766 -0.2074 -0.0478  0.2029
14481TIP3    H264859   6.478   3.608  10.629  1.4587 -1.2429 -0.6229
14482TIP3   OH264860   6.651   0.569  12.633 -0.3296 -0.2395  0.1726
14482TIP3    H164861   6.646   0.477  12.606 -1.2695 -0.7344  1.8229
14482TIP3    H264862   6.745   0.587  12.640 -0.1235 -0.8370 -0.8907
14483TIP3   OH264863   6.577   0.487   1.273 -0.1713  0.2050  0.1710
14483TIP3    H164864   6.661   0.532   1.266  0.3105 -0.7256 -0.1395
14483TIP3    H264865   6.535   0.502   1.188 -1.1627  2.2583  0.9579
14484TIP3   OH264866   4.795   2.090  16.928 -0.2149  0.1879 -0.0069
14484TIP3    H164867   4.727   2.126  16.873 -1.4486 -0.9598  0.7096
14484TIP3    H264868   4.851   2.040  16.868 -0.0192  1.0719 -0.5802
14485TIP3   OH264869   5.813   3.485  12.446 -0.2840  0.7306  0.1128
14485TIP3    H164870   5.800   3.395  12.417 -0.3130  0.3829  1.1699
14485TIP3    H264871   5.841   3.477  12.537  0.8240  1.7461 -0.1122
14486TIP3   OH264872   4.254   6.263   1.408  0.1006 -0.3046 -0.1884
14486TIP3    H164873   4.327   6.325   1.404  1.2460 -1.6070 -0.6518
14486TIP3    H264874   4.223   6.256   1.318 -0.4921  0.1027 -0.0225
14487TIP3   OH264875   3.401   0.091  13.572 -0.2523 -0.6114  0.1184
14487TIP3    H164876   3.333   0.135  13.623  0.4345 -1.9143  2.2716
14487TIP3    H264877   3.453   0.162  13.535 -1.0990  0.3835  0.7684
14488TIP3   OH264878   4.992   1.800   3.053 -0.4580 -0.6718  0.4295
14488TIP3    H164879   5.072   1.807   3.105 -0.9615  1.6296  0.9982
14488TIP3    H264880   4.926   1.767   3.113 -0.0418 -2.2519  0.0474
14489TIP3   OH264881   5.559   5.665  12.746  0.5783  0.1847 -0.0156
14489TIP3    H164882   5.471   5.701  12.729 -0.7585 -2.1238  1.4741
14489TIP3    H264883   5.559   5.580  12.702  1.7116 -0.2470  0.7783
14490TIP3   OH264884   2.282   4.829  15.854 -0.0540 -0.3319  0.3256
14490TIP3    H164885   2.253   4.745  15.818  0.4335 -0.1440 -0.5392
14490TIP3    H264886   2.264   4.822  15.947 -2.9537 -0.1679 -0.1311
14491TIP3   OH264887   0.683   3.484   2.566  0.8055  0.1183 -0.4194
14491TIP3    H164888   0.755   3.548   2.562  1.5665 -0.7306 -0.5365
14491TIP3    H264889   0.720   3.404   2.530 -0.6754  0.0745 -2.0072
14492TIP3   OH264890   4.509   1.035   1.825 -0.6421 -0.4339 -0.3022
14492TIP3    H164891   4.533   1.120   1.861  0.4720 -0.8031 -0.1524
14492TIP3    H264892   4.424   1.016   1.866 -0.7673  0.4657 -0.1176
14493TIP3   OH264893   4.884   4.473   6.060  0.7487 -0.3836  0.0824
14493TIP3    H164894   4.882   4.395   6.005  0.4832 -0.8796  0.7799
14493TIP3    H264895   4.814   4.459   6.123  1.3330 -0.0314  0.8229
14494TIP3   OH264896   2.615   5.227   0.814 -0.0629  0.0883  0.3820
14494TIP3    H164897   2.568   5.264   0.739  0.2231 -0.7205 -0.2090
14494TIP3    H264898   2.698   5.275   0.816 -0.9608  1.6752  1.5626
14495TIP3   OH264899   5.579   5.903  12.388  0.7744  0.5031  0.1752
14495TIP3    H164900   5.575   5.970  12.456 -0.8008  0.8500 -0.2090
14495TIP3    H264901   5.571   5.820  12.434 -0.1061  0.7293  0.4438
14496TIP3   OH264902   6.025   1.598   3.674  0.1734 -0.3719 -0.4458
14496TIP3    H164903   5.948   1.543   3.687 -1.7971  2.4325  0.8364
14496TIP3    H264904   6.099   1.537   3.677 -1.8989 -3.1511 -1.2439
14497TIP3   OH264905   3.050   4.531   2.082 -0.0428  0.1037  0.9098
14497TIP3    H164906   3.116   4.467   2.056  0.7643  0.4249  2.0796
14497TIP3    H264907   3.093   4.585   2.148 -1.5497  0.1878  1.8829
14498TIP3   OH264908   4.320   1.383   0.420 -0.1570 -0.3736 -0.6696
14498TIP3    H164909   4.410   1.402   0.392  0.1078 -1.1635 -0.3710
14498TIP3    H264910   4.289   1.466   0.457  1.4165 -0.7766  1.7507
14499TIP3   OH264911   6.056   6.093   5.067 -0.2403  0.0765 -0.2032
14499TIP3    H164912   6.081   6.068   5.156 -2.0849 -3.6497 -0.5225
14499TIP3    H264913   6.130   6.065   5.013 -0.4860 -0.7268 -0.1313
14500TIP3   OH264914   4.945   5.079  12.145  0.2773 -0.0346  0.0019
14500TIP3    H164915   4.948   5.174  12.155  0.6298  0.2315 -2.2140
14500TIP3    H264916   5.012   5.059  12.079 -1.3683 -1.5464 -1.2946
14501TIP3   OH264917   5.613   1.158   5.842 -0.1005  0.1784 -0.7293
14501TIP3    H164918   5.657   1.089   5.793  0.1700 -0.1717 -0.0120
14501TIP3    H264919   5.681   1.223   5.857  0.4814 -0.8113  1.2343
14502TIP3   OH264920   5.521   4.211   1.116  0.2200 -0.1962 -0.4828
14502TIP3    H164921   5.488   4.176   1.034  2.0394  2.4109 -2.5097
14502TIP3    H264922   5.506   4.305   1.110 -1.4049 -0.0430  3.1494
14503TIP3   OH264923   2.679   0.161  11.577 -0.3268 -0.3573  0.2828
14503TIP3    H164924   2.734   0.099  11.530 -0.2470 -0.2542  0.2424
14503TIP3    H264925   2.731   0.187  11.653 -0.4917 -0.5963  0.4809
14504TIP3   OH264926   5.946   0.458   5.987 -0.7011  0.5308 -0.2713
14504TIP3    H164927   5.989   0.523   6.043  0.8534 -2.7344  2.7518
14504TIP3    H264928   5.855   0.459   6.017 -0.4700  0.6429  0.4620
14505TIP3   OH264929   3.196   2.051   6.217  0.4356  0.0541  0.2541
14505TIP3    H164930   3.216   2.128   6.164  1.5678 -0.1149  0.4118
14505TIP3    H264931   3.238   1.979   6.171 -1.0353 -0.5816 -0.1704
14506TIP3   OH264932   0.905   4.899   2.573 -0.0811 -0.5716 -0.7193
14506TIP3    H164933   0.843   4.848   2.520  0.6838 -1.6321 -0.6465
14506TIP3    H264934   0.963   4.833   2.611 -0.9570  0.1092  1.9556
14507TIP3   OH264935   5.833   1.423   3.747 -0.2720  0.4758  0.1230
14507TIP3    H164936   5.865   1.398   3.833  1.1817 -0.5751 -0.6882
14507TIP3    H264937   5.795   1.343   3.710 -0.2304  0.7285 -0.4890
14508TIP3   OH264938   4.953   0.398   4.392  0.4003  0.7990  0.0017
14508TIP3    H164939   4.945   0.321   4.336  1.5937  0.8413 -0.2549
14508TIP3    H264940   5.043   0.394   4.425  0.3369  1.8410  0.3356
14509TIP3   OH264941   5.232   5.234   6.551  0.0109 -0.1296 -0.2296
14509TIP3    H164942   5.256   5.142   6.563 -0.9336 -0.7511 -2.5242
14509TIP3    H264943   5.294   5.266   6.486  1.2377  1.3278  1.5603
14510TIP3   OH264944   0.917   0.517  10.344 -0.3409  0.8287  0.6800
14510TIP3    H164945   0.866   0.597  10.330  0.0535  1.1012  0.8082
14510TIP3    H264946   1.005   0.548  10.365  1.1471  0.4073 -3.8398
14511TIP3   OH264947   1.270   5.161  16.351 -0.4552 -0.5484  0.0705
14511TIP3    H164948   1.192   5.175  16.405 -0.2065  0.1181  0.2664
14511TIP3    H264949   1.235   5.142  16.264 -0.8538 -1.3197  0.3854
14512TIP3   OH264950   3.265   2.589  12.982  0.5143  0.4672  0.3328
14512TIP3    H164951   3.241   2.497  12.974 -1.4733  0.9627 -0.1568
14512TIP3    H264952   3.357   2.593  12.958  0.3383 -1.2340 -0.7560
14513TIP3   OH264953   6.623   0.896   4.286  0.1694  0.1773 -0.2607
14513TIP3    H164954   6.657   0.904   4.197  0.8862 -1.4271 -0.1633
14513TIP3    H264955   6.545   0.841   4.277 -0.5296  1.1163 -0.0570
14514TIP3   OH264956   1.341   0.635  16.972  0.0368 -0.5095  0.4406
14514TIP3    H164957   1.287   0.573  17.021 -1.2494 -0.0476 -0.3615
14514TIP3    H264958   1.374   0.584  16.898  0.3321 -0.6567  0.6669
14515TIP3   OH264959   6.162   2.605  14.090  0.0347  0.4703 -0.0270
14515TIP3    H164960   6.097   2.535  14.096  1.2442 -1.3774 -4.5483
14515TIP3    H264961   6.246   2.562  14.102  0.6994  2.0577  1.5137
14516TIP3   OH264962   0.443   6.375   2.302  0.2724  0.1216 -0.1778
14516TIP3    H164963   0.471   6.358   2.392  0.4179 -1.4213 -0.4818
14516TIP3    H264964   0.439   6.470   2.296  1.0995  0.2789  1.2010
14517TIP3   OH264965   2.845   1.231  14.805 -0.2651 -0.2381  0.1685
14517TIP3    H164966   2.843   1.240  14.901  0.0418 -0.4400  0.1969
14517TIP3    H264967   2.863   1.138  14.791  1.5030  0.0942 -0.0622
14518TIP3   OH264968   0.704   0.815  14.365 -0.1005 -0.7836 -0.0690
14518TIP3    H164969   0.655   0.771  14.435  1.2373 -0.6947  0.9831
14518TIP3    H264970   0.637   0.857  14.311 -1.1905 -0.9897  1.0700
14519TIP3   OH264971   2.020   6.298  11.420 -0.2335 -0.1779 -0.3123
14519TIP3    H164972   2.073   6.282  11.499  0.4513 -0.5124 -0.8281
14519TIP3    H264973   2.059   6.240  11.354 -0.9886 -0.1151 -0.8130
14520TIP3   OH264974   6.762   2.910   5.523  0.2032  0.1184  0.4421
14520TIP3    H164975   6.738   2.835   5.578 -0.5655  0.7487  0.9928
14520TIP3    H264976   6.760   2.876   5.433 -0.1436 -0.5234  0.6884
14521TIP3   OH264977   6.468   3.180   1.131 -0.3082 -0.5413  0.1443
14521TIP3    H164978   6.403   3.179   1.061  1.3313 -1.1931 -1.4900
14521TIP3    H264979   6.486   3.087   1.148  0.9142 -0.3925 -0.2109
14522TIP3   OH264980   2.076   4.680  16.891 -0.2707  0.1816  0.2956
14522TIP3    H164981   2.063   4.675  16.986  0.3580  3.5138  0.6882
14522TIP3    H264982   2.081   4.589  16.862 -1.5954 -0.9488  3.2752
14523TIP3   OH264983   0.754   4.922  15.106 -0.1036 -0.0080  0.2017
14523TIP3    H164984   0.708   5.004  15.089  0.8620  0.3350 -0.8859
14523TIP3    H264985   0.833   4.926  15.051  0.9521 -0.8132  1.5763
14524TIP3   OH264986   1.323   5.596   5.629  0.7591 -0.1088 -0.1324
14524TIP3    H164987   1.396   5.537   5.609 -0.4946 -2.3989  1.6825
14524TIP3    H264988   1.349   5.640   5.710  0.6735  0.0265 -0.1783
14525TIP3   OH264989   1.556   2.123  11.963 -0.4024 -0.5157  0.1835
14525TIP3    H164990   1.604   2.040  11.958  2.1777  0.7402  2.0402
14525TIP3    H264991   1.602   2.181  11.903 -1.7927 -0.1575 -0.6000
14526TIP3   OH264992   4.967   0.936   1.287  0.4078  0.0645  0.2801
14526TIP3    H164993   4.916   1.017   1.285 -1.9657 -1.3293  0.2678
14526TIP3    H264994   4.912   0.872   1.241  1.6427 -1.8516  1.3205
14527TIP3   OH264995   6.240   5.884   4.753 -0.5401  0.1904 -0.2934
14527TIP3    H164996   6.175   5.855   4.818  1.0504  3.1490  2.9333
14527TIP3    H264997   6.310   5.819   4.759 -0.5615  0.2455  0.7390
14528TIP3   OH264998   1.598   3.855  12.712 -0.8540  0.2512  0.5474
14528TIP3    H164999   1.529   3.875  12.648  0.1890 -1.6920 -1.2857
14528TIP3    H265000   1.638   3.940  12.731 -0.7651  0.8355 -1.9282
14529TIP3   OH265001   4.388   4.775   1.594 -0.0607  0.3308 -0.1510
14529TIP3    H165002   4.347   4.857   1.565 -0.9893 -0.6113 -1.6337
14529TIP3    H265003   4.465   4.766   1.538 -0.0748  0.0744 -0.1278
14530TIP3   OH265004   0.033   6.381  16.846 -0.3272  0.3762  0.9378
14530TIP3    H165005   0.012   6.290  16.866 -2.4410  0.9355  1.4652
14530TIP3    H265006   0.030   6.425  16.931 -0.8128  1.2174  0.4893
14531TIP3   OH265007   6.012   5.362  11.132  0.1949  0.3335 -0.3479
14531TIP3    H165008   6.007   5.441  11.187 -2.3627  0.0210 -0.0422
14531TIP3    H265009   6.000   5.290  11.194  1.0929 -0.2611 -0.8391
14532TIP3   OH265010   0.770   3.093  11.214 -0.3540  0.3353  0.4938
14532TIP3    H165011   0.761   3.021  11.152 -0.3033  1.3138 -0.6761
14532TIP3    H265012   0.783   3.049  11.299 -1.3846 -1.0280 -0.0077
14533TIP3   OH265013   0.426   0.723  12.826  0.0822 -0.8322 -0.6911
14533TIP3    H165014   0.441   0.628  12.828  1.3884 -0.6502 -0.5610
14533TIP3    H265015   0.458   0.754  12.911 -0.1262 -0.2442 -0.8212
14534TIP3   OH265016   1.466   3.175   1.850  0.1200  0.4567 -0.4179
14534TIP3    H165017   1.428   3.143   1.769  0.1720  1.3768 -0.8151
14534TIP3    H265018   1.445   3.108   1.915 -1.4348  0.5244 -0.8102
14535TIP3   OH265019   0.341   6.080  16.284  0.2039  0.5420 -0.2027
14535TIP3    H165020   0.345   5.985  16.284  1.4706  0.5740  0.1742
14535TIP3    H265021   0.356   6.105  16.192  1.4283  0.4087 -0.0497
14536TIP3   OH265022   4.608   5.834   5.424  0.0405  0.0832  0.8711
14536TIP3    H165023   4.686   5.835   5.368 -1.4102 -2.0347 -1.3680
14536TIP3    H265024   4.552   5.903   5.388 -0.5098 -0.6566  0.2994
14537TIP3   OH265025   3.676   6.412   2.174 -0.2973 -0.0426 -0.1468
14537TIP3    H165026   3.700   6.423   2.266 -1.0697 -0.5531  0.1327
14537TIP3    H265027   3.606   6.346   2.176  0.3069 -0.7352 -1.1896
14538TIP3   OH265028   3.095   4.281   4.034 -0.1971  0.5796 -0.0149
14538TIP3    H165029   3.025   4.297   3.970  0.9296  2.5828 -0.8298
14538TIP3    H265030   3.132   4.368   4.051  2.6896 -0.5164 -0.2880
14539TIP3   OH265031   6.068   4.405   5.853 -0.1372 -0.1660 -0.5740
14539TIP3    H165032   5.994   4.412   5.793 -0.2323  0.2730 -0.4074
14539TIP3    H265033   6.030   4.419   5.940  0.1871  0.3710 -0.5136
14540TIP3   OH265034   3.921   6.753   1.564  0.0732  0.4497 -0.1760
14540TIP3    H165035   3.982   6.707   1.622  2.0821 -0.0916 -2.5275
14540TIP3    H265036   3.927   6.845   1.590  0.4206  0.1463  0.8650
14541TIP3   OH265037   6.201   2.265   2.783 -0.2979 -0.1237  0.2030
14541TIP3    H165038   6.210   2.175   2.750 -2.2056  0.1756 -1.3026
14541TIP3    H265039   6.218   2.258   2.877  1.2807 -1.7400 -0.1456
14542TIP3   OH265040   6.268   0.467   5.167  0.4174  0.0553  0.4232
14542TIP3    H165041   6.260   0.471   5.071  1.8648 -1.4096  0.1929
14542TIP3    H265042   6.351   0.511   5.187  0.1359  0.3310  1.0118
14543TIP3   OH265043   5.165   3.950  13.862 -0.1615  0.0119  0.4047
14543TIP3    H165044   5.227   4.009  13.905  1.4985 -1.5133  0.2119
14543TIP3    H265045   5.168   3.976  13.770 -0.1825  0.2762  0.4782
14544TIP3   OH265046   2.169   4.972  15.195  0.4270 -0.0388  0.1081
14544TIP3    H165047   2.168   5.060  15.159  0.8228 -0.2707 -0.4886
14544TIP3    H265048   2.205   4.982  15.283  2.8309  0.1028 -0.8220
14545TIP3   OH265049   5.414   1.441   3.651  0.3932 -0.2355 -0.1944
14545TIP3    H165050   5.434   1.424   3.559 -0.7544 -1.5146 -0.2368
14545TIP3    H265051   5.485   1.499   3.681  1.0699 -0.2287 -1.7249
14546TIP3   OH265052   5.421   2.053  14.756 -0.1474 -0.0346  0.3662
14546TIP3    H165053   5.458   1.965  14.755 -0.3187 -0.1078 -0.2046
14546TIP3    H265054   5.413   2.076  14.663  2.1880  1.5474  0.4733
14547TIP3   OH265055   2.413   3.290  13.492 -0.5141 -0.0799  0.2278
14547TIP3    H165056   2.396   3.230  13.564  0.1183 -0.3716  0.1447
14547TIP3    H265057   2.359   3.257  13.420  0.5565 -1.1568 -0.1206
14548TIP3   OH265058   3.656   1.321   1.441 -0.5663  0.4678  0.1758
14548TIP3    H165059   3.633   1.292   1.529 -1.5686  0.4101 -0.0841
14548TIP3    H265060   3.571   1.336   1.398 -0.1279  2.8878 -0.0026
14549TIP3   OH265061   1.235   4.231   6.055 -0.0832  0.5261 -0.2656
14549TIP3    H165062   1.298   4.258   6.121  0.4581 -0.6038 -0.3048
14549TIP3    H265063   1.165   4.188   6.105  0.1178  0.0542 -0.3921
14550TIP3   OH265064   1.710   6.268   5.410 -0.4435 -0.2059 -0.0528
14550TIP3    H165065   1.683   6.176   5.418  1.4913 -0.8311 -0.2479
14550TIP3    H265066   1.720   6.282   5.316 -0.1272  0.0139  0.0141
14551TIP3   OH265067   4.541   2.074  14.187  0.1962 -0.0694  0.0411
14551TIP3    H165068   4.604   2.073  14.114  1.8465  0.6313  1.4018
14551TIP3    H265069   4.456   2.090  14.144  1.2362  1.3190 -1.6491
14552TIP3   OH265070   4.546   1.972   2.409  0.4722 -0.0381 -0.7502
14552TIP3    H165071   4.552   1.960   2.314 -1.7710  0.9928 -1.0877
14552TIP3    H265072   4.452   1.967   2.428  0.7455  1.1522  1.2120
14553TIP3   OH265073   1.097   0.024  12.231 -0.3298 -0.2040 -0.6249
14553TIP3    H165074   1.031   0.093  12.240  0.7010  0.9848 -1.6758
14553TIP3    H265075   1.161   0.042  12.299 -1.1890 -1.5402  0.5945
14554TIP3   OH265076   5.623   2.652  15.375  0.8466  0.3004  0.4641
14554TIP3    H165077   5.637   2.675  15.284  0.6333  0.8497  0.5669
14554TIP3    H265078   5.636   2.734  15.423 -0.4569  0.3463  0.7765
14555TIP3   OH265079   1.127   3.528   0.879 -0.1785  0.1165  0.4301
14555TIP3    H165080   1.174   3.446   0.891 -2.8506 -1.4740  0.8886
14555TIP3    H265081   1.178   3.575   0.813  2.1282 -1.3110  1.0669
14556TIP3   OH265082   0.660   0.520  16.575  0.4171  0.2083 -0.2453
14556TIP3    H165083   0.683   0.603  16.616 -0.1073 -0.1888  0.8860
14556TIP3    H265084   0.566   0.525  16.559  0.1196 -0.6626  1.0629
14557TIP3   OH265085   3.870   4.947  14.347 -0.7784  0.0732  0.5010
14557TIP3    H165086   3.797   4.891  14.374 -0.0498 -0.7231  0.8333
14557TIP3    H265087   3.907   4.980  14.429  1.1136 -1.9430  0.5327
14558TIP3   OH265088   0.871   3.168   4.987 -0.4410 -0.4547 -0.0914
14558TIP3    H165089   0.816   3.183   4.910 -3.0657  1.3149  1.9399
14558TIP3    H265090   0.952   3.216   4.968 -0.6904 -0.6977 -1.9982
14559TIP3   OH265091   3.037   5.058  10.704  0.4591  0.1455  0.1091
14559TIP3    H165092   2.990   5.103  10.775 -0.2041 -0.1774 -0.1167
14559TIP3    H265093   3.023   5.113  10.627  0.8216  0.2767  0.1368
14560TIP3   OH265094   2.029   0.565  15.269 -0.5255 -0.3952  0.1069
14560TIP3    H165095   2.037   0.656  15.296 -2.1306  0.0747 -0.8619
14560TIP3    H265096   2.085   0.517  15.330 -0.3767  1.1286  1.2333
14561TIP3   OH265097   4.297   4.751   0.260  0.1912  0.2330 -0.8119
14561TIP3    H165098   4.265   4.700   0.186 -0.8733 -2.4449  1.3551
14561TIP3    H265099   4.218   4.778   0.307  0.8358  2.0826 -0.7073
14562TIP3   OH265100   5.232   0.820  16.533  0.1477 -1.1460 -0.1110
14562TIP3    H165101   5.174   0.896  16.529  1.1152 -0.1539  2.5008
14562TIP3    H265102   5.238   0.798  16.626  1.0977 -3.5049 -0.6447
14563TIP3   OH265103   1.472   1.452  16.371 -0.3111 -0.0875  0.8910
14563TIP3    H165104   1.502   1.522  16.429 -1.9876 -0.6880  2.5648
14563TIP3    H265105   1.447   1.381  16.430  0.1380 -1.6521 -0.7024
14564TIP3   OH265106   3.151   1.031   2.256  0.2935  0.0082 -0.0788
14564TIP3    H165107   3.094   1.109   2.258  0.0461 -0.1718 -0.0541
14564TIP3    H265108   3.090   0.958   2.245  0.4560 -0.2609  0.7978
14565TIP3   OH265109   6.459   1.952   4.391 -0.3872  0.0609 -0.4665
14565TIP3    H165110   6.510   1.871   4.381 -1.0068 -0.3068 -0.7519
14565TIP3    H265111   6.523   2.022   4.380 -0.0438 -0.3824 -1.4511
14566TIP3   OH265112   5.936   1.986  11.225 -0.3809 -0.3612  0.8208
14566TIP3    H165113   5.901   2.038  11.153  1.5209 -0.1602 -0.0217
14566TIP3    H265114   5.998   2.044  11.269  0.9814 -1.5338  0.5260
14567TIP3   OH265115   0.048   1.312  11.426  0.1447  0.1336 -0.3485
14567TIP3    H165116   0.031   1.235  11.372  1.4541 -0.5157  0.1131
14567TIP3    H265117   0.032   1.282  11.516 -1.1906  0.9625 -0.2863
14568TIP3   OH265118   6.439   1.546   5.666 -0.5678 -0.0736 -1.0934
14568TIP3    H165119   6.519   1.598   5.656 -0.3125 -0.0093  0.8400
14568TIP3    H265120   6.467   1.456   5.652  0.1278 -0.1664  0.6435
14569TIP3   OH265121   5.429   5.238   5.700  0.0953  0.6330  0.5198
14569TIP3    H165122   5.405   5.324   5.666 -0.9397  0.3181  0.4116
14569TIP3    H265123   5.357   5.214   5.758  1.5447  0.9029  2.5542
14570TIP3   OH265124   3.051   2.669   0.027 -0.3009  0.6241  0.4625
14570TIP3    H165125   3.092   2.755   0.022  0.6335  0.2287  1.0371
14570TIP3    H265126   3.065   2.631  -0.060  0.0525  0.7221  0.4735
14571TIP3   OH265127   5.617   6.405  11.243 -0.4049  0.2161  0.4605
14571TIP3    H165128   5.534   6.358  11.242 -1.2198  1.6100 -0.3022
14571TIP3    H265129   5.597   6.491  11.204  1.2027  0.8902  1.0290
14572TIP3   OH265130   5.780   1.184   4.501 -0.3554 -0.0631 -0.1215
14572TIP3    H165131   5.750   1.100   4.467 -1.0582 -0.6672  1.8466
14572TIP3    H265132   5.875   1.180   4.494 -0.3053 -1.5295  0.9800
14573TIP3   OH265133   6.708   2.750  16.936 -0.3700 -0.6849  0.4214
14573TIP3    H165134   6.646   2.787  16.998 -0.3369 -0.5822  0.3943
14573TIP3    H265135   6.682   2.787  16.851 -0.5319 -0.9727  0.3462
14574TIP3   OH265136   1.218   5.278  14.780  0.0906 -0.7282  0.0785
14574TIP3    H165137   1.243   5.187  14.764 -0.2292 -1.1310  1.7560
14574TIP3    H265138   1.241   5.323  14.698 -1.4681 -2.6328 -1.5230
14575TIP3   OH265139   1.267   5.599  16.922  0.1996  0.1603 -0.6608
14575TIP3    H165140   1.327   5.537  16.964 -3.0527 -3.8202 -1.2907
14575TIP3    H265141   1.274   5.581  16.829 -0.5825  1.0024 -0.9048
14576TIP3   OH265142   5.684   2.502   2.832  0.6084 -0.3712  0.1488
14576TIP3    H165143   5.768   2.491   2.787  0.2203  0.3156 -0.7882
14576TIP3    H265144   5.638   2.419   2.816  0.4616 -0.1236 -0.7742
14577TIP3   OH265145   4.149   0.804  10.607 -0.0129 -0.1852 -0.4017
14577TIP3    H165146   4.124   0.808  10.515 -1.6470  0.3495  0.0272
14577TIP3    H265147   4.180   0.714  10.620  0.4963 -0.1825 -1.5214
14578TIP3   OH265148   2.773   6.236   6.146 -0.3989  0.2949 -0.0461
14578TIP3    H165149   2.705   6.262   6.209 -0.1303 -0.5869  0.6276
14578TIP3    H265150   2.844   6.297   6.162 -1.0415  1.2780 -0.8089
14579TIP3   OH265151   2.162   5.307  11.888  0.3291  0.2573 -0.2715
14579TIP3    H165152   2.184   5.261  11.970 -3.6851 -0.4803  0.5989
14579TIP3    H265153   2.146   5.237  11.825  0.8899  0.7614 -0.9927
14580TIP3   OH265154   1.757   5.725  10.413  1.0426  0.2083 -0.2949
14580TIP3    H165155   1.693   5.663  10.447 -0.0956  2.0233  1.0167
14580TIP3    H265156   1.812   5.673  10.354 -3.6461 -0.9011 -4.2879
14581TIP3   OH265157   6.225   2.432  16.920  0.5012 -0.2403  0.2143
14581TIP3    H165158   6.296   2.473  16.870 -0.5408  0.4433 -0.7660
14581TIP3    H265159   6.146   2.477  16.890 -0.2502 -0.2622  2.0304
14582TIP3   OH265160   5.521   0.835   1.506 -0.2904  0.1755  0.5758
14582TIP3    H165161   5.493   0.926   1.497 -0.0737  0.1564 -0.3832
14582TIP3    H265162   5.440   0.785   1.512 -0.4113  0.4271  1.2078
14583TIP3   OH265163   0.625   6.290   0.524 -0.3410 -0.4391 -0.0199
14583TIP3    H165164   0.694   6.228   0.546 -1.0085 -1.0516  0.3890
14583TIP3    H265165   0.556   6.273   0.588 -0.7622  0.3537 -0.2464
14584TIP3   OH265166   3.296   0.869   2.926 -0.6718 -0.0243 -0.6861
14584TIP3    H165167   3.221   0.902   2.976  0.0256 -1.2186  1.2553
14584TIP3    H265168   3.369   0.926   2.950 -0.5103 -0.0865 -1.0184
14585TIP3   OH265169   1.067   5.956   6.095 -0.1502  0.0493  0.3234
14585TIP3    H165170   1.089   5.865   6.074 -0.7213  0.3749 -1.9466
14585TIP3    H265171   1.065   5.959   6.190  1.1582 -2.0010  0.4694
14586TIP3   OH265172   6.397   6.249  12.665  0.9131  0.8464  0.1537
14586TIP3    H165173   6.358   6.176  12.617  0.7548  0.7575  0.4149
14586TIP3    H265174   6.411   6.316  12.598 -0.8918  1.3795  0.2699
14587TIP3   OH265175   1.950   4.511  16.735 -0.3167  0.3816  0.3000
14587TIP3    H165176   1.978   4.470  16.654 -0.4040  1.4644 -0.2929
14587TIP3    H265177   1.953   4.440  16.800  2.5635  0.1243  0.0072
14588TIP3   OH265178   0.365   4.779  13.358 -0.6415 -0.6756  0.5414
14588TIP3    H165179   0.317   4.733  13.289  0.6828  0.3369 -1.1412
14588TIP3    H265180   0.376   4.868  13.324  1.3634 -0.5451  1.3866
14589TIP3   OH265181   6.789   5.457   2.935  0.8569 -0.5720 -0.1282
14589TIP3    H165182   6.803   5.472   2.841  1.5754 -2.4547 -0.3726
14589TIP3    H265183   6.777   5.362   2.942  1.5306 -0.5531  1.7641
14590TIP3   OH265184   4.596   2.242   2.477 -0.1671 -0.0260 -0.3038
14590TIP3    H165185   4.692   2.252   2.478 -0.3040  1.9417 -1.7317
14590TIP3    H265186   4.581   2.159   2.433  0.8927  0.3560 -1.4524
14591TIP3   OH265187   6.157   6.726  16.603 -0.4188 -0.1020 -0.2470
14591TIP3    H165188   6.236   6.671  16.600 -0.0139  0.3102  1.5659
14591TIP3    H265189   6.187   6.812  16.575 -0.0714  0.1889  0.9705
14592TIP3   OH265190   0.340   1.428   3.036 -0.1727 -0.0999 -0.3983
14592TIP3    H165191   0.302   1.359   3.091 -1.8933 -1.0012 -2.5971
14592TIP3    H265192   0.336   1.506   3.091 -1.7264 -0.9747  0.8347
14593TIP3   OH265193   4.430   1.981   1.236  0.2037 -0.0648 -0.4618
14593TIP3    H165194   4.463   1.892   1.233 -0.3709 -0.2552 -1.5369
14593TIP3    H265195   4.482   2.024   1.304  0.0503 -1.3870  0.5414
14594TIP3   OH265196   2.245   4.981  12.729  0.4283 -0.2020 -0.0952
14594TIP3    H165197   2.276   4.949  12.645  0.6298 -1.3666  0.3973
14594TIP3    H265198   2.186   4.912  12.761 -0.5962  0.7665  0.1823
14595TIP3   OH265199   5.742   3.536   4.694 -0.6082 -0.3784  0.3282
14595TIP3    H165200   5.745   3.622   4.652 -1.1218 -0.3526  0.3365
14595TIP3    H265201   5.815   3.488   4.656 -0.8229 -0.2195 -0.2984
14596TIP3   OH265202   4.533   3.299  13.000 -0.1513  0.2525 -0.8956
14596TIP3    H165203   4.536   3.243  13.077  0.1369 -0.4211 -1.3878
14596TIP3    H265204   4.439   3.310  12.983 -0.2373 -1.5556 -1.8252
14597TIP3   OH265205   6.748   4.663  16.212  0.0805 -0.5330 -0.0217
14597TIP3    H165206   6.784   4.576  16.191 -0.4422 -0.9868  0.9316
14597TIP3    H265207   6.661   4.645  16.247  0.6567  0.2403  1.9049
14598TIP3   OH265208   0.652   3.734   4.955  0.6463  0.6818 -0.1909
14598TIP3    H165209   0.713   3.661   4.946 -0.3228 -0.2038  0.0834
14598TIP3    H265210   0.603   3.714   5.035  0.3261  1.6082 -0.1453
14599TIP3   OH265211   1.327   1.491  16.843 -0.5904  0.1051  0.0323
14599TIP3    H165212   1.253   1.523  16.791 -0.1384  1.1855  0.0267
14599TIP3    H265213   1.299   1.501  16.933 -0.4379  0.5586  0.0305
14600TIP3   OH265214   1.086   1.835   2.193  0.3903  0.0298 -0.2070
14600TIP3    H165215   1.157   1.896   2.175  1.5291 -1.0347  0.5163
14600TIP3    H265216   1.039   1.827   2.109  0.7265  1.2161 -0.5238
14601TIP3   OH265217   2.299   0.795   2.411 -0.3294  0.0682  0.7626
14601TIP3    H165218   2.230   0.809   2.347 -0.9150 -3.1612  0.5570
14601TIP3    H265219   2.346   0.718   2.380  0.6014 -0.4490  3.1947
14602TIP3   OH265220   5.460   2.979   3.260  0.1516  0.2418  0.2792
14602TIP3    H165221   5.426   2.947   3.343  0.9449  0.7804  0.8241
14602TIP3    H265222   5.383   2.993   3.206 -0.3992  0.2201  1.0497
14603TIP3   OH265223   4.212   1.483   1.674 -0.0412 -0.3803  0.1007
14603TIP3    H165224   4.249   1.566   1.643  1.5109 -0.7024  0.9562
14603TIP3    H265225   4.154   1.509   1.746  0.7363 -0.0507  0.6210
14604TIP3   OH265226   1.348   6.536   4.810  0.0085  0.2582 -0.1245
14604TIP3    H165227   1.330   6.589   4.888 -0.6671 -3.0201  2.1547
14604TIP3    H265228   1.271   6.548   4.755 -1.3764 -0.2773  1.5700
14605TIP3   OH265229   2.428   0.560   2.369 -0.3692  0.0076  0.3900
14605TIP3    H165230   2.489   0.516   2.309  1.2514 -0.3826  2.2077
14605TIP3    H265231   2.385   0.489   2.417 -0.4433  0.3260  0.8025
14606TIP3   OH265232   3.135   2.570  11.399  0.1368  0.4665 -0.5213
14606TIP3    H165233   3.189   2.537  11.327  0.2615 -2.0828  0.6297
14606TIP3    H265234   3.195   2.583  11.471 -0.2093  1.6097 -0.4159
14607TIP3   OH265235   6.800   3.446  13.177  0.2225  0.1074  0.1441
14607TIP3    H165236   6.855   3.370  13.191  2.2923  1.5441  0.2069
14607TIP3    H265237   6.818   3.472  13.086 -0.0928  0.8095  0.2764
14608TIP3   OH265238   1.770   4.669  11.023  0.2009 -0.3224 -0.8367
14608TIP3    H165239   1.828   4.651  10.948  0.7559 -1.5954 -0.1314
14608TIP3    H265240   1.752   4.583  11.060  1.8490  0.3803  1.8972
14609TIP3   OH265241   6.312   5.928   6.506  0.4797 -0.6043  0.2955
14609TIP3    H165242   6.228   5.963   6.537 -0.4253 -1.0812 -1.4648
14609TIP3    H265243   6.376   5.959   6.569 -0.8890  0.6047  1.1515
14610TIP3   OH265244   6.098   3.007  14.334  0.2283  0.3748  0.5241
14610TIP3    H165245   6.117   3.051  14.417 -0.3533 -0.0994  0.9236
14610TIP3    H265246   6.152   3.051  14.270 -0.1133  1.4670  0.9692
14611TIP3   OH265247   1.646   4.152   4.238  0.0924  0.9086 -0.8267
14611TIP3    H165248   1.587   4.112   4.302  0.4081 -0.5142 -1.3875
14611TIP3    H265249   1.730   4.159   4.284  0.3137 -0.0942 -1.0560
14612TIP3   OH265250   1.592   5.762   5.493  0.1715  0.0093 -0.5253
14612TIP3    H165251   1.637   5.695   5.443 -2.4085 -2.6896  0.4462
14612TIP3    H265252   1.621   5.748   5.584  1.2882  1.7743 -0.5602
14613TIP3   OH265253   6.397   1.198   5.459  0.5471 -0.3751  0.1648
14613TIP3    H165254   6.354   1.226   5.378  2.1669 -0.8640 -0.8988
14613TIP3    H265255   6.324   1.174   5.517 -0.6362 -0.2954 -1.2312
14614TIP3   OH265256   3.041   6.142   4.346 -0.3179  0.6343 -0.9647
14614TIP3    H165257   2.963   6.161   4.398 -0.8838  0.5196 -1.7606
14614TIP3    H265258   3.008   6.129   4.257  0.6048  0.5454 -1.3009
14615TIP3   OH265259   5.940   2.994   2.745 -0.3839  0.2052  0.0628
14615TIP3    H165260   6.023   3.042   2.741 -0.0146 -0.2019  1.8730
14615TIP3    H265261   5.880   3.053   2.792 -0.5459 -0.2555  0.4456
14616TIP3   OH265262   6.073   4.045  12.767  0.0673 -0.4085  0.5308
14616TIP3    H165263   6.115   4.105  12.705  0.8353 -2.3804 -0.9724
14616TIP3    H265264   6.009   4.100  12.813  1.1915  1.6995 -0.2415
14617TIP3   OH265265   4.995   6.268   6.530  0.6159 -0.2718 -0.0422
14617TIP3    H165266   5.037   6.192   6.490 -1.3019 -1.9199  0.8998
14617TIP3    H265267   4.907   6.238   6.553 -0.0948  2.1342  0.7275
14618TIP3   OH265268   1.308   3.366  13.098 -0.2074 -0.5152 -0.1023
14618TIP3    H165269   1.364   3.312  13.043  0.8469  0.1095  0.3219
14618TIP3    H265270   1.318   3.331  13.186  2.1662  1.5853  0.5690
14619TIP3   OH265271   4.336   1.554   3.976  0.7651  0.3264 -0.0903
14619TIP3    H165272   4.412   1.593   4.017  1.2333 -0.2001 -0.4333
14619TIP3    H265273   4.288   1.627   3.937  0.3559  0.8163  1.2939
14620TIP3   OH265274   0.765   0.576   0.778 -0.2330  0.4880  0.0520
14620TIP3    H165275   0.778   0.482   0.764  0.3828  0.5800 -0.0142
14620TIP3    H265276   0.670   0.586   0.791 -0.8911  0.3297 -3.5704
14621TIP3   OH265277   0.264   1.272   3.725 -0.0299 -0.2047 -0.4497
14621TIP3    H165278   0.353   1.278   3.688 -1.1849 -1.2578 -3.7467
14621TIP3    H265279   0.272   1.311   3.812  3.3279  1.1029 -1.1739
14622TIP3   OH265280   6.429   3.689  16.407 -0.2647  0.2735 -0.9203
14622TIP3    H165281   6.412   3.685  16.501  0.3854 -1.9980 -0.8308
14622TIP3    H265282   6.351   3.731  16.371 -1.2431 -0.2557  0.4860
14623TIP3   OH265283   4.363   1.803   2.186 -0.6432  0.4162  0.5959
14623TIP3    H165284   4.349   1.849   2.103  0.3763 -1.1994 -0.5423
14623TIP3    H265285   4.285   1.822   2.238 -0.8981  2.2038 -0.3636
14624TIP3   OH265286   4.911   3.009   2.667 -0.6036  0.4135  0.1612
14624TIP3    H165287   4.966   3.041   2.739  0.3505  0.3055 -0.4953
14624TIP3    H265288   4.864   3.087   2.637  2.4775  1.6145 -2.1067
14625TIP3   OH265289   4.012   3.968  16.777 -0.9633  0.4425 -0.3336
14625TIP3    H165290   4.014   3.938  16.868 -3.2056 -0.4622 -0.5179
14625TIP3    H265291   3.996   3.889  16.726 -1.1121  1.1348 -1.3933
14626TIP3   OH265292   5.058   2.332  14.385  0.4096  0.1018  0.1044
14626TIP3    H165293   5.112   2.352  14.461  0.2202  2.2738 -0.2669
14626TIP3    H265294   5.099   2.254  14.346  1.2482 -0.2870  1.6889
14627TIP3   OH265295   1.475   6.312   4.219 -0.3617 -0.7037 -0.6954
14627TIP3    H165296   1.472   6.392   4.271  1.5803 -0.7467 -0.4249
14627TIP3    H265297   1.508   6.246   4.279  0.2356 -1.1594 -1.4970
14628TIP3   OH265298   5.581   6.787   4.134 -0.1336  0.5355  0.3515
14628TIP3    H165299   5.584   6.847   4.209  2.4924  0.7710  0.1534
14628TIP3    H265300   5.523   6.830   4.071  2.0088  3.2349  0.0234
14629TIP3   OH265301   3.571   3.429   1.590  0.4916  0.3861  0.2315
14629TIP3    H165302   3.652   3.401   1.632  0.8868  0.4032 -0.5015
14629TIP3    H265303   3.570   3.383   1.506  1.0769  2.3684 -0.9363
14630TIP3   OH265304   4.457   5.195  12.241 -0.0874 -0.4473  0.1745
14630TIP3    H165305   4.414   5.209  12.325  0.0810 -3.1887  0.8080
14630TIP3    H265306   4.456   5.281  12.199 -2.8378  0.3925  1.7072
14631TIP3   OH265307   5.538   4.086   0.089  0.4079  0.2000 -0.3655
14631TIP3    H165308   5.506   4.157   0.145 -0.5233  0.9115 -1.7345
14631TIP3    H265309   5.619   4.120   0.050  1.6877 -0.7253  1.3378
14632TIP3   OH265310   5.631   4.939  12.474 -0.6048  0.6929 -0.5836
14632TIP3    H165311   5.621   4.849  12.502  2.8941  0.3765  0.0869
14632TIP3    H265312   5.636   4.934  12.379  0.6902 -0.0124 -0.4975
14633TIP3   OH265313   5.003   6.255   4.241  0.7044  0.3255 -0.3065
14633TIP3    H165314   5.024   6.216   4.156  1.4205  1.2151 -0.5598
14633TIP3    H265315   5.088   6.284   4.276  0.7436 -1.9253  1.7168
14634TIP3   OH265316   2.349   2.439  13.208  0.0552 -0.1082  0.0479
14634TIP3    H165317   2.298   2.382  13.265  1.0130 -1.3309 -0.2616
14634TIP3    H265318   2.367   2.386  13.131  1.0368  0.5903 -0.2267
14635TIP3   OH265319   6.633   5.242  14.311  0.1004  0.4753 -0.6582
14635TIP3    H165320   6.692   5.209  14.380  0.4105  0.1851 -1.0544
14635TIP3    H265321   6.553   5.191  14.323 -0.6468  1.9302  0.8472
14636TIP3   OH265322   5.240   2.384  15.583  0.3797 -0.3708  0.0247
14636TIP3    H165323   5.282   2.458  15.541 -1.2881  0.3069 -0.5420
14636TIP3    H265324   5.300   2.357  15.652  1.0216  1.4995  0.2304
14637TIP3   OH265325   4.251   3.242   0.341  0.1979 -0.6986  0.1144
14637TIP3    H165326   4.162   3.275   0.339  0.1666 -0.7906 -0.0245
14637TIP3    H265327   4.306   3.319   0.331  0.1233 -0.6997 -0.3408
14638TIP3   OH265328   6.541   5.092  15.452 -0.0067 -0.5501  0.2473
14638TIP3    H165329   6.570   5.005  15.425 -1.3555 -0.5558 -1.3367
14638TIP3    H265330   6.600   5.152  15.406 -0.1064 -0.6077  0.0429
14639TIP3   OH265331   5.748   2.393  14.924  0.0206  0.4324 -0.4699
14639TIP3    H165332   5.776   2.382  15.015  0.5209  0.2474 -0.6395
14639TIP3    H265333   5.784   2.478  14.899 -0.8372  0.8766 -0.2435
14640TIP3   OH265334   6.219   4.759  10.973  0.2217  0.7553 -0.1961
14640TIP3    H165335   6.143   4.704  10.994  1.3755 -0.4020  1.1825
14640TIP3    H265336   6.266   4.711  10.905  1.0035  0.2179  0.7040
14641TIP3   OH265337   3.455   0.999   3.517  0.1931 -0.0955 -0.3337
14641TIP3    H165338   3.505   1.058   3.461 -0.4422 -0.0649 -0.8786
14641TIP3    H265339   3.494   0.913   3.501  0.5395  0.0332 -0.2049
14642TIP3   OH265340   1.565   2.579  14.101 -0.1743  0.7221  0.2715
14642TIP3    H165341   1.588   2.652  14.159  0.3876 -0.2371  1.2744
14642TIP3    H265342   1.474   2.560  14.122 -0.0213  0.4829  0.7222
14643TIP3   OH265343   2.940   1.472  15.459  0.2392 -0.1157  0.2346
14643TIP3    H165344   2.913   1.562  15.479 -0.7795  0.1294 -2.0531
14643TIP3    H265345   2.942   1.429  15.545 -0.0035  1.8666  1.3015
14644TIP3   OH265346   0.601   4.741  14.241  0.0586 -0.3931 -0.0276
14644TIP3    H165347   0.517   4.697  14.255  1.4905 -2.6269  2.3613
14644TIP3    H265348   0.611   4.798  14.317 -0.3574  1.8977 -1.5868
14645TIP3   OH265349   2.352   6.278   2.963  0.6546  0.0946  0.0169
14645TIP3    H165350   2.312   6.195   2.935 -0.1285 -0.1444  1.7057
14645TIP3    H265351   2.295   6.346   2.927 -0.5539 -0.2156  1.2537
14646TIP3   OH265352   4.401   2.701   5.951  0.5264  0.5077 -0.0483
14646TIP3    H165353   4.394   2.708   5.856  0.9452  2.5716  0.0274
14646TIP3    H265354   4.344   2.771   5.985  1.3714  0.6302  1.1793
14647TIP3   OH265355   6.357   1.966  12.435  0.2942 -0.0860  0.1161
14647TIP3    H165356   6.345   2.051  12.393 -0.8175  0.1144  0.8162
14647TIP3    H265357   6.350   1.984  12.528  2.2659 -0.6055  0.4080
14648TIP3   OH265358   1.138   1.244   3.211  0.1284 -0.2316 -0.3740
14648TIP3    H165359   1.198   1.259   3.283 -0.8036  0.5789  0.2624
14648TIP3    H265360   1.193   1.242   3.133  0.9083  1.1996  0.1167
14649TIP3   OH265361   6.804   5.488  12.583 -0.2040  0.0040  0.1937
14649TIP3    H165362   6.754   5.410  12.559 -0.1225 -0.2707  0.8878
14649TIP3    H265363   6.791   5.549  12.510  0.0567 -0.8069 -0.5393
14650TIP3   OH265364   0.391   1.882   0.961 -0.3114 -0.2877  0.3035
14650TIP3    H165365   0.300   1.869   0.932 -0.6555 -2.3016  2.0550
14650TIP3    H265366   0.443   1.827   0.902 -0.1994  0.7167 -0.5759
14651TIP3   OH265367   6.461   2.333   1.012  0.6308 -0.0237 -0.1722
14651TIP3    H165368   6.497   2.290   1.089 -0.4309  0.1575  0.4452
14651TIP3    H265369   6.492   2.423   1.018  1.8002 -0.3595 -0.7888
14652TIP3   OH265370   4.341   2.669  15.785  0.0542 -0.3609  0.1566
14652TIP3    H165371   4.338   2.764  15.797 -0.0903 -0.3473  0.0085
14652TIP3    H265372   4.268   2.636  15.837 -0.8780 -0.2649 -1.0507
14653TIP3   OH265373   6.475   3.443  16.034  0.3103 -0.1897 -0.4139
14653TIP3    H165374   6.486   3.434  15.939 -0.0933  1.1222 -0.6010
14653TIP3    H265375   6.382   3.430  16.049  0.5068 -1.2980 -0.0706
14654TIP3   OH265376   4.860   1.984  12.020 -0.3220  0.0845  0.0251
14654TIP3    H165377   4.800   1.909  12.015  0.4212 -0.5886  0.7890
14654TIP3    H265378   4.812   2.056  11.979 -0.9219 -0.8863 -1.0504
14655TIP3   OH265379   0.260   4.290  10.990 -0.4659 -0.1594  0.0622
14655TIP3    H165380   0.181   4.270  10.941 -1.1555  3.8092 -0.8152
14655TIP3    H265381   0.232   4.296  11.081 -1.1503  0.8261 -0.1963
14656TIP3   OH265382   4.452   5.500  13.568  0.1946 -0.9331  0.7707
14656TIP3    H165383   4.511   5.488  13.643  0.5263 -1.7148  0.3966
14656TIP3    H265384   4.467   5.423  13.513  1.6598  0.7128 -1.2693
14657TIP3   OH265385   2.441   4.255   5.653  0.0499  0.4363 -0.2331
14657TIP3    H165386   2.389   4.330   5.625 -2.4306 -0.6553  1.0939
14657TIP3    H265387   2.423   4.247   5.747  1.9873 -0.5455  0.1143
14658TIP3   OH265388   3.726   3.417  11.803 -0.3412  0.0864 -0.7234
14658TIP3    H165389   3.671   3.478  11.753 -0.2618 -0.8445 -1.9968
14658TIP3    H265390   3.693   3.330  11.779 -1.0894 -0.4033  1.8034
14659TIP3   OH265391   0.918   4.817   1.449  0.2697 -0.3312  0.0812
14659TIP3    H165392   0.841   4.858   1.489  0.3389  1.3748 -1.3795
14659TIP3    H265393   0.910   4.724   1.471 -2.1829 -0.2092  0.0278
14660TIP3   OH265394   6.482   4.546  15.081  0.0600 -0.4657  0.1901
14660TIP3    H165395   6.418   4.510  15.020 -0.6911  1.2270 -0.0672
14660TIP3    H265396   6.431   4.598  15.143  1.1184  0.3885  0.3821
14661TIP3   OH265397   3.155   2.178  13.707 -0.4432 -0.2069 -0.5323
14661TIP3    H165398   3.139   2.114  13.777  1.2849 -3.0413 -2.5185
14661TIP3    H265399   3.068   2.199  13.674 -1.1242 -0.9105  0.7164
14662TIP3   OH265400   2.998   0.043   0.521 -0.1614  0.0617  0.5688
14662TIP3    H165401   3.005   0.095   0.602  0.9991  2.2062 -0.8174
14662TIP3    H265402   2.937   0.093   0.466  1.0717  0.0772 -0.8455
14663TIP3   OH265403   0.696   5.961   4.172  0.1947  0.1417  0.0183
14663TIP3    H165404   0.625   5.899   4.155 -0.3900  0.8602 -0.2122
14663TIP3    H265405   0.774   5.917   4.140 -0.3997  0.0665 -1.4426
14664TIP3   OH265406   0.054   5.845  12.214  0.2385 -0.4562  0.4081
14664TIP3    H165407   0.141   5.806  12.223  0.2413 -0.4016  0.6194
14664TIP3    H265408   0.070   5.939  12.216  0.3486 -0.4137 -1.1442
14665TIP3   OH265409   2.946   4.817   3.767  0.2947  0.4008  0.0308
14665TIP3    H165410   3.030   4.796   3.726  0.8275  0.8051  0.8848
14665TIP3    H265411   2.963   4.897   3.816 -0.7991  0.9211 -0.4044
14666TIP3   OH265412   6.114   3.534   3.058 -0.1312 -0.0682 -0.1873
14666TIP3    H165413   6.070   3.516   3.141 -0.2524  1.1883  0.0442
14666TIP3    H265414   6.193   3.480   3.061 -0.2517 -0.2178  0.6545
14667TIP3   OH265415   4.239   1.515  17.017  0.3408 -0.3560 -0.1615
14667TIP3    H165416   4.227   1.422  16.999  1.0361 -0.7899  1.4822
14667TIP3    H265417   4.158   1.542  17.061  1.0876 -0.7890  1.5389
14668TIP3   OH265418   2.489   1.299   5.329  0.3544 -0.0848 -0.4535
14668TIP3    H165419   2.480   1.209   5.297  1.4049 -0.5236  0.4319
14668TIP3    H265420   2.440   1.300   5.411 -2.9030  1.2180 -2.2003
14669TIP3   OH265421   2.749   0.036   4.591 -1.0549  0.4968 -0.1312
14669TIP3    H165422   2.663   0.037   4.550 -0.6711  1.5767 -0.9560
14669TIP3    H265423   2.792  -0.042   4.554 -1.5992  0.0460  0.1642
14670TIP3   OH265424   6.290   0.036   1.907  0.7436 -0.0886  0.0377
14670TIP3    H165425   6.202   0.042   1.870  1.1394 -0.6911 -1.0272
14670TIP3    H265426   6.281   0.075   1.995 -0.5271  0.0445 -0.1265
14671TIP3   OH265427   3.514   1.500  14.883  0.0974 -0.0168 -0.1490
14671TIP3    H165428   3.473   1.417  14.861  1.9834 -0.6441 -1.5441
14671TIP3    H265429   3.476   1.524  14.968 -3.1854 -0.4223 -1.3589
14672TIP3   OH265430   5.939   0.452  13.938  0.0910 -0.0957 -0.4411
14672TIP3    H165431   5.899   0.494  13.861 -1.2796 -0.1431  0.2179
14672TIP3    H265432   6.023   0.420  13.906  0.4143  1.5830 -1.4252
14673TIP3   OH265433   2.822   5.940   5.584  0.1032 -0.5048  0.3846
14673TIP3    H165434   2.792   5.912   5.497 -0.7715  0.9681  0.1722
14673TIP3    H265435   2.751   5.912   5.643 -1.4332  2.2296 -0.0032
14674TIP3   OH265436   1.817   3.096   1.938  0.3644  0.2766  0.4645
14674TIP3    H165437   1.907   3.106   1.969  0.1199 -0.4964  1.4559
14674TIP3    H265438   1.765   3.094   2.018 -0.2382 -2.3670  0.0773
14675TIP3   OH265439   4.438   2.423   5.985 -0.3710  0.3794 -0.0152
14675TIP3    H165440   4.355   2.402   6.027 -1.9881 -0.5933 -3.3554
14675TIP3    H265441   4.432   2.516   5.964 -1.2665  0.0479 -1.3789
14676TIP3   OH265442   0.526   3.712  13.816  0.1489  0.1475  0.2125
14676TIP3    H165443   0.485   3.629  13.790 -1.6604  0.5789  1.4764
14676TIP3    H265444   0.476   3.741  13.892  0.4735  2.5901 -0.4024
14677TIP3   OH265445   1.020   3.536   2.633 -0.1511 -0.3773  0.0455
14677TIP3    H165446   0.996   3.454   2.588  1.2347 -1.1195  0.6111
14677TIP3    H265447   0.953   3.599   2.605 -0.8929 -1.5366 -0.8864
14678TIP3   OH265448   0.160   0.848  13.117 -0.5577 -0.0942  0.6279
14678TIP3    H165449   0.106   0.891  13.050  0.1484 -1.1588 -0.6849
14678TIP3    H265450   0.151   0.755  13.099 -0.3270 -0.4131  2.0311
14679TIP3   OH265451   4.868   0.429  10.753 -0.5816 -0.1524 -0.4341
14679TIP3    H165452   4.952   0.459  10.719  0.0738  0.7697  1.7906
14679TIP3    H265453   4.838   0.363  10.690  0.5759  1.2841 -2.5939
14680TIP3   OH265454   6.691   0.263  11.377 -0.1103  0.3588  0.5256
14680TIP3    H165455   6.686   0.357  11.392  1.8974  0.7177 -0.6835
14680TIP3    H265456   6.747   0.254  11.300 -2.0843 -1.7513 -0.8054
14681TIP3   OH265457   4.307   2.620   5.648 -0.7638 -0.3564 -0.3851
14681TIP3    H165458   4.335   2.535   5.614 -1.0542 -0.8593  0.5770
14681TIP3    H265459   4.386   2.675   5.645  0.0204 -1.3304  0.9970
14682TIP3   OH265460   2.014   3.519   2.507  0.5508 -0.1350  0.1329
14682TIP3    H165461   1.946   3.586   2.512  0.2464 -0.5346  2.1485
14682TIP3    H265462   2.068   3.534   2.584  0.3960 -2.2477  0.7245
14683TIP3   OH265463   2.396   5.865  15.475 -0.4663  0.3373  0.1710
14683TIP3    H165464   2.379   5.847  15.567  0.9470  2.6017  0.9459
14683TIP3    H265465   2.339   5.939  15.454 -0.1900  0.3554 -0.5398
14684TIP3   OH265466   1.022   2.551   0.677 -0.4125  0.3533  0.1543
14684TIP3    H165467   1.068   2.520   0.599 -1.7797 -0.1777 -0.4610
14684TIP3    H265468   1.076   2.624   0.709 -0.4779  1.4455 -2.0298
14685TIP3   OH265469   4.849   3.251  14.150  0.1791  0.2834 -0.4539
14685TIP3    H165470   4.870   3.340  14.180 -0.9006  0.3546  0.1496
14685TIP3    H265471   4.761   3.259  14.113  0.7356 -0.2049 -1.9662
14686TIP3   OH265472   2.554   6.206  10.806 -0.3542 -0.0644 -0.2206
14686TIP3    H165473   2.551   6.123  10.758 -2.3939  0.1254 -0.5004
14686TIP3    H265474   2.466   6.216  10.841  0.3921  1.0700  1.4404
14687TIP3   OH265475   5.204   6.599   4.189  0.2271 -0.5715  0.1295
14687TIP3    H165476   5.216   6.589   4.094  1.1244  1.2371  0.0094
14687TIP3    H265477   5.235   6.687   4.208  1.0950 -1.2807  2.2970
14688TIP3   OH265478   4.203   5.642   0.363 -0.0143 -0.2561  0.3159
14688TIP3    H165479   4.109   5.627   0.358 -0.0528 -0.2375  0.9731
14688TIP3    H265480   4.214   5.736   0.344 -0.0006 -0.5245 -1.1240
14689TIP3   OH265481   1.433   4.705  13.990 -0.2421 -0.4150  0.4800
14689TIP3    H165482   1.500   4.658  13.940 -0.6965 -1.9961  1.2934
14689TIP3    H265483   1.361   4.643  13.996 -0.9884  0.5192  1.3449
14690TIP3   OH265484   4.688   0.403   2.637  0.0925 -0.0276  0.0924
14690TIP3    H165485   4.756   0.376   2.699 -1.3789 -0.3188  1.6867
14690TIP3    H265486   4.654   0.320   2.603 -0.1994  0.0603  0.1665
14691TIP3   OH265487   3.883   0.254  15.669  0.2169  0.3282 -0.0751
14691TIP3    H165488   3.857   0.295  15.751 -3.1649 -1.7797  0.1465
14691TIP3    H265489   3.969   0.216  15.686 -0.1856  0.3633  2.3565
14692TIP3   OH265490   0.086   4.568  12.818 -0.5335  0.1373  0.1947
14692TIP3    H165491   0.087   4.656  12.856 -1.9242 -0.5978  2.1022
14692TIP3    H265492   0.105   4.510  12.892 -1.9436 -1.2920 -0.4965
14693TIP3   OH265493   0.483   2.416  14.757 -0.3496 -0.8111  0.1964
14693TIP3    H165494   0.538   2.407  14.835 -0.0012 -1.0410 -0.0710
14693TIP3    H265495   0.430   2.493  14.774 -0.0160 -0.6462  0.5098
14694TIP3   OH265496   5.832   4.669   1.281 -0.3106 -0.1816  0.2997
14694TIP3    H165497   5.892   4.624   1.341 -0.7201 -1.0608  0.0637
14694TIP3    H265498   5.747   4.629   1.298 -0.6365  0.3269 -0.1042
14695TIP3   OH265499   3.627   6.270  15.819  0.1354  0.0145  0.6127
14695TIP3    H165500   3.641   6.356  15.858  1.1368 -0.1131  0.5420
14695TIP3    H265501   3.714   6.236  15.800 -0.2851 -0.3140 -0.9129
14696TIP3   OH265502   6.044   2.136   1.839  0.1555  0.4199  0.2399
14696TIP3    H165503   6.096   2.079   1.895  1.0982  1.1173  0.1023
14696TIP3    H265504   6.086   2.221   1.846 -0.3536  0.7618 -0.6972
14697TIP3   OH265505   2.329   3.028  17.139  0.0509 -0.0379 -0.8231
14697TIP3    H165506   2.303   2.985  17.220 -0.6174  0.7595 -0.5952
14697TIP3    H265507   2.369   3.110  17.167 -1.0743  0.6998 -1.3086
14698TIP3   OH265508   1.854   3.017  12.339 -0.2092  0.0844  0.0147
14698TIP3    H165509   1.826   3.086  12.399 -0.3780 -0.0418  0.0820
14698TIP3    H265510   1.927   3.055  12.291  1.7285 -0.6987  2.1518
14699TIP3   OH265511   2.915   3.098  10.535  0.1426  0.2407 -0.5784
14699TIP3    H165512   2.835   3.106  10.586 -0.3484  1.3506 -1.4744
14699TIP3    H265513   2.894   3.034  10.467 -0.3289  1.2518 -1.4059
14700TIP3   OH265514   6.027   4.268   4.176 -0.5153 -0.0259  0.4448
14700TIP3    H165515   6.082   4.203   4.219 -0.1494 -0.4700 -0.6567
14700TIP3    H265516   5.944   4.264   4.223 -0.3163 -0.8967  0.7375
14701TIP3   OH265517   1.777   2.949  15.326  0.3265 -0.5037  0.2623
14701TIP3    H165518   1.710   2.897  15.371 -1.5078  2.4055  1.1918
14701TIP3    H265519   1.830   2.884  15.280 -4.2076 -3.0432 -2.1586
14702TIP3   OH265520   2.564   5.556   2.094 -0.2892  0.4071 -0.1260
14702TIP3    H165521   2.541   5.537   2.185  1.9105 -0.4258  0.3219
14702TIP3    H265522   2.611   5.478   2.065 -2.6280 -0.1979 -2.6722
14703TIP3   OH265523   5.591   0.351  10.207  0.3691 -0.4971 -0.2670
14703TIP3    H165524   5.510   0.311  10.176  0.6449 -0.4011 -1.1629
14703TIP3    H265525   5.564   0.410  10.278 -0.2906 -0.7567 -0.2960
14704TIP3   OH265526   3.247   0.582  10.766  0.0870 -0.0003  0.3387
14704TIP3    H165527   3.264   0.672  10.739 -0.1638 -0.0694 -0.0565
14704TIP3    H265528   3.219   0.589  10.858  1.0023  0.2248  0.6021
14705TIP3   OH265529   4.890   3.170   1.144 -0.1408  0.6221 -0.7552
14705TIP3    H165530   4.857   3.109   1.210  0.2273  1.5675  0.3314
14705TIP3    H265531   4.848   3.142   1.063 -2.6440  1.0049  0.3238
14706TIP3   OH265532   5.884   4.860  11.788 -0.2048 -0.1865  0.3793
14706TIP3    H165533   5.916   4.870  11.698 -2.7162 -0.2257 -0.5852
14706TIP3    H265534   5.891   4.766  11.805  0.2687 -0.1819  0.2327
14707TIP3   OH265535   5.990   3.554  13.559  0.2122  0.0926 -0.3653
14707TIP3    H165536   5.995   3.510  13.644  1.1548 -0.7797 -0.8448
14707TIP3    H265537   5.991   3.647  13.580  0.4169 -0.1111  0.5770
14708TIP3   OH265538   3.405   3.115  13.531 -0.2085 -0.0178 -0.2516
14708TIP3    H165539   3.317   3.153  13.539  0.1878  0.8101  0.2333
14708TIP3    H265540   3.403   3.066  13.449 -1.4151 -0.7766  0.1944
14709TIP3   OH265541   0.008   0.382  12.076  0.0831 -0.2932  0.1175
14709TIP3    H165542  -0.078   0.399  12.115 -0.6079 -1.2112 -0.9412
14709TIP3    H265543   0.029   0.462  12.028  1.3781  1.2413  2.9869
14710TIP3   OH265544   5.053   1.778   1.145 -0.4385 -0.5250  0.0930
14710TIP3    H165545   5.139   1.792   1.105 -0.6475  0.2956 -0.0762
14710TIP3    H265546   5.071   1.777   1.239 -0.4306  1.1211  0.1303
14711TIP3   OH265547   3.011   2.078   5.852 -0.1630  0.0074  0.1020
14711TIP3    H165548   2.954   2.058   5.926  0.3258  0.5981  0.6444
14711TIP3    H265549   2.990   2.011   5.787 -0.8568 -0.2969  0.6285
14712TIP3   OH265550   5.307   3.253   3.445  0.0791  0.1077  0.1228
14712TIP3    H165551   5.276   3.339   3.473  1.8073  0.2415  1.8627
14712TIP3    H265552   5.360   3.270   3.367 -0.2180  0.5116  0.0105
14713TIP3   OH265553   1.420   3.616  13.039  0.0973 -0.5094  0.2120
14713TIP3    H165554   1.504   3.591  13.077 -0.0331 -0.2892  0.6545
14713TIP3    H265555   1.367   3.537  13.044  0.0327 -0.4431  0.6345
14714TIP3   OH265556   4.669   5.421  11.792 -0.4374 -0.4347  0.0225
14714TIP3    H165557   4.759   5.444  11.815  0.8938 -0.6855 -4.0649
14714TIP3    H265558   4.620   5.502  11.800  1.5167  1.2054 -2.8195
14715TIP3   OH265559   3.848   3.736   3.850  0.3691  0.6361 -0.6140
14715TIP3    H165560   3.833   3.831   3.855  1.7521  0.8111  0.9740
14715TIP3    H265561   3.926   3.727   3.796  0.2077  0.3859 -0.8088
14716TIP3   OH265562   2.289   6.242   4.277  0.5769 -0.0628  0.2939
14716TIP3    H165563   2.244   6.308   4.329  0.5861  0.6656 -0.6094
14716TIP3    H265564   2.225   6.172   4.265 -0.0431  0.6137 -0.3167
14717TIP3   OH265565   3.136   4.830   3.324 -0.1742 -0.1994  0.2266
14717TIP3    H165566   3.228   4.858   3.324 -1.2882  4.3086 -0.8837
14717TIP3    H265567   3.112   4.825   3.416  0.7615  0.3210  0.5097
14718TIP3   OH265568   4.056   1.619  15.007  0.5142 -0.1240  0.7804
14718TIP3    H165569   3.971   1.583  14.981  0.1394 -0.2525  2.1081
14718TIP3    H265570   4.074   1.579  15.092  1.4940  0.5723  0.9160
14719TIP3   OH265571   3.284   6.180  16.387 -0.0559 -0.3137  0.7336
14719TIP3    H165572   3.336   6.252  16.352  0.7221  0.3641  3.0552
14719TIP3    H265573   3.237   6.145  16.312 -1.2397  3.2248 -0.3711
14720TIP3   OH265574   3.083   1.261   0.923 -0.3150 -0.6077  0.5124
14720TIP3    H165575   3.083   1.282   0.830  2.9244  0.5366  0.6678
14720TIP3    H265576   3.152   1.196   0.933 -0.9674 -1.1200  2.0865
14721TIP3   OH265577   5.504   5.146   0.547  0.2263  0.0527  0.1055
14721TIP3    H165578   5.550   5.079   0.598  0.8235 -0.5536 -1.1858
14721TIP3    H265579   5.493   5.107   0.461 -0.9024  0.9991 -0.1954
14722TIP3   OH265580   2.603   1.147   0.613 -0.0299 -0.2620  0.5403
14722TIP3    H165581   2.565   1.234   0.621  0.7109  0.0028  1.4547
14722TIP3    H265582   2.640   1.144   0.525  0.7258  0.6954  0.8085
14723TIP3   OH265583   6.755   2.013   2.579  0.2755  0.5269 -0.0163
14723TIP3    H165584   6.661   2.014   2.600  0.1500 -0.5057 -0.4976
14723TIP3    H265585   6.796   2.060   2.652 -0.6173  1.0321  0.1719
14724TIP3   OH265586   4.296   1.675   4.403  0.6337  0.1256  0.4288
14724TIP3    H165587   4.233   1.643   4.468 -0.0229 -1.0422 -0.7306
14724TIP3    H265588   4.264   1.639   4.320  2.5203 -0.0121 -0.2721
14725TIP3   OH265589   0.549   0.558   2.054  0.1074  0.0559  0.2757
14725TIP3    H165590   0.513   0.486   2.003  2.6881 -1.2057  0.1243
14725TIP3    H265591   0.603   0.607   1.992 -0.6610  1.4913  0.6694
14726TIP3   OH265592   5.797   2.020   0.710 -0.4145  0.1169  0.2314
14726TIP3    H165593   5.766   2.110   0.704 -0.6586  0.0196 -0.0378
14726TIP3    H265594   5.882   2.026   0.754 -1.2334  0.3069  1.8727
14727TIP3   OH265595   2.461   2.264   5.731  0.4930 -0.0829  0.1787
14727TIP3    H165596   2.405   2.342   5.729 -1.4861 -1.4279 -2.6502
14727TIP3    H265597   2.549   2.298   5.720 -0.3166  1.7749 -1.0682
14728TIP3   OH265598   0.182   4.101  15.320  0.7707  0.2908  0.3859
14728TIP3    H165599   0.096   4.138  15.299  0.7744  0.0334 -0.0960
14728TIP3    H265600   0.213   4.064  15.238 -0.4619 -3.3306  1.3697
14729TIP3   OH265601   5.576   5.477   1.321  0.0534  0.0813  0.0437
14729TIP3    H165602   5.667   5.499   1.341  0.3248 -1.2329  0.3603
14729TIP3    H265603   5.581   5.426   1.241 -0.5316  0.9179 -0.5419
14730TIP3   OH265604   4.046   5.655  11.894 -0.0277 -0.5582  0.2853
14730TIP3    H165605   4.020   5.614  11.976 -0.0677 -0.7960  0.1544
14730TIP3    H265606   3.980   5.723  11.878 -0.3764 -0.9365  0.1226
14731TIP3   OH265607   2.065   6.377  12.113 -0.1975 -0.1487 -0.1726
14731TIP3    H165608   2.006   6.319  12.066  0.7929  0.5195 -2.3983
14731TIP3    H265609   2.145   6.325  12.126 -0.3542 -0.2254  0.5255
14732TIP3   OH265610   1.369   1.781   2.300 -0.6243 -0.3648  0.1252
14732TIP3    H165611   1.273   1.786   2.300 -0.8271 -2.8788  0.3893
14732TIP3    H265612   1.393   1.765   2.209 -0.9202 -4.2937  0.5784
14733TIP3   OH265613   5.999   0.577   3.875 -0.1480 -0.2634  0.0691
14733TIP3    H165614   5.975   0.669   3.869 -1.7497 -0.6598 -0.1319
14733TIP3    H265615   5.925   0.530   3.836  0.1911 -1.6861  1.0341
14734TIP3   OH265616   5.230   5.778  15.344  0.7886  0.1200 -0.7815
14734TIP3    H165617   5.183   5.712  15.395  0.9792  0.4764 -0.1383
14734TIP3    H265618   5.187   5.861  15.366  1.4361  0.3927 -0.5130
14735TIP3   OH265619   4.541   2.993   6.165  0.2479  0.1298  0.1532
14735TIP3    H165620   4.452   3.022   6.144  0.3461 -0.2221 -0.7967
14735TIP3    H265621   4.530   2.905   6.200  0.2578 -0.1556 -0.5357
14736TIP3   OH265622   1.315   4.335   5.290  0.1833 -0.3756  0.2338
14736TIP3    H165623   1.285   4.418   5.253  1.6390 -0.2429 -0.7457
14736TIP3    H265624   1.312   4.348   5.385 -0.9832  0.2569  0.1354
14737TIP3   OH265625   6.560   3.262  16.438 -0.9141 -0.2160  0.1372
14737TIP3    H165626   6.558   3.201  16.364 -2.7375 -0.2495  0.1572
14737TIP3    H265627   6.540   3.207  16.514  1.4397 -0.2757  0.7912
14738TIP3   OH265628   5.619   4.543  16.095  0.3100 -1.0368  0.0398
14738TIP3    H165629   5.601   4.476  16.030  0.7671  0.0031 -1.1974
14738TIP3    H265630   5.693   4.509  16.145 -0.2283 -1.9754  0.2292
14739TIP3   OH265631   1.525   6.674   6.067 -0.2792 -0.7056  0.0840
14739TIP3    H165632   1.479   6.752   6.097 -0.3796 -0.3161 -1.0277
14739TIP3    H265633   1.581   6.649   6.140  0.0189  0.6273  0.3281
14740TIP3   OH265634   4.968   6.719  16.880  0.3560 -0.1893 -0.2685
14740TIP3    H165635   5.005   6.632  16.895 -0.3461 -0.4513 -0.0088
14740TIP3    H265636   4.926   6.713  16.794 -1.5625 -0.7871  0.6602
14741TIP3   OH265637   6.108   2.735  14.535 -0.8378 -0.4553 -0.2871
14741TIP3    H165638   6.125   2.644  14.561  2.0593  0.1205  0.2362
14741TIP3    H265639   6.195   2.769  14.511 -0.7093  3.5951  4.2366
14742TIP3   OH265640   1.362   1.395   4.371 -0.2990  0.2357 -0.2826
14742TIP3    H165641   1.361   1.438   4.456  0.0593  1.5318 -0.8914
14742TIP3    H265642   1.304   1.448   4.317  0.1957 -0.0136 -1.0816
14743TIP3   OH265643   5.365   2.022   2.525 -0.1098  0.1523 -0.7171
14743TIP3    H165644   5.410   1.959   2.581 -0.2735 -0.7513 -1.5696
14743TIP3    H265645   5.272   2.011   2.548 -0.2387 -0.6576 -1.5677
14744TIP3   OH265646   1.203   2.894  16.988 -0.2995 -0.2106 -0.4784
14744TIP3    H165647   1.157   2.901  16.904 -2.5406 -0.7555  0.6340
14744TIP3    H265648   1.290   2.931  16.970 -1.3402  1.4911 -2.5422
14745TIP3   OH265649   2.541   6.451   1.707  0.1960 -0.7148  0.0021
14745TIP3    H165650   2.559   6.496   1.624 -0.8276 -0.0931  0.0930
14745TIP3    H265651   2.448   6.431   1.703  0.5626 -2.6648  0.0798
14746TIP3   OH265652   4.957   4.173   0.065  0.0936 -0.5690 -0.6283
14746TIP3    H165653   4.993   4.258   0.091 -1.0032 -0.7385  1.8048
14746TIP3    H265654   4.996   4.111   0.127 -1.6705 -1.2645 -0.1545
14747TIP3   OH265655   2.906   0.672   3.814  0.3503  0.4020 -0.5880
14747TIP3    H165656   2.921   0.621   3.734  0.5118 -0.7890  0.1804
14747TIP3    H265657   2.812   0.689   3.814 -0.2883 -2.5814  0.6578
14748TIP3   OH265658   4.739   4.702  13.920 -0.3468 -0.4320 -0.6798
14748TIP3    H165659   4.803   4.680  13.853  1.4335  0.3638  0.6747
14748TIP3    H265660   4.743   4.629  13.983 -0.9787 -0.5062 -0.7173
14749TIP3   OH265661   1.510   4.432  14.444 -0.4813  0.2942  0.7379
14749TIP3    H165662   1.598   4.402  14.466 -0.5227 -0.0375  0.4528
14749TIP3    H265663   1.524   4.509  14.388 -0.3235 -1.1368 -1.3093
14750TIP3   OH265664   6.778   4.729   5.927 -0.2513  0.0622 -0.4904
14750TIP3    H165665   6.852   4.732   5.866 -1.5067 -1.9876 -2.2662
14750TIP3    H265666   6.711   4.678   5.881 -1.1317 -2.0514  2.7814
14751TIP3   OH265667   3.315   3.998  17.016 -0.2944 -0.1131 -0.0374
14751TIP3    H165668   3.284   4.075  16.967  0.3294 -0.4006 -0.9060
14751TIP3    H265669   3.385   4.032  17.072  2.3526 -0.5272 -2.8284
14752TIP3   OH265670   3.756   2.981   3.996 -0.3502  0.4621  0.6534
14752TIP3    H165671   3.747   2.958   3.903 -0.6828  0.1286  0.7712
14752TIP3    H265672   3.757   2.898   4.042 -1.2758  0.6627  1.0503
14753TIP3   OH265673   5.966   0.149   2.109  0.2941  0.1371  0.2341
14753TIP3    H165674   6.058   0.158   2.134  0.2660  2.0097 -0.1424
14753TIP3    H265675   5.924   0.110   2.185  1.5938 -2.0985 -0.0855
14754TIP3   OH265676   0.682   2.497  13.358 -0.0305 -0.2171 -0.4713
14754TIP3    H165677   0.621   2.436  13.316 -1.0234  0.1121  0.4489
14754TIP3    H265678   0.639   2.521  13.440  1.9216 -0.9692  0.8522
14755TIP3   OH265679   4.882   2.300   2.489 -0.2207 -0.3121 -0.3391
14755TIP3    H165680   4.920   2.332   2.571  0.2181  1.0980 -1.0639
14755TIP3    H265681   4.922   2.213   2.477 -1.6904 -1.3759  1.8281
14756TIP3   OH265682   1.210   2.780  14.052  0.0459  0.2371  0.0441
14756TIP3    H165683   1.119   2.806  14.068 -0.3336 -0.7977 -0.3737
14756TIP3    H265684   1.262   2.850  14.093 -0.9279  1.0630 -0.0770
14757TIP3   OH265685   4.901   2.201   4.917  0.5015 -0.5465 -0.1096
14757TIP3    H165686   4.908   2.188   5.012  0.5647 -1.6874 -0.2620
14757TIP3    H265687   4.808   2.193   4.899  0.3679  0.5780 -0.0412
14758TIP3   OH265688   4.487   5.404   6.098  0.3773 -0.1015  0.1187
14758TIP3    H165689   4.513   5.314   6.078  1.7850  0.5680 -1.2395
14758TIP3    H265690   4.536   5.426   6.177 -0.4378 -0.6968  0.8135
14759TIP3   OH265691   2.353   5.689   1.987 -0.0629  0.2828  0.6725
14759TIP3    H165692   2.391   5.763   1.939  0.8698  0.4791  1.6850
14759TIP3    H265693   2.428   5.637   2.016 -0.5862  0.1757  1.9136
14760TIP3   OH265694   0.911   1.392   2.868 -0.5871  0.9594  0.1609
14760TIP3    H165695   0.948   1.320   2.817 -1.5828 -0.3719  1.2468
14760TIP3    H265696   0.981   1.419   2.927 -0.2477  0.8236 -0.1794
14761TIP3   OH265697   6.775   1.798  11.467  0.8616  0.6190  0.2045
14761TIP3    H165698   6.703   1.772  11.525  0.0392 -0.4547 -1.2515
14761TIP3    H265699   6.733   1.847  11.397  1.3094 -1.1177 -1.3608
14762TIP3   OH265700   0.955   1.731  10.757  0.4898  0.4657  0.0544
14762TIP3    H165701   0.862   1.744  10.736  0.4236  0.8761  0.5686
14762TIP3    H265702   0.976   1.646  10.718  0.5430  1.4157 -2.1098
14763TIP3   OH265703   5.682   5.471   0.340  0.0324 -0.0723  0.6283
14763TIP3    H165704   5.605   5.432   0.298  0.2819 -1.2212  1.2088
14763TIP3    H265705   5.747   5.401   0.343  1.0589  0.8251  0.3207
14764TIP3   OH265706   2.780   6.703  13.502 -0.4414 -0.4228 -0.1019
14764TIP3    H165707   2.686   6.720  13.506 -0.4255 -0.1736 -0.7105
14764TIP3    H265708   2.807   6.694  13.594 -1.3904 -2.4013  0.0351
14765TIP3   OH265709   6.719   5.200  16.094 -0.0558 -0.2053  0.1939
14765TIP3    H165710   6.747   5.291  16.097  0.9094 -0.4836 -0.0448
14765TIP3    H265711   6.761   5.159  16.170  1.6902 -1.0160 -1.1252
14766TIP3   OH265712   4.074   1.327  12.697 -0.5556  0.0148 -0.8911
14766TIP3    H165713   4.088   1.261  12.629 -0.8137 -0.2015 -0.7400
14766TIP3    H265714   4.121   1.404  12.666  1.5167 -0.8591 -0.1013
14767TIP3   OH265715   6.635   3.040   1.872 -0.0587 -0.1289 -0.2842
14767TIP3    H165716   6.552   2.994   1.859 -0.9098  1.0326  0.8947
14767TIP3    H265717   6.647   3.042   1.967  0.8088  0.6114 -0.4005
14768TIP3   OH265718   5.323   4.051  16.837  0.4436 -0.3251  0.0600
14768TIP3    H165719   5.264   4.050  16.912 -1.5918  0.4783 -1.3986
14768TIP3    H265720   5.337   3.959  16.816  1.2330 -0.5650  1.5192
14769TIP3   OH265721   0.480   1.568   1.779  0.1413  0.5068  0.0476
14769TIP3    H165722   0.415   1.560   1.849 -1.2963  0.8753 -1.1783
14769TIP3    H265723   0.500   1.662   1.776 -0.8318  0.7040 -0.8848
14770TIP3   OH265724   2.328   0.157  12.529  0.3296 -0.0605  0.0470
14770TIP3    H165725   2.364   0.138  12.616  0.1243 -0.5132  0.0332
14770TIP3    H265726   2.350   0.081  12.476 -0.0543 -0.0415 -0.1463
14771TIP3   OH265727   3.081   3.845   3.651 -0.1003  0.3842 -0.3591
14771TIP3    H165728   3.128   3.861   3.733  0.9594 -0.8783 -0.6815
14771TIP3    H265729   3.119   3.764   3.618 -0.8858  0.5946 -1.8380
14772TIP3   OH265730   2.697   4.155  13.777 -0.2059  0.2920  0.3855
14772TIP3    H165731   2.766   4.146  13.713 -0.0398  2.6474  0.1250
14772TIP3    H265732   2.729   4.221  13.838 -1.7387  0.6090  0.9106
14773TIP3   OH265733   1.793   0.186  15.050  0.2047 -0.0466  0.5914
14773TIP3    H165734   1.885   0.169  15.070  1.0138  2.3118 -0.7359
14773TIP3    H265735   1.766   0.251  15.114 -0.2411 -0.0409  0.4006
14774TIP3   OH265736   4.411   5.154  12.888 -0.4002 -0.2520  0.2785
14774TIP3    H165737   4.395   5.200  12.970 -0.6525 -0.6330  0.4411
14774TIP3    H265738   4.500   5.120  12.897 -0.1242  0.4054  0.0615
14775TIP3   OH265739   6.397   5.435   1.550 -0.2409  0.7043  0.0464
14775TIP3    H165740   6.433   5.361   1.599 -1.1859 -0.3242 -0.7533
14775TIP3    H265741   6.421   5.512   1.602  1.9781 -0.0048  0.1943
14776TIP3   OH265742   4.104   3.924  14.889 -0.1109 -0.0140  0.3487
14776TIP3    H165743   4.086   3.886  14.803 -1.3029  0.3887  0.4166
14776TIP3    H265744   4.104   4.018  14.874  0.4851  0.0401  0.6488
14777TIP3   OH265745   5.883   6.743   0.752  0.0657  0.1940  0.0631
14777TIP3    H165746   5.973   6.729   0.779 -0.1654 -1.0704  0.2438
14777TIP3    H265747   5.831   6.689   0.811 -0.7855  0.5713 -0.3139
14778TIP3   OH265748   5.638   5.613  12.161  0.5931  0.4045  0.2377
14778TIP3    H165749   5.614   5.694  12.115 -0.3140  0.3482  0.5792
14778TIP3    H265750   5.729   5.598  12.138 -0.0427 -0.0674 -2.2376
14779TIP3   OH265751   2.602   3.780   3.344 -0.5763  0.3168  0.0908
14779TIP3    H165752   2.611   3.731   3.425  0.6200  1.0033  0.3916
14779TIP3    H265753   2.637   3.866   3.363 -0.1436  0.4533 -1.1945
14780TIP3   OH265754   0.019   5.019  13.064 -0.2002 -0.1812 -0.1645
14780TIP3    H165755  -0.041   5.088  13.095 -0.8983 -1.7525  2.2748
14780TIP3    H265756   0.034   4.964  13.141  2.5381 -1.2276 -1.3234
14781TIP3   OH265757   2.431   5.034   3.209 -0.0492  0.3650 -0.2986
14781TIP3    H165758   2.369   5.062   3.276  1.6131  0.0037  1.4918
14781TIP3    H265759   2.393   5.063   3.126 -2.6598 -0.0090  0.6807
14782TIP3   OH265760   3.045   6.620   2.361 -0.2240  0.1381  0.0821
14782TIP3    H165761   3.085   6.598   2.445  1.0495  0.0994 -0.5137
14782TIP3    H265762   3.088   6.701   2.335 -1.4670  0.8046  0.0060
14783TIP3   OH265763   3.274   0.468  16.086 -0.8719 -0.1909 -0.0053
14783TIP3    H165764   3.249   0.376  16.092  0.6963 -0.5722  1.3521
14783TIP3    H265765   3.277   0.499  16.177  1.0199  0.4918 -0.2554
14784TIP3   OH265766   2.120   1.128   2.785 -0.0795 -0.2700 -0.0942
14784TIP3    H165767   2.100   1.088   2.700  0.3335 -0.4900 -0.0932
14784TIP3    H265768   2.166   1.060   2.833 -0.1493 -0.0832  0.2374
14785TIP3   OH265769   2.047   3.883  12.410 -0.5377 -0.0567 -0.5209
14785TIP3    H165770   1.966   3.850  12.373 -0.4423  0.1025 -0.8709
14785TIP3    H265771   2.021   3.958  12.463 -0.7546 -0.6784  0.2703
14786TIP3   OH265772   4.211   0.089   0.945 -0.0626  0.2286 -0.6264
14786TIP3    H165773   4.266   0.047   1.012  4.1996  3.7351 -1.4523
14786TIP3    H265774   4.250   0.062   0.862 -1.2363  0.8856 -1.4197
14787TIP3   OH265775   1.554   1.810   3.245  0.0258  0.2863  0.1214
14787TIP3    H165776   1.526   1.788   3.156 -1.2075 -2.6659  1.0915
14787TIP3    H265777   1.636   1.762   3.258  0.4430  1.0706  0.4309
14788TIP3   OH265778   2.182   3.435   4.672  0.3891  0.2310 -0.1922
14788TIP3    H165779   2.224   3.404   4.752 -1.4236  0.1123  0.7756
14788TIP3    H265780   2.148   3.521   4.695 -2.1575 -0.7316 -0.0115
14789TIP3   OH265781   5.202   4.762  12.124 -0.1227  0.2352  0.1080
14789TIP3    H165782   5.211   4.786  12.032  2.4015  0.1908  0.2667
14789TIP3    H265783   5.227   4.841  12.172  4.2633 -1.1951  0.6408
14790TIP3   OH265784   0.250   0.997   4.230  0.9685  0.8846 -0.0540
14790TIP3    H165785   0.267   0.926   4.168  0.7225  0.5875  0.2162
14790TIP3    H265786   0.209   1.065   4.177  0.6071  0.5674 -0.1888
14791TIP3   OH265787   1.694   1.008  14.578 -0.3135  0.0994  0.1837
14791TIP3    H165788   1.767   1.067  14.591  0.8717 -0.8030 -1.8153
14791TIP3    H265789   1.626   1.061  14.536 -0.2433  0.6070  0.7151
14792TIP3   OH265790   3.401   1.177   5.007  0.1549 -0.0735 -0.4533
14792TIP3    H165791   3.369   1.253   4.958 -0.0030  0.6893  0.7758
14792TIP3    H265792   3.495   1.195   5.019  0.0656  0.0671  0.0607
14793TIP3   OH265793   5.683   4.861  15.086 -0.1488 -0.2795 -0.5628
14793TIP3    H165794   5.717   4.840  14.999 -0.1968 -2.6338 -0.0835
14793TIP3    H265795   5.705   4.785  15.140 -0.0580  1.1367  1.5332
14794TIP3   OH265796   1.837   5.606  16.322  0.2937 -0.4302 -0.2440
14794TIP3    H165797   1.845   5.579  16.414 -1.5095 -0.9381 -0.1860
14794TIP3    H265798   1.865   5.530  16.272  0.3921 -0.4828 -0.1112
14795TIP3   OH265799   2.406   4.808   3.895  0.1144  0.6279 -0.2642
14795TIP3    H165800   2.350   4.882   3.918 -0.5958 -0.0287  0.1237
14795TIP3    H265801   2.346   4.738   3.873  0.7793  0.3685 -1.3496
14796TIP3   OH265802   0.242   4.564  13.529  0.4836 -0.0710 -0.6683
14796TIP3    H165803   0.233   4.578  13.623  1.0710  0.9937 -0.7563
14796TIP3    H265804   0.257   4.651  13.493 -2.3110 -0.0803 -2.0722
14797TIP3   OH265805   3.698   2.136   0.040 -0.5697  0.6484  0.5554
14797TIP3    H165806   3.617   2.174   0.005 -0.9722  0.7279  1.5413
14797TIP3    H265807   3.690   2.147   0.135 -0.4412 -1.4003  0.8357
14798TIP3   OH265808   5.009   5.330  10.570  0.2355 -0.3212  0.1604
14798TIP3    H165809   5.093   5.309  10.612  0.2698  3.2043  2.1923
14798TIP3    H265810   5.032   5.394  10.502 -0.5934 -1.1895 -0.9798
14799TIP3   OH265811   3.623   0.066   1.754 -0.8599  0.2350  0.7114
14799TIP3    H165812   3.597  -0.026   1.753 -0.8247  0.2317  0.2819
14799TIP3    H265813   3.717   0.064   1.772 -0.8276  0.1816  0.5350
14800TIP3   OH265814   2.351   2.825   4.835 -0.3509  0.1322  0.1149
14800TIP3    H165815   2.286   2.896   4.834 -0.1688  0.3297  1.0007
14800TIP3    H265816   2.300   2.745   4.823 -0.5806  0.3912 -0.6956
14801TIP3   OH265817   2.832   1.923   4.416  0.1065 -0.1998  0.1248
14801TIP3    H165818   2.847   1.849   4.475 -0.1020 -1.0882 -0.9060
14801TIP3    H265819   2.737   1.933   4.412  0.0406 -1.0329 -1.0822
14802TIP3   OH265820   6.535   5.701   1.651 -0.4887 -0.0537 -0.0444
14802TIP3    H165821   6.608   5.659   1.604 -0.5875 -0.6728  0.3413
14802TIP3    H265822   6.464   5.701   1.587 -0.1961  0.4244 -0.3762
14803TIP3   OH265823   3.464   4.153  15.203 -0.2764 -0.2003 -0.6268
14803TIP3    H165824   3.411   4.076  15.185  0.1661 -0.6339 -0.1501
14803TIP3    H265825   3.446   4.173  15.295 -0.9096  0.6867 -0.9345
14804TIP3   OH265826   5.908   0.244  15.440  0.0539  0.6111  0.3351
14804TIP3    H165827   5.953   0.323  15.410  2.4882 -1.2560 -1.3543
14804TIP3    H265828   5.978   0.184  15.464 -1.4333 -2.4124 -2.2050
14805TIP3   OH265829   6.676   1.929  11.257 -0.1350 -0.7182  0.1458
14805TIP3    H165830   6.581   1.938  11.258 -0.1299 -0.5829 -0.2831
14805TIP3    H265831   6.700   1.937  11.164  0.3819  0.1859  0.3444
14806TIP3   OH265832   5.269   4.781   0.023  0.5512  0.1588  0.0175
14806TIP3    H165833   5.333   4.710   0.015  0.5160 -0.0292  1.3235
14806TIP3    H265834   5.223   4.763   0.105  0.0954  1.3401  0.0313
14807TIP3   OH265835   1.690   1.828   1.473  0.1164  0.1555  0.2065
14807TIP3    H165836   1.626   1.815   1.403  0.6695 -1.6887 -0.0112
14807TIP3    H265837   1.640   1.872   1.542 -1.2906 -0.7908 -0.1471
14808TIP3   OH265838   3.498   5.497  12.439  0.1159  0.5413  0.3465
14808TIP3    H165839   3.538   5.435  12.378  0.0427 -0.0031  0.8446
14808TIP3    H265840   3.467   5.569  12.383 -0.6437 -0.3030 -0.3519
14809TIP3   OH265841   0.036   5.751   4.406  0.0926  0.8195 -0.3299
14809TIP3    H165842   0.027   5.709   4.492  2.0320 -0.2172 -0.5700
14809TIP3    H265843   0.095   5.825   4.421 -0.8846  1.6586 -0.4930
14810TIP3   OH265844   1.660   5.609  13.871 -0.7396 -0.5486 -0.4001
14810TIP3    H165845   1.637   5.539  13.931  0.8424 -1.9314 -1.3083
14810TIP3    H265846   1.631   5.578  13.785 -0.2194 -0.0203 -0.7801
14811TIP3   OH265847   6.475   2.270   3.384 -0.7850  0.0185 -0.4590
14811TIP3    H165848   6.474   2.362   3.357 -3.6095 -0.1471 -1.1744
14811TIP3    H265849   6.560   2.237   3.353 -0.7103  1.7737 -2.3361
14812TIP3   OH265850   4.005   5.067  14.558 -0.2299 -0.2621 -0.0730
14812TIP3    H165851   3.938   5.133  14.578  0.0619  0.2540 -0.7588
14812TIP3    H265852   4.085   5.117  14.543 -0.0185 -0.7698 -0.6783
14813TIP3   OH265853   2.811   4.380  13.909  0.7183  0.0699  0.1635
14813TIP3    H165854   2.832   4.331  13.989  0.3041 -1.7386 -0.8039
14813TIP3    H265855   2.850   4.466  13.924  0.0471  0.0236  2.6109
14814TIP3   OH265856   2.949   1.212   5.998  0.5221 -0.8387 -0.3238
14814TIP3    H165857   2.939   1.307   5.993 -1.5761 -1.0361 -1.1174
14814TIP3    H265858   3.035   1.194   5.960  1.5189  0.8046  1.0018
14815TIP3   OH265859   3.383   3.442   0.262 -0.1483 -0.6653  0.0447
14815TIP3    H165860   3.418   3.456   0.350 -0.2450 -0.0958 -0.0076
14815TIP3    H265861   3.407   3.521   0.213  0.0312 -1.0412 -0.4823
14816TIP3   OH265862   3.826   4.647   3.781 -0.7549  0.5389 -0.5207
14816TIP3    H165863   3.853   4.651   3.689 -0.0975 -0.1144 -0.3632
14816TIP3    H265864   3.908   4.649   3.830 -0.9916 -0.9160 -0.0107
14817TIP3   OH265865   0.669   6.075  11.503  0.0006 -0.4792 -0.8044
14817TIP3    H165866   0.628   5.991  11.524  0.0201 -0.1735  0.5919
14817TIP3    H265867   0.762   6.061  11.522 -0.0449 -0.0565 -0.2454
14818TIP3   OH265868   3.578   6.732  11.368 -0.4383 -0.5161 -0.0331
14818TIP3    H165869   3.523   6.697  11.298  0.7160  0.6518 -1.6016
14818TIP3    H265870   3.667   6.706  11.343 -0.1083 -1.0392  1.6218
14819TIP3   OH265871   3.998   6.624  15.019  0.3686  0.3517  0.0882
14819TIP3    H165872   4.023   6.716  15.015  2.3839 -0.1684 -0.3650
14819TIP3    H265873   3.902   6.625  15.021  0.3422  2.4295 -0.2845
14820TIP3   OH265874   4.304   5.906  15.146 -0.6265  0.1093  0.3701
14820TIP3    H165875   4.265   5.829  15.188 -1.3425 -0.0842 -0.5874
14820TIP3    H265876   4.346   5.954  15.217  1.7592 -2.2548  0.7215
14821TIP3   OH265877   4.252   6.712  11.253  0.5922 -0.3588 -0.0736
14821TIP3    H165878   4.295   6.661  11.185  1.1771  2.6243 -2.1404
14821TIP3    H265879   4.159   6.710  11.230  0.7977  0.6988 -1.0676
14822TIP3   OH265880   1.455   1.050   1.475 -0.0668 -0.1993 -0.2944
14822TIP3    H165881   1.376   1.098   1.450  0.1725 -0.6894 -2.1015
14822TIP3    H265882   1.520   1.118   1.494 -0.7085  0.1959  0.5511
14823TIP3   OH265883   1.213   3.757  13.144  0.5193  0.3692  0.3966
14823TIP3    H165884   1.122   3.762  13.117 -0.1191 -1.4726  2.0199
14823TIP3    H265885   1.256   3.705  13.076  0.3498  1.0528 -0.2542
14824TIP3   OH265886   4.562   6.420   0.003 -0.3413 -0.3939 -0.0799
14824TIP3    H165887   4.572   6.507  -0.036  0.4558 -0.6415 -0.4545
14824TIP3    H265888   4.504   6.373  -0.056 -0.6296 -0.1738  0.0266
14825TIP3   OH265889   4.470   5.343   1.100 -0.0897 -0.1928  0.7736
14825TIP3    H165890   4.393   5.391   1.068  0.5248  1.4020  1.5882
14825TIP3    H265891   4.438   5.295   1.176 -1.0873 -2.4374 -0.9599
14826TIP3   OH265892   3.332   5.886   6.092  0.3647  0.1896  0.5724
14826TIP3    H165893   3.395   5.928   6.150 -0.4688  0.1499  1.5211
14826TIP3    H265894   3.299   5.811   6.142  1.9842 -1.8268 -1.1262
14827TIP3   OH265895   1.686   0.488  12.491 -0.1035 -0.5374 -0.4002
14827TIP3    H165896   1.619   0.498  12.559  1.0252  0.4895  0.6189
14827TIP3    H265897   1.730   0.573  12.488  1.3212 -1.2559 -0.8492
14828TIP3   OH265898   6.687   4.409  10.660  0.0519 -0.0525 -0.3927
14828TIP3    H165899   6.592   4.400  10.666 -0.0884 -0.0269 -2.0772
14828TIP3    H265900   6.700   4.491  10.612  0.8894 -0.6148 -1.1546
14829TIP3   OH265901   6.489   0.469  11.402 -0.1429 -0.3706  0.1022
14829TIP3    H165902   6.456   0.381  11.415 -1.4000  0.1270  0.4080
14829TIP3    H265903   6.443   0.502  11.325  0.9247 -0.2598 -0.5103
14830TIP3   OH265904   0.206   6.215  13.577 -0.0146  0.0375 -0.2524
14830TIP3    H165905   0.174   6.252  13.659  0.7013  0.2793 -0.0794
14830TIP3    H265906   0.127   6.200  13.525 -0.5137 -0.5055  0.6364
14831TIP3   OH265907   5.527   4.149  12.331  0.4760  0.4573  0.1057
14831TIP3    H165908   5.586   4.073  12.334  0.0579  0.0856 -0.8488
14831TIP3    H265909   5.580   4.220  12.367  1.5871  0.1663 -0.8585
14832TIP3   OH265910   6.133   4.904   2.212  0.2752  0.1149 -0.2237
14832TIP3    H165911   6.158   4.946   2.130 -1.3946 -0.8138 -1.2456
14832TIP3    H265912   6.183   4.822   2.213 -0.4861 -0.3661 -0.8390
14833TIP3   OH265913   1.204   3.381  15.938 -0.0318  1.1513 -0.7567
14833TIP3    H165914   1.281   3.335  15.971 -1.0020 -0.6615 -0.8833
14833TIP3    H265915   1.188   3.343  15.851 -2.4697 -0.3937  0.2531
14834TIP3   OH265916   3.476   5.014  12.492  0.1385 -0.3996  0.4630
14834TIP3    H165917   3.439   4.996  12.578  1.5895  0.8865  1.3850
14834TIP3    H265918   3.541   5.083  12.507 -0.5509  0.8724 -1.8587
14835TIP3   OH265919   4.866   1.601  16.425  0.4546 -0.2499  0.4225
14835TIP3    H165920   4.781   1.604  16.470 -0.4699 -1.3628 -1.1207
14835TIP3    H265921   4.865   1.676  16.367  0.0903 -0.7749 -0.2701
14836TIP3   OH265922   3.725   1.389  12.220  0.4064 -0.4853 -0.1671
14836TIP3    H165923   3.774   1.399  12.302  0.0889 -2.2047  0.2793
14836TIP3    H265924   3.643   1.436  12.236  0.8429  0.2153  0.0439
14837TIP3   OH265925   3.417   3.367  12.834  0.4368 -0.3049 -0.0222
14837TIP3    H165926   3.438   3.392  12.924  0.6088  0.5751 -0.2959
14837TIP3    H265927   3.383   3.278  12.841  0.6446 -0.3223  0.8872
14838TIP3   OH265928   4.388   2.970   2.829 -0.0108  0.1123 -0.1643
14838TIP3    H165929   4.465   2.982   2.772 -0.8218  1.2191 -1.0867
14838TIP3    H265930   4.316   3.008   2.779 -1.3044 -1.5031  0.3891
14839TIP3   OH265931   5.583   3.850  16.717  0.0982 -0.0684  0.0594
14839TIP3    H165932   5.635   3.823  16.642  0.6536 -0.5369  0.6035
14839TIP3    H265933   5.492   3.841  16.688  0.2920  1.4578 -1.1456
14840TIP3   OH265934   2.815   5.857   3.856 -0.0947 -0.1850 -0.3622
14840TIP3    H165935   2.779   5.769   3.867 -3.0209  0.8685 -0.5495
14840TIP3    H265936   2.827   5.889   3.945 -0.0644 -0.3994 -0.2881
14841TIP3   OH265937   3.713   0.980   5.345  0.1449  0.2801  0.1344
14841TIP3    H165938   3.716   1.076   5.346 -0.8703  0.3206 -0.0803
14841TIP3    H265939   3.785   0.955   5.286  0.2459  0.9127 -0.0240
14842TIP3   OH265940   2.120   2.840  14.356 -0.8722 -0.1683 -0.3214
14842TIP3    H165941   2.056   2.778  14.321 -0.9459  0.9139 -2.2213
14842TIP3    H265942   2.192   2.785  14.387 -0.8906 -1.2292 -2.0522
14843TIP3   OH265943   1.832   4.714  15.597 -0.6596 -0.0938 -0.0887
14843TIP3    H165944   1.748   4.690  15.636  0.1200 -1.6491  0.7289
14843TIP3    H265945   1.851   4.800  15.633 -1.6337  0.0233  0.1689
14844TIP3   OH265946   1.805   4.427   5.277  0.1428  0.5189 -0.3143
14844TIP3    H165947   1.777   4.356   5.335  0.1490  0.5806 -0.2357
14844TIP3    H265948   1.759   4.410   5.195  2.0630 -1.0423 -1.1718
14845TIP3   OH265949   1.469   5.974  13.836  0.5959 -0.1544 -0.7433
14845TIP3    H165950   1.502   6.064  13.839 -0.4846  0.2402 -0.2190
14845TIP3    H265951   1.392   5.974  13.894  1.0460 -1.6153 -0.0985
14846TIP3   OH265952   1.075   4.743  15.562  0.2813 -0.1065  0.0856
14846TIP3    H165953   1.025   4.750  15.480  0.5001 -0.3121 -0.0705
14846TIP3    H265954   1.044   4.662  15.602 -1.1973  0.9499  1.1562
14847TIP3   OH265955   5.759   2.584   0.666 -0.8165 -0.3469 -0.4297
14847TIP3    H165956   5.843   2.540   0.678 -0.4203  0.4640 -0.1580
14847TIP3    H265957   5.711   2.527   0.605  0.3350 -0.2907 -1.4284
14848TIP3   OH265958   4.043   1.285   4.651 -0.1136  0.0371  0.2339
14848TIP3    H165959   4.009   1.364   4.692 -1.1669 -0.7459  0.9335
14848TIP3    H265960   3.966   1.241   4.615  0.8176  1.0205 -3.3487
14849TIP3   OH265961   0.004   6.588  15.777  0.1153 -0.3947 -0.4395
14849TIP3    H165962   0.090   6.545  15.776 -0.3330 -1.3355  0.3455
14849TIP3    H265963  -0.055   6.527  15.734 -0.1680  0.2628 -1.0032
14850TIP3   OH265964   3.036   1.426   2.873 -0.0862 -0.1584  0.5632
14850TIP3    H165965   2.989   1.455   2.795  1.0199 -1.5458 -0.6826
14850TIP3    H265966   2.981   1.358   2.911 -0.5561  0.4201  0.9446
14851TIP3   OH265967   4.657   4.211  15.858  0.4957 -0.2971  0.6755
14851TIP3    H165968   4.738   4.237  15.814 -1.1712  0.2959 -2.2643
14851TIP3    H265969   4.656   4.116  15.851  1.4212 -0.4166  1.7621
14852TIP3   OH265970   1.217   6.383  14.559 -0.6072  0.0099 -0.6492
14852TIP3    H165971   1.233   6.473  14.530 -2.2310  0.7656  0.6162
14852TIP3    H265972   1.250   6.380  14.649 -2.3024 -0.0417  0.0031
14853TIP3   OH265973   4.932   1.970   1.566  0.1533 -0.2489  0.2050
14853TIP3    H165974   5.026   1.985   1.564  0.2919 -0.8703  1.2655
14853TIP3    H265975   4.921   1.891   1.619 -1.0059  0.2138  0.6897
14854TIP3   OH265976   5.537   1.300  12.055  0.4172 -0.0063  0.2671
14854TIP3    H165977   5.454   1.255  12.066  0.6055  0.1828  3.2060
14854TIP3    H265978   5.602   1.240  12.091  1.1428  1.0949  0.8500
14855TIP3   OH265979   4.898   0.474  14.024  0.2699  0.3430 -0.4166
14855TIP3    H165980   4.893   0.379  14.030  1.1326  0.2545 -0.9246
14855TIP3    H265981   4.902   0.492  13.930  0.1892  0.8789 -0.3208
14856TIP3   OH265982   3.259   6.254   3.015 -0.2818  0.0228 -0.4455
14856TIP3    H165983   3.251   6.226   2.924 -1.5886 -1.3087  0.0460
14856TIP3    H265984   3.169   6.254   3.048  0.2097  0.1621  0.9378
14857TIP3   OH265985   3.168   3.227  10.553  0.0417  0.7946 -0.1525
14857TIP3    H165986   3.231   3.201  10.485  0.9167  0.5260  0.7284
14857TIP3    H265987   3.090   3.175  10.534  0.5694  0.0804 -0.4617
14858TIP3   OH265988   0.766   6.533   3.622 -0.8361  0.2274 -0.3842
14858TIP3    H165989   0.767   6.449   3.667  0.3394  0.4661  0.0819
14858TIP3    H265990   0.691   6.580   3.659  0.1202  0.4414  1.4119
14859TIP3   OH265991   0.333   3.536   6.396 -0.4538 -0.0516 -0.2602
14859TIP3    H165992   0.319   3.452   6.441 -2.2558 -0.9436 -2.3297
14859TIP3    H265993   0.408   3.520   6.339  1.2857  0.8233  1.6434
14860TIP3   OH265994   6.192   4.272   1.391  0.3568 -0.5707  0.0520
14860TIP3    H165995   6.230   4.254   1.476 -0.3077 -0.2792  0.4228
14860TIP3    H265996   6.229   4.206   1.333  0.4326 -1.0798  0.6743
14861TIP3   OH265997   3.582   4.087   1.776 -0.1541  0.7090 -0.1173
14861TIP3    H165998   3.552   4.050   1.693 -0.8326 -0.9106  0.8159
14861TIP3    H265999   3.532   4.041   1.843  0.4930  1.8695  1.2169
14862TIP3   OH266000   3.514   5.572   2.535  0.9704 -0.3849 -0.7217
14862TIP3    H166001   3.558   5.520   2.468  2.0692  1.1543 -1.2337
14862TIP3    H266002   3.585   5.614   2.583  0.1205  0.2197  0.0265
14863TIP3   OH266003   4.409   3.893  12.124  0.6640  0.0998 -0.4456
14863TIP3    H166004   4.495   3.856  12.108  0.3315 -0.4757 -0.9626
14863TIP3    H266005   4.361   3.878  12.043 -0.2740 -0.6089  0.2145
14864TIP3   OH266006   5.070   3.676  13.211  0.3784 -0.1150 -0.3467
14864TIP3    H166007   5.137   3.609  13.226 -2.4366 -2.4928  3.4345
14864TIP3    H266008   5.091   3.745  13.274 -1.0760 -1.3720  1.6609
14865TIP3   OH266009   0.813   3.735  14.527 -0.3573 -0.0168 -0.1991
14865TIP3    H166010   0.736   3.705  14.575  0.0967 -0.6541  0.1411
14865TIP3    H266011   0.864   3.655  14.511  1.0547  0.5904  1.0286
14866TIP3   OH266012   1.646   1.971  15.497  0.2002 -0.1362 -0.0668
14866TIP3    H166013   1.672   1.895  15.548 -1.2224 -1.2259 -0.8880
14866TIP3    H266014   1.553   1.984  15.519  0.1906  0.8213 -0.5939
14867TIP3   OH266015   3.655   4.794   3.233  0.0227 -0.8916 -0.1644
14867TIP3    H166016   3.654   4.699   3.246 -0.4204 -0.9064 -0.2841
14867TIP3    H266017   3.595   4.808   3.159 -0.6770 -0.4283  0.4770
14868TIP3   OH266018   1.134   4.870  12.361  0.2776 -0.2437 -0.4509
14868TIP3    H166019   1.055   4.917  12.388  0.3232 -0.8506  0.8185
14868TIP3    H266020   1.177   4.928  12.299  0.9114  1.9605  1.8807
14869TIP3   OH266021   5.250   1.394  16.372 -0.0156 -0.0318  0.3186
14869TIP3    H166022   5.180   1.442  16.328 -0.8914  0.2711  1.9577
14869TIP3    H266023   5.251   1.309  16.329 -1.7970 -0.2499  0.6175
14870TIP3   OH266024   0.365   1.057  17.133 -0.2866 -0.4041 -0.1950
14870TIP3    H166025   0.430   0.999  17.093 -0.0154  0.6252 -1.2814
14870TIP3    H266026   0.409   1.141  17.144 -0.5289 -0.4848  1.8036
14871TIP3   OH266027   1.155   2.709  13.308  0.2028 -0.5232  0.1574
14871TIP3    H166028   1.135   2.803  13.309 -2.0361 -0.8962 -1.6757
14871TIP3    H266029   1.145   2.682  13.399 -3.1015  0.3503  0.1959
14872TIP3   OH266030   4.042   1.207  12.390 -0.2261  0.0613  0.3790
14872TIP3    H166031   4.006   1.161  12.314  0.2501 -0.2121  0.3141
14872TIP3    H266032   4.128   1.168  12.403 -0.6639 -0.5303  1.6289
14873TIP3   OH266033   3.468   2.128   0.575 -0.7135 -0.0229  0.5043
14873TIP3    H166034   3.516   2.101   0.496 -0.6486  1.2993  0.0740
14873TIP3    H266035   3.418   2.050   0.600  1.8262 -1.5844  1.1340
14874TIP3   OH266036   5.788   6.483   5.945 -0.1105  0.4354  0.8185
14874TIP3    H166037   5.741   6.403   5.925  1.9493 -0.2008 -2.2588
14874TIP3    H266038   5.815   6.474   6.036 -1.3495 -1.5453  1.0357
14875TIP3   OH266039   2.937   0.515  15.093 -0.1094 -0.0583  0.1789
14875TIP3    H166040   2.998   0.585  15.118  1.9298 -2.3438  2.1220
14875TIP3    H266041   2.988   0.457  15.038 -1.1078 -1.0979  0.3110
14876TIP3   OH266042   5.673   6.140  12.527  0.1154  0.2500 -0.1578
14876TIP3    H166043   5.625   6.200  12.584  0.0194 -0.1671  0.2026
14876TIP3    H266044   5.683   6.188  12.445  0.0550  0.7652  0.1323
14877TIP3   OH266045   0.879   4.300  16.143 -0.5991  0.2039 -0.3126
14877TIP3    H166046   0.798   4.273  16.099  0.3730 -0.5716 -1.7092
14877TIP3    H266047   0.949   4.263  16.088  0.7014  0.9657  0.7891
14878TIP3   OH266048   2.970   2.948   0.772  0.2982  0.1810 -0.1271
14878TIP3    H166049   3.018   2.949   0.690 -0.9184  0.2818 -0.8727
14878TIP3    H266050   2.974   3.038   0.804  0.8791  0.1140  0.0044
14879TIP3   OH266051   0.793   1.645  15.899  0.5610  0.0501 -0.3511
14879TIP3    H166052   0.705   1.653  15.861  0.5629  0.3020 -0.3066
14879TIP3    H266053   0.810   1.551  15.900  1.5418  0.1378 -3.1406
14880TIP3   OH266054   2.374   3.922   5.265 -0.0455 -0.4093  0.3055
14880TIP3    H166055   2.451   3.866   5.253  1.6467  2.0318 -1.2300
14880TIP3    H266056   2.404   3.991   5.324 -1.9162 -0.7718  1.7636
14881TIP3   OH266057   5.457   6.299   3.861 -0.0437 -0.2266 -0.1211
14881TIP3    H166058   5.522   6.303   3.931 -0.2049  0.3254  0.0038
14881TIP3    H266059   5.425   6.389   3.854 -1.6802 -0.7160  0.6505
14882TIP3   OH266060   4.720   5.145   4.419 -0.4727 -0.1397 -0.8630
14882TIP3    H166061   4.633   5.113   4.392 -0.5870  0.2855 -0.9993
14882TIP3    H266062   4.743   5.089   4.493 -0.5666 -0.6995 -1.2506
14883TIP3   OH266063   3.110   0.696  15.200 -0.2834  0.4127  0.4007
14883TIP3    H166064   3.191   0.652  15.227 -0.6511  0.7202  2.0845
14883TIP3    H266065   3.098   0.766  15.264 -0.8382  1.6629 -0.9996
14884TIP3   OH266066   5.872   6.526   3.677  0.1441 -0.1382 -0.0947
14884TIP3    H166067   5.787   6.482   3.671  0.3768 -1.3257  3.1784
14884TIP3    H266068   5.876   6.557   3.768  3.5399 -0.8708  0.1404
14885TIP3   OH266069   3.686   6.000   2.792 -0.4207  0.0582  0.1343
14885TIP3    H166070   3.664   6.080   2.745  0.6584  0.4372  0.2374
14885TIP3    H266071   3.782   5.995   2.786 -0.3807 -0.5931  1.1397
14886TIP3   OH266072   0.485   4.451  11.909  0.2820  0.4630 -0.1261
14886TIP3    H166073   0.572   4.467  11.873  1.0550 -1.4409  0.7376
14886TIP3    H266074   0.483   4.357  11.926 -1.5756  0.6253  0.8402
14887TIP3   OH266075   4.996   2.930  10.817  0.2683  0.9334  0.2402
14887TIP3    H166076   4.995   3.015  10.773 -0.8733  0.3141 -1.0321
14887TIP3    H266077   5.065   2.881  10.772 -1.6377 -0.0833 -1.7594
14888TIP3   OH266078   3.853   5.674   2.941 -0.8448 -0.2766 -0.4191
14888TIP3    H166079   3.895   5.748   2.985 -0.9158 -1.4554  1.7646
14888TIP3    H266080   3.923   5.611   2.927 -0.8345  0.0495 -2.0278
14889TIP3   OH266081   4.750   1.795   4.626  0.3797 -0.3266 -0.0226
14889TIP3    H166082   4.822   1.853   4.649  0.4118 -0.5270  0.3865
14889TIP3    H266083   4.672   1.850   4.631  0.5057 -0.0894 -0.5440
14890TIP3   OH266084   0.535   0.472   1.415  0.3044  0.1625  0.2583
14890TIP3    H166085   0.569   0.547   1.462  1.4274 -0.4402  0.4550
14890TIP3    H266086   0.489   0.420   1.481  0.9086 -0.1126  0.4760
14891TIP3   OH266087   5.453   2.784   2.416 -0.2593  0.3341 -0.5582
14891TIP3    H166088   5.504   2.704   2.429  0.0606  0.7558  0.9938
14891TIP3    H266089   5.425   2.779   2.325  3.0029  0.3251 -1.7089
14892TIP3   OH266090   0.195   2.036  13.602  0.4651  0.3942 -0.3594
14892TIP3    H166091   0.252   1.962  13.624  2.4078  1.6134 -1.0166
14892TIP3    H266092   0.126   2.034  13.668  1.6484 -0.7641  0.8943
14893TIP3   OH266093   6.302   4.496   5.712 -0.2340 -0.0407  0.1787
14893TIP3    H166094   6.270   4.515   5.624 -1.3145  2.1248  0.9832
14893TIP3    H266095   6.223   4.484   5.765  0.3836 -0.3408  1.0570
14894TIP3   OH266096   0.634   1.717   3.516  0.2222 -0.0782  0.1988
14894TIP3    H166097   0.540   1.704   3.529 -0.2118  2.0093 -0.5222
14894TIP3    H266098   0.649   1.696   3.424  0.8613 -2.0993  0.6851
14895TIP3   OH266099   2.490   0.304  15.509 -0.1101  0.3360 -0.3536
14895TIP3    H166100   2.444   0.236  15.460 -0.5327 -1.3530  2.1929
14895TIP3    H266101   2.444   0.309  15.592 -0.8545  4.6923 -0.7737
14896TIP3   OH266102   4.131   5.098  15.627  0.6940 -0.4668  0.0715
14896TIP3    H166103   4.073   5.076  15.700 -0.8412  1.0959 -0.6327
14896TIP3    H266104   4.089   5.059  15.550  1.8729 -1.3836 -0.1518
14897TIP3   OH266105   0.081   0.133  12.870 -0.3209  0.1670  0.1262
14897TIP3    H166106   0.128   0.163  12.793 -1.4416  0.1017 -0.6096
14897TIP3    H266107   0.059   0.041  12.851 -1.1265  0.3221  0.2450
14898TIP3   OH266108   4.830   2.911  16.210 -0.2035 -0.2801 -0.5466
14898TIP3    H166109   4.810   2.859  16.288 -0.7861  1.1934  0.3129
14898TIP3    H266110   4.922   2.935  16.220 -0.1318 -0.5265 -0.5935
14899TIP3   OH266111   6.357   2.397   0.230 -0.7634 -0.1655  0.1327
14899TIP3    H166112   6.332   2.470   0.173  1.0685  0.8491  0.5492
14899TIP3    H266113   6.292   2.329   0.212 -0.5909  0.3164 -2.7018
14900TIP3   OH266114   2.115   3.886   5.275  0.4064 -0.5028  0.4736
14900TIP3    H166115   2.075   3.843   5.198 -0.0327 -0.1886  0.5200
14900TIP3    H266116   2.207   3.895   5.252  0.2811 -0.4262 -0.0125
14901TIP3   OH266117   3.294   3.180   2.591  0.0731 -0.0557  0.1518
14901TIP3    H166118   3.378   3.136   2.577  0.4880 -0.2893  2.7903
14901TIP3    H266119   3.300   3.215   2.680 -1.6913  2.1392 -0.4999
14902TIP3   OH266120   0.178   0.238   1.788  0.2914  0.3130 -0.0496
14902TIP3    H166121   0.092   0.272   1.764  0.3901 -0.3022 -1.4140
14902TIP3    H266122   0.189   0.160   1.733  0.8474 -0.8351  1.6240
14903TIP3   OH266123   2.009   2.657   3.249  0.3480  0.3346  0.2090
14903TIP3    H166124   2.093   2.700   3.266  0.6963  0.4521 -1.6325
14903TIP3    H266125   1.944   2.720   3.279  0.9005  1.1198 -0.1907
14904TIP3   OH266126   1.719   3.542   3.227 -0.1999 -0.2777 -0.1403
14904TIP3    H166127   1.638   3.529   3.178 -0.4988  0.4842  0.1405
14904TIP3    H266128   1.705   3.493   3.308 -0.8108  0.7050  0.3632
14905TIP3   OH266129   2.184   5.289  16.188 -0.4089  0.0785 -0.7934
14905TIP3    H166130   2.123   5.233  16.140 -2.5220  2.9990 -1.8376
14905TIP3    H266131   2.129   5.344  16.243  1.7062 -0.3340  1.9383
14906TIP3   OH266132   2.367   5.175   1.651 -0.1352 -0.3683  0.2211
14906TIP3    H166133   2.330   5.092   1.620 -4.2531  1.0071  0.8780
14906TIP3    H266134   2.342   5.239   1.584  2.5498  0.5454 -0.0312
14907TIP3   OH266135   4.144   0.549  15.149 -0.1434  1.1536 -0.2627
14907TIP3    H166136   4.107   0.500  15.076  0.5669 -0.2968  0.2915
14907TIP3    H266137   4.230   0.578  15.118  0.4317 -0.0145  0.1717
14908TIP3   OH266138   4.217   4.459  14.329  0.3395  0.2559 -0.1346
14908TIP3    H166139   4.236   4.405  14.252  0.6632 -1.2435  0.9332
14908TIP3    H266140   4.124   4.480  14.321  0.3897  0.2020 -0.9762
14909TIP3   OH266141   1.374   0.982  12.751  0.6363  0.7807  0.1689
14909TIP3    H166142   1.336   1.059  12.709  1.8784  0.3236 -1.9677
14909TIP3    H266143   1.299   0.935  12.788 -0.1536  2.9107  1.4246
14910TIP3   OH266144   2.590   0.379   3.284  0.3767  0.0115  0.3062
14910TIP3    H166145   2.629   0.397   3.198  0.6723  1.8057  0.7807
14910TIP3    H266146   2.642   0.308   3.320  0.6835 -0.2951 -0.7207
14911TIP3   OH266147   0.388   2.966  16.228  0.1029  0.3562  0.6172
14911TIP3    H166148   0.297   2.993  16.211 -0.2085 -0.7178  0.4741
14911TIP3    H266149   0.380   2.877  16.263  1.0849  0.4031  0.9770
14912TIP3   OH266150   4.468   5.006  15.761 -0.1049  0.2110  0.4609
14912TIP3    H166151   4.398   4.959  15.716 -0.1748 -1.4575  2.1738
14912TIP3    H266152   4.467   5.094  15.722 -1.2985 -0.5892 -1.4666
14913TIP3   OH266153   3.492   0.757   0.747 -0.2030 -0.4020  0.1674
14913TIP3    H166154   3.402   0.733   0.723 -0.1506 -0.1110 -0.3276
14913TIP3    H266155   3.486   0.785   0.838 -0.8647  0.8931 -0.2505
14914TIP3   OH266156   2.183   3.950  11.078  0.0814 -0.5666  0.4248
14914TIP3    H166157   2.202   4.042  11.060 -0.4643 -0.5246  0.0379
14914TIP3    H266158   2.242   3.927  11.150 -0.0542  0.1915  0.7918
14915TIP3   OH266159   1.263   6.418   5.080  0.0016  0.4055 -0.1234
14915TIP3    H166160   1.205   6.411   5.155 -0.5095  1.2855 -0.4215
14915TIP3    H266161   1.249   6.507   5.046  1.0934  0.4361 -0.5512
14916TIP3   OH266162   3.531   5.862   1.761 -0.1502  0.0722  0.5150
14916TIP3    H166163   3.541   5.788   1.822 -2.7282 -1.6220 -0.9348
14916TIP3    H266164   3.478   5.926   1.810  0.0597 -0.1013  0.9726
14917TIP3   OH266165   3.391   1.598  15.164  0.2919 -0.2911 -0.0323
14917TIP3    H166166   3.407   1.693  15.163  0.1136 -0.2476  0.8764
14917TIP3    H266167   3.343   1.582  15.245  1.6705 -1.3837  0.6139
14918TIP3   OH266168   4.183   2.099   0.082 -0.1399  0.0441  0.1193
14918TIP3    H166169   4.210   2.008   0.099  0.2210 -0.0460 -0.9072
14918TIP3    H266170   4.250   2.134   0.024 -1.3051  0.3635 -1.0687
14919TIP3   OH266171   0.341   4.069  15.804 -0.8542  0.4506  0.7058
14919TIP3    H166172   0.335   4.101  15.714 -0.1277 -0.7107  0.2276
14919TIP3    H266173   0.421   4.110  15.839  0.4601 -1.2593 -0.1274
14920TIP3   OH266174   2.737   2.335   6.159  0.3772 -0.2303 -0.5205
14920TIP3    H166175   2.810   2.387   6.194  0.9806  0.7847 -3.0495
14920TIP3    H266176   2.752   2.334   6.065 -1.0407 -2.9414 -0.8049
14921TIP3   OH266177   5.634   0.373  12.534  0.3149 -0.0882 -0.5484
14921TIP3    H166178   5.555   0.414  12.499  0.4801  1.8072  1.1116
14921TIP3    H266179   5.697   0.445  12.542  1.0098 -0.8470  1.4335
14922TIP3   OH266180   3.297   2.909   0.377  0.1368  0.1482 -0.3637
14922TIP3    H166181   3.374   2.874   0.334  0.7584 -1.4387  1.8473
14922TIP3    H266182   3.243   2.832   0.396 -0.2764  0.7989  1.2751
14923TIP3   OH266183   3.247   0.328   6.381 -0.1545  0.2722  0.3581
14923TIP3    H166184   3.254   0.402   6.441  1.2790  0.0120  0.5521
14923TIP3    H266185   3.229   0.367   6.296  1.3954  0.9471  0.3042
14924TIP3   OH266186   0.392   2.837   1.349  0.1549  0.3346  0.2532
14924TIP3    H166187   0.407   2.835   1.254  0.6969  0.8104  0.3216
14924TIP3    H266188   0.372   2.747   1.372  1.3215 -0.0346 -0.1113
14925TIP3   OH266189   3.613   0.100   4.635 -0.3323 -0.2618 -0.1646
14925TIP3    H166190   3.644   0.165   4.697 -2.0877  0.2058  0.2887
14925TIP3    H266191   3.609   0.019   4.685  0.6281 -0.4395 -0.3698
14926TIP3   OH266192   2.375   4.470  14.468 -0.2819 -0.2880 -0.1722
14926TIP3    H166193   2.451   4.492  14.416 -0.8238  3.4175  0.3157
14926TIP3    H266194   2.301   4.481  14.408 -0.6664  0.5634  0.4308
14927TIP3   OH266195   6.530   0.336   2.095  0.1625  0.0938  0.3370
14927TIP3    H166196   6.521   0.313   2.187  2.2749 -1.7804  0.1650
14927TIP3    H266197   6.621   0.362   2.085  0.6771 -2.1052 -1.6010
14928TIP3   OH266198   5.791   4.392   1.539  0.4013 -0.0774 -0.2558
14928TIP3    H166199   5.723   4.389   1.606  1.5594  0.5387  0.9962
14928TIP3    H266200   5.791   4.305   1.501 -0.6679 -0.2685  0.1371
14929TIP3   OH266201   2.972   0.481  16.504  0.1029  0.0991  0.3892
14929TIP3    H166202   2.951   0.510  16.415  1.5033  0.6007  0.2022
14929TIP3    H266203   3.050   0.532  16.528 -0.1896 -0.1061  1.8652
14930TIP3   OH266204   5.639   6.429   0.484  0.1036 -0.7271 -0.6596
14930TIP3    H166205   5.706   6.498   0.484 -1.3958  0.8048  0.1590
14930TIP3    H266206   5.671   6.365   0.421  2.7314 -0.4758  0.2904
14931TIP3   OH266207   3.288   4.566  15.034 -0.5140  1.0154  0.1607
14931TIP3    H166208   3.288   4.585  15.128  2.2500  1.6779  0.1262
14931TIP3    H266209   3.208   4.605  15.001 -1.3884  1.0360  2.1858
14932TIP3   OH266210   4.337   3.007   4.249  0.4002  0.1818 -0.6575
14932TIP3    H166211   4.340   3.042   4.338 -0.4530 -1.6780  0.1680
14932TIP3    H266212   4.367   2.916   4.259 -1.2404 -0.5485 -1.9884
14933TIP3   OH266213   0.961   2.620  11.845 -0.4886 -0.4410 -0.4751
14933TIP3    H166214   0.949   2.572  11.928 -1.6573  0.5632 -0.0203
14933TIP3    H266215   0.884   2.677  11.841  0.9460  1.5250 -0.9042
14934TIP3   OH266216   4.069   3.165  15.270 -0.7544  0.4445  0.6432
14934TIP3    H166217   4.163   3.171  15.283 -0.5793  0.5910 -0.5595
14934TIP3    H266218   4.051   3.071  15.272 -0.0937  0.1881 -2.0187
14935TIP3   OH266219   1.974   2.228  12.215  0.1534  0.2101 -0.1540
14935TIP3    H166220   1.896   2.282  12.210 -0.0780  0.1219  1.8772
14935TIP3    H266221   2.046   2.288  12.201 -0.2276  0.2523 -2.3085
14936TIP3   OH266222   1.759   5.818   0.330  0.2816 -0.2853 -1.1193
14936TIP3    H166223   1.747   5.740   0.384  1.0152  1.0132  1.0180
14936TIP3    H266224   1.680   5.821   0.275 -0.8801 -1.2511  0.4059
14937TIP3   OH266225   3.358   5.908   4.141 -0.0159 -0.2898  0.2185
14937TIP3    H166226   3.380   5.898   4.234  0.8547  1.1965  0.2136
14937TIP3    H266227   3.443   5.906   4.096 -0.2187  1.2510 -0.2886
14938TIP3   OH266228   0.824   6.170  15.522  0.0267 -0.1343 -0.6530
14938TIP3    H166229   0.872   6.180  15.439  1.4631 -0.0523  0.1548
14938TIP3    H266230   0.863   6.236  15.580 -1.5734  0.4249 -0.1607
14939TIP3   OH266231   0.591   0.389   0.658 -0.4430 -0.2633 -0.1469
14939TIP3    H166232   0.532   0.464   0.652 -1.8331 -1.3288 -0.6239
14939TIP3    H266233   0.654   0.402   0.587 -0.5834  0.5314 -0.1283
14940TIP3   OH266234   1.305   3.732  13.633 -0.2304 -0.1475 -0.1311
14940TIP3    H166235   1.355   3.685  13.567  0.5372 -1.4868  1.3381
14940TIP3    H266236   1.351   3.815  13.644 -1.2130  0.7878 -2.2616
14941TIP3   OH266237   0.023   0.180   0.632 -0.6169 -0.3849  0.2936
14941TIP3    H166238   0.033   0.161   0.725  0.1718  0.4773  0.4042
14941TIP3    H266239  -0.019   0.266   0.629 -0.0358 -0.1068 -0.1305
14942TIP3   OH266240   1.354   6.568  15.610  0.2069  0.3658  0.8598
14942TIP3    H166241   1.339   6.655  15.648  0.5061  0.2268  1.3095
14942TIP3    H266242   1.439   6.541  15.646  2.1649  1.6075 -2.4606
14943TIP3   OH266243   5.395   2.168  12.733  0.3435  0.4093  0.0001
14943TIP3    H166244   5.333   2.238  12.710 -0.3519 -0.2900 -0.2879
14943TIP3    H266245   5.475   2.191  12.686 -0.0594  0.7240 -0.5489
14944TIP3   OH266246   3.247   1.836   5.721 -0.1331 -0.2413 -0.1685
14944TIP3    H166247   3.218   1.923   5.748 -0.4878 -0.5910  0.5991
14944TIP3    H266248   3.279   1.795   5.801 -1.2427 -1.3109 -0.2341
14945TIP3   OH266249   5.818   1.658  12.704  0.0550  0.2387  0.2050
14945TIP3    H166250   5.844   1.720  12.635 -1.5861 -0.1956 -0.8604
14945TIP3    H266251   5.731   1.629  12.678  0.0961 -1.2411  1.5959
14946TIP3   OH266252   6.367   0.081  15.402  0.1010 -0.1533 -0.5872
14946TIP3    H166253   6.381  -0.014  15.409  0.5240 -0.0760 -0.3252
14946TIP3    H266254   6.455   0.118  15.405 -0.1669  0.4094  1.7994
14947TIP3   OH266255   4.817   3.193  16.601  0.2625 -0.2377  0.2853
14947TIP3    H166256   4.754   3.167  16.534  1.0436  1.0587 -0.9918
14947TIP3    H266257   4.786   3.149  16.681 -1.7095 -0.3958 -0.5111
14948TIP3   OH266258   0.417   4.912  15.559  0.4318 -0.0909  0.0662
14948TIP3    H166259   0.444   4.912  15.467  2.4943 -2.0946  0.5864
14948TIP3    H266260   0.471   4.979  15.600  1.7102 -1.2166  0.3093
14949TIP3   OH266261   5.532   4.279  14.579 -0.3707  0.5847  0.2368
14949TIP3    H166262   5.496   4.312  14.497  0.6268  2.3923  0.4837
14949TIP3    H266263   5.553   4.187  14.561 -0.1101  0.9582 -1.5518
14950TIP3   OH266264   0.856   0.753   5.894 -0.5875 -0.1467 -0.1685
14950TIP3    H166265   0.885   0.788   5.978 -1.0980 -0.2059  0.0388
14950TIP3    H266266   0.840   0.831   5.840  4.4886 -0.0378 -1.9710
14951TIP3   OH266267   0.621   2.459   1.946 -0.0525 -0.6475  0.0133
14951TIP3    H166268   0.543   2.476   1.894 -0.2782 -0.1715  0.4958
14951TIP3    H266269   0.589   2.450   2.036  0.3377 -1.3969  0.0942
14952TIP3   OH266270   2.124   1.493  13.000 -0.5089  0.6266 -0.1803
14952TIP3    H166271   2.149   1.473  12.909  0.8537  1.1906  0.0429
14952TIP3    H266272   2.205   1.522  13.041 -0.3790 -2.3970  2.0649
14953TIP3   OH266273   3.694   6.034   1.071 -0.3405  0.6074  0.3666
14953TIP3    H166274   3.778   6.057   1.031 -0.6183  0.5840 -0.2410
14953TIP3    H266275   3.717   5.974   1.143  0.1761  0.7781  0.3487
14954TIP3   OH266276   1.396   6.020  14.957 -0.1998  0.3777 -0.4312
14954TIP3    H166277   1.338   5.979  15.022  0.7014  0.2085  0.2885
14954TIP3    H266278   1.411   6.108  14.990 -0.3103  0.5320 -0.7890
14955TIP3   OH266279   6.289   6.115   4.925 -0.1958  0.3742  0.5507
14955TIP3    H166280   6.293   6.203   4.889 -0.7807 -0.3897 -1.5331
14955TIP3    H266281   6.277   6.058   4.849  0.1319 -1.5106  1.8297
14956TIP3   OH266282   2.233   3.789   3.746 -0.0237  0.2045  0.0256
14956TIP3    H166283   2.154   3.840   3.730 -0.4733 -0.6533 -0.5256
14956TIP3    H266284   2.234   3.775   3.841 -0.5180  0.2266  0.0349
14957TIP3   OH266285   4.468   3.847   6.410  0.3421 -0.2587 -0.0685
14957TIP3    H166286   4.489   3.912   6.477 -0.5469  1.5865 -1.5055
14957TIP3    H266287   4.434   3.772   6.460  2.0724  0.0356  1.6751
14958TIP3   OH266288   0.462   5.695   5.307 -0.1764  0.1108  0.4088
14958TIP3    H166289   0.464   5.632   5.380 -0.4103  0.4421  0.7068
14958TIP3    H266290   0.548   5.737   5.309  0.4998 -1.1490 -0.6524
14959TIP3   OH266291   0.396   4.434  13.313  0.2951  0.4403 -0.2462
14959TIP3    H166292   0.373   4.345  13.339 -0.3148  0.7368  0.2575
14959TIP3    H266293   0.360   4.489  13.382  2.3159  0.9684  0.4432
14960TIP3   OH266294   2.338   1.010   3.262 -0.2986  0.5123  0.1624
14960TIP3    H166295   2.315   1.042   3.349  0.9637  0.3230  0.5863
14960TIP3    H266296   2.297   1.071   3.202  0.0879  1.5415  0.9235
14961TIP3   OH266297   1.195   2.278   1.486 -0.4612 -0.2926  0.1197
14961TIP3    H166298   1.270   2.336   1.503 -0.3100 -0.3428 -0.3591
14961TIP3    H266299   1.234   2.202   1.443 -0.5582 -1.0701  1.3418
14962TIP3   OH266300   2.054   5.050  14.833  0.2052  0.1135 -0.4067
14962TIP3    H166301   2.071   5.059  14.926  1.3662  0.0128 -0.5928
14962TIP3    H266302   1.978   4.991  14.828 -0.7018  1.1626  0.4878
14963TIP3   OH266303   0.121   0.034   4.165 -0.1941 -0.1546 -0.1955
14963TIP3    H166304   0.125   0.128   4.146 -0.2305 -0.0011  0.5060
14963TIP3    H266305   0.093  -0.006   4.083 -1.1953  0.5595 -0.2231
14964TIP3   OH266306   3.102   2.079   5.188  0.3234  0.3290  0.1076
14964TIP3    H166307   3.034   2.017   5.213  0.2607 -0.4248 -1.7328
14964TIP3    H266308   3.178   2.056   5.242 -0.4497  0.3080  1.2177
14965TIP3   OH266309   6.747   5.457   4.501 -0.3438 -0.0549  0.4762
14965TIP3    H166310   6.670   5.476   4.555 -0.0293  3.4491 -0.0517
14965TIP3    H266311   6.712   5.431   4.417 -0.8909 -1.0896  1.0108
14966TIP3   OH266312   3.522   4.479   1.997  0.2217  0.4566  0.1752
14966TIP3    H166313   3.553   4.470   1.907 -1.1669  1.1340 -0.4062
14966TIP3    H266314   3.468   4.558   1.996 -0.9791 -0.3011  1.2569
14967TIP3   OH266315   6.256   3.857  16.310  0.3942  0.1472  0.1499
14967TIP3    H166316   6.164   3.886  16.312  0.4773  0.5572 -1.2912
14967TIP3    H266317   6.304   3.926  16.356  0.4318  1.8120 -2.2196
14968TIP3   OH266318   3.667   4.188  14.169 -0.5347  0.1079  0.1482
14968TIP3    H166319   3.649   4.099  14.199  1.1400 -0.5019 -0.5524
14968TIP3    H266320   3.762   4.197  14.173 -0.4624  1.0103 -2.0546
14969TIP3   OH266321   2.274   5.411  14.496  0.0169  0.2302  0.5358
14969TIP3    H166322   2.329   5.333  14.506  1.0798  0.6998 -1.2170
14969TIP3    H266323   2.236   5.402  14.408  0.7945  2.0563 -0.0180
14970TIP3   OH266324   2.982   3.553   1.631 -0.6085  0.6704 -0.7699
14970TIP3    H166325   3.003   3.490   1.700  0.5742  3.0399  1.1836
14970TIP3    H266326   2.889   3.572   1.644 -0.3583  1.2285  0.3466
14971TIP3   OH266327   1.107   0.567  12.271  0.1147 -0.6710  0.4846
14971TIP3    H166328   1.062   0.552  12.188 -0.2524 -1.4244  0.8120
14971TIP3    H266329   1.199   0.547  12.252 -0.0551 -1.4043  0.3985
14972TIP3   OH266330   1.659   6.672  14.710 -0.0177 -0.1054  0.2309
14972TIP3    H166331   1.640   6.715  14.794  2.4532 -1.9083  1.8267
14972TIP3    H266332   1.739   6.714  14.679  0.3668 -1.0439 -0.0610
14973TIP3   OH266333   0.435   3.728   5.125 -0.1603 -0.0684  0.8735
14973TIP3    H166334   0.453   3.646   5.080 -3.0236  0.2998 -1.2200
14973TIP3    H266335   0.355   3.712   5.175  0.6368  0.7735  2.5161
14974TIP3   OH266336   4.381   3.082   3.853 -0.1225 -0.4775  0.4179
14974TIP3    H166337   4.435   3.129   3.790 -1.2786  0.1085 -0.1719
14974TIP3    H266338   4.432   3.084   3.934  0.2675  0.9843  0.1593
14975TIP3   OH266339   0.309   1.684   5.350 -0.2110  0.0528  0.6588
14975TIP3    H166340   0.264   1.708   5.431 -2.6198 -1.1944 -0.2129
14975TIP3    H266341   0.381   1.628   5.379 -0.0390  0.9261  2.0193
14976TIP3   OH266342   1.366   4.391  11.549 -0.5992 -0.1733 -0.3669
14976TIP3    H166343   1.271   4.385  11.556 -0.8053  2.0213 -0.4329
14976TIP3    H266344   1.382   4.478  11.512  1.4172 -0.7727 -1.0616
14977TIP3   OH266345   5.662   2.091   3.599  0.6255  0.2192 -0.4642
14977TIP3    H166346   5.643   2.054   3.512  0.0225 -0.7836  0.0705
14977TIP3    H266347   5.641   2.020   3.660  0.1827  1.1935  0.5572
14978TIP3   OH266348   6.040   1.874   3.621 -0.3501 -0.4571 -0.4698
14978TIP3    H166349   6.038   1.923   3.704 -0.5135 -0.5140 -0.4388
14978TIP3    H266350   6.024   1.783   3.647  0.2456 -0.5723 -0.4943
14979TIP3   OH266351   0.272   6.585  13.659  0.2632 -0.0495  0.6386
14979TIP3    H166352   0.308   6.511  13.610  0.1175 -1.0324  1.9434
14979TIP3    H266353   0.184   6.597  13.623  0.7552  0.3470 -0.4616
14980TIP3   OH266354   3.867   2.013  16.153 -0.4818 -0.5062 -0.4340
14980TIP3    H166355   3.887   1.953  16.224 -0.9489 -0.5214 -0.3169
14980TIP3    H266356   3.841   2.095  16.196  2.0947  0.4761 -0.5694
14981TIP3   OH266357   6.682   6.365   1.914  0.4148 -0.2678  0.3344
14981TIP3    H166358   6.595   6.384   1.880  1.0633 -0.4920 -1.5388
14981TIP3    H266359   6.669   6.289   1.971 -0.7303  0.2149  0.7418
14982TIP3   OH266360   0.469   0.034  14.760  0.0291 -0.2766  0.2308
14982TIP3    H166361   0.455   0.125  14.735 -1.8322 -0.5258  0.1991
14982TIP3    H266362   0.508   0.038  14.847 -2.2240  0.5785  1.2612
14983TIP3   OH266363   0.965   4.673   1.086 -0.3326 -0.2426 -0.0474
14983TIP3    H166364   1.049   4.644   1.049  0.5261  0.4077  1.3243
14983TIP3    H266365   0.960   4.766   1.065 -1.4642 -0.5783 -1.4388
14984TIP3   OH266366   1.550   2.402   5.616  0.0997 -0.1052  0.1070
14984TIP3    H166367   1.514   2.348   5.546  0.8384 -0.7999  0.2430
14984TIP3    H266368   1.526   2.355   5.696  0.6527 -0.1850  0.2298
14985TIP3   OH266369   3.681   1.733   0.678 -0.2699  0.2572 -0.5897
14985TIP3    H166370   3.650   1.728   0.769  0.6761  0.5896 -0.2393
14985TIP3    H266371   3.608   1.698   0.627  0.0723 -2.3180  0.4778
14986TIP3   OH266372   4.804   5.114  15.839  0.8511  0.0999  0.7275
14986TIP3    H166373   4.798   5.058  15.917  0.4079  1.9249  2.0891
14986TIP3    H266374   4.893   5.151  15.844  1.2815 -0.7424 -0.3723
14987TIP3   OH266375   4.353   3.980   5.926  0.2068 -0.1036  0.4894
14987TIP3    H166376   4.281   4.001   5.867  0.2807 -1.5916 -0.1748
14987TIP3    H266377   4.405   4.060   5.931 -0.5828  0.4706 -0.3453
14988TIP3   OH266378   6.022   0.543  14.849  0.4288 -0.4984 -0.5200
14988TIP3    H166379   6.116   0.554  14.832  0.3829  0.0800 -0.4190
14988TIP3    H266380   5.984   0.630  14.833 -0.2610 -0.9882 -1.6488
14989TIP3   OH266381   3.525   3.417   5.823 -0.4041 -0.5103 -0.0630
14989TIP3    H166382   3.592   3.458   5.878  0.0797  0.1677 -1.1134
14989TIP3    H266383   3.459   3.486   5.810 -0.4591 -0.6253 -0.4085
14990TIP3   OH266384   2.696   5.318  14.128 -0.2969 -0.3433  0.3500
14990TIP3    H166385   2.742   5.320  14.044 -1.5111 -1.6349 -0.4118
14990TIP3    H266386   2.762   5.292  14.192  0.5045  0.0349 -0.3092
14991TIP3   OH266387   5.423   3.669  15.919  0.5860 -0.0175 -0.4511
14991TIP3    H166388   5.369   3.616  15.862 -0.8067  1.4014 -0.5106
14991TIP3    H266389   5.482   3.606  15.961 -3.2121 -2.2970  2.1612
14992TIP3   OH266390   3.896   5.410   4.728  0.3844 -0.8110 -0.5693
14992TIP3    H166391   3.976   5.412   4.780  0.5433  0.8719 -0.8246
14992TIP3    H266392   3.871   5.317   4.725  0.6935 -1.0323  1.9594
14993TIP3   OH266393   1.892   3.591  12.949  0.3509 -0.2569  0.0470
14993TIP3    H166394   1.822   3.549  12.899  1.9894 -1.6526 -1.2186
14993TIP3    H266395   1.953   3.520  12.969  2.4815  1.2166 -0.8102
14994TIP3   OH266396   4.793   0.018   1.420  0.0878 -0.2878  0.4495
14994TIP3    H166397   4.785   0.113   1.416  1.2914 -0.0906  1.7092
14994TIP3    H266398   4.888   0.003   1.427  0.0998 -1.7030 -1.7352
14995TIP3   OH266399   3.071   0.630  11.339  0.3734 -0.4806 -0.3201
14995TIP3    H166400   3.043   0.556  11.286 -0.0250 -0.5374 -0.0357
14995TIP3    H266401   3.167   0.624  11.339  0.3326 -1.3898  0.2465
14996TIP3   OH266402   6.740   4.143  15.968  0.1151 -0.2267  0.4462
14996TIP3    H166403   6.705   4.077  15.907 -1.4779  0.7390  0.2442
14996TIP3    H266404   6.680   4.140  16.042  0.2826  0.6882  0.6266
14997TIP3   OH266405   5.400   0.241   0.800 -0.7611 -0.2162  0.1459
14997TIP3    H166406   5.313   0.258   0.765 -0.8592 -0.7298  0.1233
14997TIP3    H266407   5.434   0.169   0.746  0.1928  0.8162 -0.6856
14998TIP3   OH266408   4.629   1.966  11.504 -0.2295  0.9858 -0.4283
14998TIP3    H166409   4.693   2.037  11.497  1.9837 -0.9382 -0.7119
14998TIP3    H266410   4.595   1.956  11.415  1.1243  0.2729 -0.8972
14999TIP3   OH266411   2.722   3.310   0.510  0.7002 -0.1321 -0.4313
14999TIP3    H166412   2.798   3.333   0.456  0.2255 -0.4108 -1.2371
14999TIP3    H266413   2.723   3.214   0.513  0.3906 -0.1359 -0.4281
15000TIP3   OH266414   0.764   2.151   5.415 -0.2725  0.1433  0.0152
15000TIP3    H166415   0.715   2.106   5.346  1.2769  0.8319 -1.6071
15000TIP3    H266416   0.817   2.083   5.456  0.5456  0.1078 -1.0716
15001TIP3   OH266417   2.969   3.662  16.854  0.1156  0.0582  0.0620
15001TIP3    H166418   3.003   3.735  16.906 -0.5084  1.3090 -1.2261
15001TIP3    H266419   2.993   3.683  16.764 -0.8160 -0.9016 -0.4362
15002TIP3   OH266420   0.732   3.506  10.858 -0.7195  0.2804 -0.1591
15002TIP3    H166421   0.823   3.524  10.832 -0.0148 -2.4293  0.1340
15002TIP3    H266422   0.725   3.411  10.856 -3.3116  0.3728  0.7899
15003TIP3   OH266423   4.324   3.777  13.417 -0.1781 -0.5498 -0.1397
15003TIP3    H166424   4.393   3.837  13.444  0.3484 -0.8708 -0.7440
15003TIP3    H266425   4.252   3.834  13.388 -0.0478 -0.2183  0.1828
15004TIP3   OH266426   5.867   2.703  13.762  0.3195  0.1942 -0.1715
15004TIP3    H166427   5.922   2.780  13.748  0.5362 -0.1994 -1.6701
15004TIP3    H266428   5.920   2.629  13.730 -1.3367 -0.0940 -2.5235
15005TIP3   OH266429   2.594   0.718   4.722 -0.6947  0.8674 -0.0501
15005TIP3    H166430   2.616   0.809   4.703 -0.2730  0.9146  0.6300
15005TIP3    H266431   2.606   0.709   4.816  1.0207 -0.3512 -0.3261
15006TIP3   OH266432   1.518   0.693  14.186  0.3588 -0.3736  0.0561
15006TIP3    H166433   1.570   0.755  14.236 -1.0823  0.4705  0.5851
15006TIP3    H266434   1.554   0.607  14.209  0.8904  0.1194  1.1395
15007TIP3   OH266435   3.470   0.015  15.865 -0.0044  0.2313 -0.2376
15007TIP3    H166436   3.562  -0.001  15.844  0.7259  1.3319  1.9128
15007TIP3    H266437   3.449   0.098  15.822  0.5641  0.8952  0.7396
15008TIP3   OH266438   1.622   6.491   2.333 -0.3345  0.3067 -0.3593
15008TIP3    H166439   1.617   6.578   2.373 -0.3876 -0.3704  1.2024
15008TIP3    H266440   1.536   6.476   2.295 -0.2925  0.9683 -0.7212
15009TIP3   OH266441   4.366   5.493  15.109  0.0346 -0.2793  0.8218
15009TIP3    H166442   4.352   5.462  15.019  3.5134  0.0497  0.0104
15009TIP3    H266443   4.279   5.492  15.148 -1.5268 -1.2019 -2.2857
15010TIP3   OH266444   3.701   2.735  16.536 -0.8191 -0.1165 -0.0080
15010TIP3    H166445   3.774   2.710  16.592 -0.1487  0.6313 -0.5263
15010TIP3    H266446   3.639   2.778  16.595 -0.1291  0.6530  0.1720
15011TIP3   OH266447   2.468   4.389  15.271  0.1149  0.8396 -0.4806
15011TIP3    H166448   2.476   4.313  15.214 -1.3272  0.4812 -0.2513
15011TIP3    H266449   2.459   4.353  15.359  0.0163  1.2931 -0.2994
15012TIP3   OH266450   2.280   1.481   3.762 -0.9649 -0.1906 -0.4453
15012TIP3    H166451   2.224   1.453   3.689 -0.5958  1.7592 -1.5328
15012TIP3    H266452   2.219   1.515   3.828 -1.2206 -0.7646 -0.3802
15013TIP3   OH266453   5.669   5.725  11.830  0.2021  0.2019 -0.3107
15013TIP3    H166454   5.704   5.813  11.843 -2.2173  1.0935  0.8929
15013TIP3    H266455   5.594   5.737  11.772 -0.4595 -0.9697  0.2540
15014TIP3   OH266456   0.309   2.223   2.452  0.3498  0.7451 -0.1048
15014TIP3    H166457   0.383   2.210   2.511  1.2581  1.3984 -1.0812
15014TIP3    H266458   0.311   2.316   2.431  0.5054  0.3994 -1.7580
15015TIP3   OH266459   0.841   1.971   3.138 -0.3933  0.3720  0.5880
15015TIP3    H166460   0.881   2.016   3.064 -0.8680  1.2125  0.8331
15015TIP3    H266461   0.874   2.017   3.215  0.3163 -0.6699  0.9358
15016TIP3   OH266462   0.241   0.197   4.929 -0.1136  0.5725  0.5240
15016TIP3    H166463   0.246   0.289   4.957  0.4715  0.2138  1.6695
15016TIP3    H266464   0.321   0.183   4.877  0.2555  0.4865  1.1010
15017TIP3   OH266465   0.542   2.901   3.584 -0.0285 -0.4777  0.4959
15017TIP3    H166466   0.570   2.824   3.633 -0.6377 -0.4278  0.9290
15017TIP3    H266467   0.492   2.953   3.646  0.5964  0.4062  0.2799
15018TIP3   OH266468   5.682   4.341  12.420 -0.1180 -0.2525 -0.1695
15018TIP3    H166469   5.691   4.420  12.366 -0.9832  1.4151  1.9656
15018TIP3    H266470   5.770   4.322  12.450  0.1151 -0.1551 -0.7847
15019TIP3   OH266471   1.509   1.083   3.520  0.5924  0.3723  0.4403
15019TIP3    H166472   1.567   1.009   3.502 -1.9073 -1.8611  0.9947
15019TIP3    H266473   1.516   1.096   3.615 -0.8288 -0.8814  0.7472
15020TIP3   OH266474   3.258   2.110   4.163  0.4076 -0.0672  0.9179
15020TIP3    H166475   3.189   2.084   4.223 -0.3831 -2.3892 -0.8683
15020TIP3    H266476   3.215   2.114   4.077  1.8774  1.3502  0.1959
15021TIP3   OH266477   6.524   2.119   0.661 -0.3221 -0.1220  0.1463
15021TIP3    H166478   6.458   2.084   0.720 -0.8256  0.2451 -0.1894
15021TIP3    H266479   6.477   2.136   0.580  0.1980  0.0928 -0.1152
15022TIP3   OH266480   4.189   5.135  16.195 -0.4564  0.2756  0.1765
15022TIP3    H166481   4.194   5.093  16.109  0.8435 -0.7959  0.7281
15022TIP3    H266482   4.252   5.207  16.190  1.4283 -1.2199  0.9129
15023TIP3   OH266483   0.351   4.117  16.147  0.5825  0.8123  0.4487
15023TIP3    H166484   0.359   4.065  16.227  0.7590  0.3479  0.1352
15023TIP3    H266485   0.286   4.069  16.095 -0.2615  1.6320  0.7116
15024TIP3   OH266486   1.159   2.991   5.109 -0.4510 -0.2164 -0.2788
15024TIP3    H166487   1.158   3.025   5.199 -0.8421 -0.6970 -0.0931
15024TIP3    H266488   1.112   3.058   5.058  1.3669  0.9597 -0.4866
15025TIP3   OH266489   5.873   4.779  14.051  0.1295 -0.3069  0.6724
15025TIP3    H166490   5.946   4.834  14.021 -0.0123 -1.8316 -3.0141
15025TIP3    H266491   5.890   4.767  14.145  4.2976 -0.0453  0.1765
15026TIP3   OH266492   3.308   2.749   2.916 -0.4219 -0.5943 -0.5411
15026TIP3    H166493   3.334   2.676   2.859 -1.2846 -0.1959 -1.4793
15026TIP3    H266494   3.290   2.709   3.001 -1.3798 -1.5640 -1.1759
15027TIP3   OH266495   3.273   0.030   4.932 -0.2580  0.7447  0.2372
15027TIP3    H166496   3.284   0.095   4.862  0.3387 -1.1975 -1.5884
15027TIP3    H266497   3.353   0.039   4.985 -0.2605  1.5830  0.1247
15028TIP3   OH266498   2.712   6.208   1.651 -0.3976 -0.1851  0.4588
15028TIP3    H166499   2.666   6.279   1.696 -2.6167 -1.4471  0.3696
15028TIP3    H266500   2.707   6.231   1.559  1.6623  1.0112  0.5840
15029TIP3   OH266501   2.646   1.902   6.603  0.2285 -0.2233 -0.2666
15029TIP3    H166502   2.720   1.842   6.589  0.0248 -0.3818 -0.6893
15029TIP3    H266503   2.666   1.945   6.686  1.8926  1.3084 -1.3833
15030TIP3   OH266504   3.514   2.768   3.778 -0.2107 -0.4235 -0.9760
15030TIP3    H166505   3.597   2.817   3.781 -0.8033  0.7030 -1.9480
15030TIP3    H266506   3.467   2.795   3.857  0.6323 -1.6542 -0.0162
15031TIP3   OH266507   6.468   3.422  13.908 -0.1139 -0.3209  0.4562
15031TIP3    H166508   6.509   3.492  13.959  0.7210 -0.6420  0.2305
15031TIP3    H266509   6.451   3.461  13.822 -2.6300  0.6082  1.2843
15032TIP3   OH266510   4.780   5.074   3.757 -0.9839  0.3914 -0.2658
15032TIP3    H166511   4.808   4.983   3.746 -0.6479 -0.0321  3.0620
15032TIP3    H266512   4.855   5.125   3.727  0.3466 -0.5858  1.1811
15033TIP3   OH266513   1.110   5.678  16.567 -0.5621  0.3519 -0.1287
15033TIP3    H166514   1.111   5.583  16.579 -1.9767 -0.0496 -2.5262
15033TIP3    H266515   1.023   5.697  16.531 -0.0333  2.4632 -0.4358
15034TIP3   OH266516   0.543   6.086   3.725 -0.3205  0.2107 -0.2071
15034TIP3    H166517   0.522   6.134   3.645 -1.3571  1.0756  0.5614
15034TIP3    H266518   0.468   6.029   3.740  1.1456 -2.2414 -1.4527
15035TIP3   OH266519   5.111   0.581  15.656 -0.1903 -0.6752 -0.7280
15035TIP3    H166520   5.070   0.664  15.634  1.3638  0.4105  0.2543
15035TIP3    H266521   5.050   0.539  15.716 -0.1057  0.7236  0.3959
15036TIP3   OH266522   1.630   4.337  14.880 -0.0151  0.1105 -0.2166
15036TIP3    H166523   1.607   4.275  14.811  0.2779  0.1255 -0.3285
15036TIP3    H266524   1.723   4.320  14.897 -0.0123  0.3102 -0.0324
15037TIP3   OH266525   2.824   1.377  14.590 -0.7023  0.2819 -0.1611
15037TIP3    H166526   2.739   1.357  14.550 -0.5381 -1.7169  0.3803
15037TIP3    H266527   2.826   1.324  14.669  0.3575  1.6509  0.7624
15038TIP3   OH266528   1.984   4.550   3.065  0.6882 -0.1210  0.3809
15038TIP3    H166529   1.938   4.470   3.039 -1.0495  1.3458 -1.3576
15038TIP3    H266530   2.049   4.564   2.996 -0.0918  0.7566 -0.2101
15039TIP3   OH266531   1.839   6.691   2.860 -0.0217  0.2223 -0.7514
15039TIP3    H166532   1.783   6.616   2.876  0.4120 -0.6859 -3.0725
15039TIP3    H266533   1.891   6.701   2.940 -0.3839 -1.6771 -0.2466
15040TIP3   OH266534   1.978   6.375   2.815 -0.2735 -0.0158 -0.4019
15040TIP3    H166535   1.888   6.345   2.807 -0.8741  1.5766  0.2507
15040TIP3    H266536   2.026   6.322   2.751 -1.4916 -1.4912 -0.1436
15041TIP3   OH266537   0.176   6.533   1.174  0.0728  0.5771  0.4208
15041TIP3    H166538   0.124   6.588   1.233  0.6788  1.9596 -0.2700
15041TIP3    H266539   0.141   6.445   1.185 -0.3572  0.9356  2.2323
15042TIP3   OH266540   4.845   0.444   2.186  0.2134  0.3986  0.3474
15042TIP3    H166541   4.876   0.465   2.274  1.0432  0.9271 -0.0586
15042TIP3    H266542   4.781   0.373   2.200  1.4307 -0.5757  1.2511
15043TIP3   OH266543   6.572   2.820  11.088  0.0904  0.4586 -0.0225
15043TIP3    H166544   6.558   2.739  11.038 -0.1026 -1.8808  3.4164
15043TIP3    H266545   6.639   2.867  11.039 -0.0904 -1.5579 -2.4253
15044TIP3   OH266546   5.546   0.007  16.310 -0.1889  0.4458  0.2216
15044TIP3    H166547   5.612   0.069  16.342  3.1530 -2.7327  0.3057
15044TIP3    H266548   5.498  -0.019  16.389  1.2740 -0.0729  0.9941
15045TIP3   OH266549   1.889   1.487   4.175 -0.0953  0.1930 -0.4301
15045TIP3    H166550   1.878   1.499   4.081  0.8512  0.5356 -0.5111
15045TIP3    H266551   1.820   1.427   4.200 -1.1788  1.1122 -1.1090
15046TIP3   OH266552   4.979   5.888  11.688  0.1290 -0.1207 -0.3338
15046TIP3    H166553   5.023   5.813  11.649  0.3437  1.2722 -3.0205
15046TIP3    H266554   5.040   5.921  11.753  2.1522  0.3961 -2.3509
15047TIP3   OH266555   0.592   3.053   5.119  0.2620 -0.0036  0.2265
15047TIP3    H166556   0.607   3.063   5.025  1.2688 -0.1398  0.3695
15047TIP3    H266557   0.497   3.045   5.126  0.1732 -0.0440 -0.7873
15048TIP3   OH266558   3.347   6.745   4.356 -0.1114 -0.0542 -0.0271
15048TIP3    H166559   3.344   6.780   4.445  2.4832  0.2706  0.0110
15048TIP3    H266560   3.402   6.667   4.362 -1.5431 -1.2035 -1.0315
15049TIP3   OH266561   5.309   3.089   5.978  0.3700 -0.6937 -1.1721
15049TIP3    H166562   5.328   3.017   5.918  0.1087 -1.5979 -0.1950
15049TIP3    H266563   5.229   3.062   6.024  1.3200 -0.6886  0.5704
15050TIP3   OH266564   4.088   1.286  11.901  0.1614 -0.7856  0.4408
15050TIP3    H166565   4.128   1.232  11.832  1.1631  0.1968  0.2198
15050TIP3    H266566   4.134   1.369  11.895 -1.8537  0.3953  0.2475
15051TIP3   OH266567   6.662   0.781   3.864 -0.1254 -0.1492 -0.1760
15051TIP3    H166568   6.665   0.844   3.936 -3.0378  0.7049 -0.6964
15051TIP3    H266569   6.656   0.696   3.907 -0.7249  0.2731  0.5913
15052TIP3   OH266570   0.236   2.126  15.655  0.4672 -0.3534  0.1905
15052TIP3    H166571   0.293   2.186  15.608  0.0603 -0.3827 -0.3419
15052TIP3    H266572   0.288   2.046  15.665  1.9066  0.7787  2.9177
15053TIP3   OH266573   1.915   1.551   5.996  0.5314  0.1149  0.1876
15053TIP3    H166574   1.823   1.551   5.971  0.8701 -1.0445 -1.2230
15053TIP3    H266575   1.921   1.487   6.066 -0.0701  1.8442  1.9152
15054TIP3   OH266576   1.390   2.542  15.380 -0.1830  0.0041 -0.4315
15054TIP3    H166577   1.437   2.553  15.297 -0.8142 -1.1527 -0.9609
15054TIP3    H266578   1.377   2.448  15.389  0.1995  0.0684  1.1869
15055TIP3   OH266579   5.713   5.552   2.435  0.4568  0.6038 -0.3019
15055TIP3    H166580   5.762   5.632   2.453  0.1558  0.6222  0.4566
15055TIP3    H266581   5.780   5.486   2.416  0.7072  1.0009 -0.8168
15056TIP3   OH266582   2.422   4.923  13.179  1.1820 -0.4084 -0.0537
15056TIP3    H166583   2.389   4.844  13.222 -0.1680  0.2792  0.2094
15056TIP3    H266584   2.435   4.985  13.251 -1.4241  0.8696 -0.5821
15057TIP3   OH266585   6.731   2.535   2.354 -0.2966  0.9979 -0.7036
15057TIP3    H166586   6.652   2.588   2.365  0.2235  1.4803  0.8979
15057TIP3    H266587   6.789   2.590   2.302 -0.3955  1.3089 -0.4872
15058TIP3   OH266588   5.718   0.268  14.601 -0.9009 -0.3203  0.0820
15058TIP3    H166589   5.762   0.184  14.601 -0.2712 -0.0070  0.7144
15058TIP3    H266590   5.625   0.247  14.613 -1.1092 -1.0470 -2.2732
15059TIP3   OH266591   6.576   5.488  15.757  0.3332 -0.5470 -0.4172
15059TIP3    H166592   6.634   5.474  15.832  0.2680 -0.4855 -0.3550
15059TIP3    H266593   6.494   5.447  15.783 -0.5086  1.5834  0.5789
15060TIP3   OH266594   5.664   3.558  13.775  0.1790 -0.3738 -0.3465
15060TIP3    H166595   5.666   3.651  13.753 -0.9490 -0.6280 -1.6422
15060TIP3    H266596   5.756   3.531  13.778  0.5542  0.9059  0.7181
15061TIP3   OH266597   0.187   1.153  12.148 -0.0654  0.2562  0.0813
15061TIP3    H166598   0.260   1.160  12.086 -1.0094 -0.0727 -1.1196
15061TIP3    H266599   0.181   1.059  12.167  1.0118  0.4767  1.7091
15062TIP3   OH266600   5.403   6.265   2.311  0.5676  0.4296  0.4405
15062TIP3    H166601   5.440   6.176   2.309 -0.5286 -0.0495  0.7376
15062TIP3    H266602   5.428   6.299   2.397 -1.7788 -0.8655  1.7403
15063TIP3   OH266603   4.079   4.054  12.147  0.3082  0.1063 -0.7600
15063TIP3    H166604   4.094   4.115  12.219 -2.0115 -0.7341  0.5493
15063TIP3    H266605   4.136   3.979  12.167  1.3503  0.7979 -1.0646
15064TIP3   OH266606   6.236   3.437   5.084 -0.1724  0.5485 -0.3404
15064TIP3    H166607   6.212   3.346   5.068  0.7288  0.4844 -1.4807
15064TIP3    H266608   6.216   3.482   5.003 -1.3024  1.5446  0.4572
15065TIP3   OH266609   4.861   3.415  12.354 -0.1593 -0.1888  0.1873
15065TIP3    H166610   4.888   3.328  12.328  2.7740  0.5677  0.3829
15065TIP3    H266611   4.921   3.474  12.309  0.4322  1.5068  2.9302
15066TIP3   OH266612   6.618   3.412   0.571 -0.1564 -0.6519  0.3699
15066TIP3    H166613   6.687   3.437   0.510 -0.6829 -1.6674 -0.6838
15066TIP3    H266614   6.537   3.419   0.521 -0.3977 -3.8014  0.1166
15067TIP3   OH266615   6.276   2.899  10.701  0.3895 -0.3587 -0.0832
15067TIP3    H166616   6.308   2.826  10.648 -1.2745 -1.2147  0.0316
15067TIP3    H266617   6.186   2.912  10.671  0.1318  0.5546  1.0501
15068TIP3   OH266618   0.246   3.575  15.654 -0.3560  0.2232  0.2415
15068TIP3    H166619   0.312   3.529  15.706 -1.4493 -1.0761  0.5145
15068TIP3    H266620   0.192   3.620  15.719 -1.0792 -0.5398  0.1815
15069TIP3   OH266621   2.839   5.412  13.571  0.2925 -0.0092  0.4889
15069TIP3    H166622   2.787   5.420  13.490  0.9233  0.1284  0.0902
15069TIP3    H266623   2.786   5.455  13.638  0.0713  0.4769  0.0079
15070TIP3   OH266624   0.486   6.039  13.268  0.0521 -0.2357 -0.2947
15070TIP3    H166625   0.410   6.071  13.219  1.5406  0.8447 -2.0190
15070TIP3    H266626   0.456   6.036  13.359 -2.1817 -0.2825 -0.9765
15071TIP3   OH266627   1.833   1.636  13.244  0.4789 -0.3308 -0.5897
15071TIP3    H166628   1.890   1.682  13.182  1.1516  1.2765  1.1226
15071TIP3    H266629   1.882   1.636  13.326 -0.0806 -3.0375 -0.1747
15072TIP3   OH266630   5.875   5.674   0.313 -0.0195 -0.5436 -0.5135
15072TIP3    H166631   5.887   5.652   0.221  2.3254 -1.8194  0.0138
15072TIP3    H266632   5.809   5.612   0.345 -1.1327  0.1603 -1.3650
15073TIP3   OH266633   4.202   2.384   5.111 -0.0145 -0.0936  0.1789
15073TIP3    H166634   4.248   2.323   5.169  0.7847  0.5586  0.2584
15073TIP3    H266635   4.241   2.469   5.130  0.3153  0.1384 -1.3485
15074TIP3   OH266636   5.372   2.079   1.764 -0.1149 -0.8087  0.2654
15074TIP3    H166637   5.367   2.037   1.678 -3.0558  1.7284 -1.0213
15074TIP3    H266638   5.419   2.161   1.747 -3.1429  1.0675  0.2723
15075TIP3   OH266639   5.772   2.793   6.540  0.1820 -0.2057 -0.2364
15075TIP3    H166640   5.735   2.811   6.454 -0.7721 -0.5831  0.0809
15075TIP3    H266641   5.860   2.762   6.523 -0.0917 -0.5192 -1.0955
15076TIP3   OH266642   1.610   0.390  14.700  0.1797  0.3950  0.1744
15076TIP3    H166643   1.542   0.431  14.754  0.1120  0.9618 -0.3293
15076TIP3    H266644   1.575   0.303  14.680 -0.3477  0.6385  0.0203
15077TIP3   OH266645   2.684   4.712   5.279 -0.1096  0.0443 -0.0296
15077TIP3    H166646   2.698   4.789   5.225 -1.6384 -1.0028 -2.0308
15077TIP3    H266647   2.756   4.653   5.256  0.4848  0.4449  0.7521
15078TIP3   OH266648   5.472   1.328  11.737  0.2585 -0.1866 -0.2098
15078TIP3    H166649   5.495   1.379  11.815 -4.3284  1.7025  0.2240
15078TIP3    H266650   5.442   1.244  11.771 -3.6342  1.3096  0.5817
15079TIP3   OH266651   2.557   5.963  12.301  0.0018  1.0286  0.8423
15079TIP3    H166652   2.650   5.978  12.316  0.4797  0.6087 -1.2963
15079TIP3    H266653   2.552   5.937  12.208 -1.8790 -1.9483  1.6244
15080TIP3   OH266654   1.329   3.099   4.772 -0.3197  0.0059  0.0980
15080TIP3    H166655   1.300   3.008   4.771 -1.7200  0.4353 -0.2225
15080TIP3    H266656   1.415   3.096   4.815 -0.9684 -1.2713  1.3805
15081TIP3   OH266657   0.087   0.952   5.076  0.2019  0.5363  0.0489
15081TIP3    H166658   0.036   0.979   5.153  0.1948 -0.5726  0.4485
15081TIP3    H266659   0.178   0.958   5.105  0.1790 -0.4347  0.3391
15082TIP3   OH266660   5.444   5.086  13.891 -0.3166 -0.0691  0.3695
15082TIP3    H166661   5.410   5.020  13.951 -2.4766  0.7195  0.0879
15082TIP3    H266662   5.486   5.036  13.821 -3.2058 -1.2910 -0.6333
15083TIP3   OH266663   1.760   0.466   3.194 -0.8125 -0.3116  0.6508
15083TIP3    H166664   1.808   0.524   3.135 -0.9049 -1.0929 -0.2200
15083TIP3    H266665   1.668   0.483   3.174 -0.8675 -2.3521 -1.3208
15084TIP3   OH266666   0.279   6.467  12.231  0.6399 -0.7819  0.1697
15084TIP3    H166667   0.275   6.382  12.187 -0.1156 -1.3239  1.2276
15084TIP3    H266668   0.272   6.446  12.324 -0.7533  0.4962  0.4023
15085TIP3   OH266669   1.579   2.327  13.067  0.4296  0.5333  0.4856
15085TIP3    H166670   1.517   2.351  13.136  0.7910 -0.3730  1.1501
15085TIP3    H266671   1.533   2.346  12.985 -1.2382 -1.2600  0.9285
15086TIP3   OH266672   4.806   3.870  16.385 -0.7131  0.0142 -0.3903
15086TIP3    H166673   4.752   3.920  16.324  0.9706  0.3693 -1.6641
15086TIP3    H266674   4.766   3.783  16.386 -1.3833  0.2957 -1.2137
15087TIP3   OH266675   6.388   5.774   0.093  0.7564 -0.2013 -0.1746
15087TIP3    H166676   6.330   5.711   0.136  1.3219  0.2247  1.2737
15087TIP3    H266677   6.423   5.827   0.165 -0.4522  2.4546 -1.4196
15088TIP3   OH266678   3.180   0.117  15.648 -0.3389 -0.1944 -0.0498
15088TIP3    H166679   3.102   0.148  15.602 -0.4223 -1.8199 -1.1010
15088TIP3    H266680   3.201   0.187  15.710 -0.8850  1.6286 -1.7782
15089TIP3   OH266681   2.411   1.315  11.898 -0.5192 -0.4579  0.0149
15089TIP3    H166682   2.467   1.267  11.837  0.8831  0.4585  0.5356
15089TIP3    H266683   2.327   1.269  11.895  0.0107 -1.3911 -1.3844
15090TIP3   OH266684   4.807   6.596  12.161 -0.9242 -0.5757  0.1171
15090TIP3    H166685   4.820   6.541  12.238 -0.6789  0.2911  0.7100
15090TIP3    H266686   4.712   6.598  12.149 -0.8985 -2.3631 -0.8575
15091TIP3   OH266687   4.693   0.369   0.625  0.8731  0.3639 -0.4223
15091TIP3    H166688   4.739   0.295   0.664  1.7253  0.4787 -1.1638
15091TIP3    H266689   4.634   0.330   0.561  0.9446  0.2967 -0.4469
15092TIP3   OH266690   1.979   6.698   0.159 -0.4407 -0.1784 -0.4632
15092TIP3    H166691   1.983   6.691   0.255 -2.3014 -0.1552 -0.3564
15092TIP3    H266692   1.939   6.616   0.130 -0.0635 -0.1063 -1.2272
15093TIP3   OH266693   2.622   2.978  12.008 -0.3076  0.2379  0.2445
15093TIP3    H166694   2.562   2.960  12.081 -1.9709 -0.7072 -1.2850
15093TIP3    H266695   2.695   2.917  12.022  0.2594  1.2555  2.0184
15094TIP3   OH266696   2.297   6.202   2.476  0.1718  0.4397  0.5731
15094TIP3    H166697   2.262   6.126   2.523 -0.0524  0.3284  0.2349
15094TIP3    H266698   2.370   6.167   2.425  0.8075  0.6782  1.3031
15095TIP3   OH266699   1.908   3.534   4.535  0.0014 -0.0096 -0.1304
15095TIP3    H166700   1.967   3.595   4.579 -1.5612  1.4656  0.0365
15095TIP3    H266701   1.964   3.461   4.508  1.6901  0.8572  0.8713
15096TIP3   OH266702   6.256   0.148  11.020  0.3910  0.3674  0.1062
15096TIP3    H166703   6.197   0.198  10.963 -1.9877 -0.9370  1.2919
15096TIP3    H266704   6.283   0.210  11.087 -2.2075  0.2932  1.3324
15097TIP3   OH266705   2.093   5.838  10.619  0.7896 -0.2250  0.3116
15097TIP3    H166706   2.038   5.881  10.685  0.2463 -0.4826  0.0263
15097TIP3    H266707   2.127   5.760  10.664  0.0687 -0.6389  0.1610
15098TIP3   OH266708   2.345   4.367   0.878 -0.1851 -0.2209  0.1425
15098TIP3    H166709   2.293   4.415   0.812 -1.4362 -0.3081  1.0324
15098TIP3    H266710   2.344   4.276   0.848 -0.8770 -0.2856  0.3292
15099TIP3   OH266711   2.160   3.538   3.868  0.3279 -0.1115 -0.1690
15099TIP3    H166712   2.100   3.589   3.814  1.0126  0.0776 -0.7590
15099TIP3    H266713   2.107   3.513   3.944 -0.4568  0.1701 -0.6047
15100TIP3   OH266714   5.189   1.183   4.840 -0.2841  0.0648 -0.1187
15100TIP3    H166715   5.164   1.126   4.913  1.2452 -0.1239  0.3072
15100TIP3    H266716   5.215   1.265   4.882  0.8250 -0.1231 -0.4034
15101TIP3   OH266717   3.780   2.573   4.715  0.4590  0.0272 -0.2082
15101TIP3    H166718   3.817   2.495   4.757 -0.9831 -0.8699 -0.5210
15101TIP3    H266719   3.699   2.590   4.763  0.9904  1.6558  0.1633
15102TIP3   OH266720   2.682   1.345  13.786 -0.5548 -0.1321  0.0517
15102TIP3    H166721   2.651   1.278  13.846 -0.4387 -0.3862 -0.1733
15102TIP3    H266722   2.629   1.422  13.807 -2.5455 -0.9956 -1.4567
15103TIP3   OH266723   4.077   6.547   1.736 -0.0973 -0.2357 -0.3402
15103TIP3    H166724   4.057   6.463   1.695 -0.1428  0.6492 -2.2298
15103TIP3    H266725   4.135   6.591   1.674 -3.3648  2.8484 -1.5697
15104TIP3   OH266726   5.531   0.680  13.428 -0.5155 -0.6365  0.0337
15104TIP3    H166727   5.505   0.614  13.364  1.5794 -2.9258  1.3800
15104TIP3    H266728   5.493   0.649  13.510 -0.8637  0.7816  0.4422
15105TIP3   OH266729   3.967   4.720  12.674  0.0923  0.1852 -0.3232
15105TIP3    H166730   4.000   4.773  12.602 -1.0218 -0.7281 -1.5556
15105TIP3    H266731   4.046   4.688  12.718  0.7790  1.6376 -0.4411
15106TIP3   OH266732   6.796   4.352   2.353  0.1745  0.0438  0.3620
15106TIP3    H166733   6.891   4.359   2.355  0.1207  0.8050  0.4575
15106TIP3    H266734   6.771   4.375   2.264 -0.0248  1.3868  0.7488
15107TIP3   OH266735   2.631   6.271   5.312 -0.3388 -0.1093  0.3269
15107TIP3    H166736   2.698   6.207   5.291 -0.0713  0.3407 -0.2300
15107TIP3    H266737   2.595   6.242   5.395  0.0646 -0.7438  0.2863
15108TIP3   OH266738   0.279   4.158  11.798 -0.1988 -0.2224  0.9844
15108TIP3    H166739   0.249   4.174  11.887  0.8966  0.6527  1.2253
15108TIP3    H266740   0.200   4.136  11.749 -1.1842  1.6724  1.6355
15109TIP3   OH266741   4.124   0.363  14.966 -0.1607  0.6316  0.8102
15109TIP3    H166742   4.052   0.308  14.933  0.1875  0.3010  0.5995
15109TIP3    H266743   4.178   0.380  14.889  0.7836 -0.3405  1.2322
15110TIP3   OH266744   1.271   0.445  12.579 -0.7591 -0.3567 -0.4249
15110TIP3    H166745   1.219   0.503  12.525  0.0441  0.2274 -0.5917
15110TIP3    H266746   1.308   0.381  12.518  1.5834  1.3439 -0.9191
15111TIP3   OH266747   6.083   0.119   1.737 -0.3808 -0.5790 -0.0990
15111TIP3    H166748   6.175   0.145   1.740 -0.5293 -0.1231  1.2853
15111TIP3    H266749   6.036   0.199   1.714 -0.4237 -0.9251 -1.3290
15112TIP3   OH266750   3.552   1.350   2.260 -0.1552 -0.6011 -0.4494
15112TIP3    H166751   3.604   1.318   2.334  1.5688  1.0696 -0.8702
15112TIP3    H266752   3.582   1.298   2.185  0.3826 -0.1416 -0.5544
15113TIP3   OH266753   5.316   3.380   1.192  0.7369 -0.5270  0.2295
15113TIP3    H166754   5.282   3.462   1.156  0.6119 -0.0103  1.4647
15113TIP3    H266755   5.368   3.342   1.121  0.0549  0.1676 -0.6599
15114TIP3   OH266756   6.589   4.735   4.137 -0.1758  0.0010 -0.4319
15114TIP3    H166757   6.674   4.722   4.179  0.6772  1.6061 -1.5677
15114TIP3    H266758   6.604   4.712   4.045 -1.2858 -0.8053 -0.4231
15115TIP3   OH266759   2.243   2.883   4.371 -0.2185 -0.2284  0.1137
15115TIP3    H166760   2.290   2.853   4.293 -2.1651  0.1971 -1.2972
15115TIP3    H266761   2.244   2.808   4.431 -0.7948 -1.4265 -1.3280
15116TIP3   OH266762   5.031   4.881  13.434  0.2648  0.5969 -0.8991
15116TIP3    H166763   5.118   4.865  13.470 -0.6257  1.7189  2.0052
15116TIP3    H266764   5.048   4.933  13.354  2.3369 -2.2139 -2.4737
15117TIP3   OH266765   5.745   5.227  15.418  0.5647 -0.4939  0.7146
15117TIP3    H166766   5.694   5.218  15.499 -1.1217  0.3343 -0.1897
15117TIP3    H266767   5.691   5.284  15.363  1.7417 -0.9165 -0.9347
15118TIP3   OH266768   4.293   0.191  16.538  0.1187 -0.3426  0.2549
15118TIP3    H166769   4.285   0.280  16.573 -2.9242 -0.7425  0.7977
15118TIP3    H266770   4.246   0.136  16.600  0.3430 -2.0817 -1.0409
15119TIP3   OH266771   4.588   2.695  16.906  0.4218  0.2083 -0.0374
15119TIP3    H166772   4.574   2.741  16.823 -2.0515  0.1145  0.2611
15119TIP3    H266773   4.556   2.606  16.890  2.1226 -0.5050  0.3550
15120TIP3   OH266774   2.985   2.562   5.007 -0.1662  0.1934  0.0413
15120TIP3    H166775   2.921   2.500   5.043 -0.1925 -0.3764 -0.9445
15120TIP3    H266776   3.035   2.592   5.083 -0.8852 -0.1841  0.6809
15121TIP3   OH266777   6.149   1.164  12.385  0.0710 -0.3807 -0.4053
15121TIP3    H166778   6.173   1.233  12.322 -1.9353  0.0502 -0.7546
15121TIP3    H266779   6.148   1.209  12.470 -1.1857  0.0453 -0.6261
15122TIP3   OH266780   2.233   1.405   0.653  0.0773  0.8896 -0.6096
15122TIP3    H166781   2.171   1.468   0.690 -0.7301 -2.1516  4.1044
15122TIP3    H266782   2.181   1.327   0.634  1.7177 -0.0026 -1.7545
15123TIP3   OH266783   5.235   5.253   1.168 -0.3123  0.6021  0.2672
15123TIP3    H166784   5.295   5.179   1.157  0.9508  1.2621  2.1801
15123TIP3    H266785   5.148   5.215   1.164  0.3161 -0.9928  1.0654
15124TIP3   OH266786   1.296   3.081   3.322  0.3134  0.1035 -0.4774
15124TIP3    H166787   1.210   3.078   3.365  0.6309 -0.0379  0.1541
15124TIP3    H266788   1.302   2.997   3.276  0.4115 -0.1923  0.0667
15125TIP3   OH266789   3.220   6.661   0.275  0.2020  0.1588  0.1560
15125TIP3    H166790   3.245   6.705   0.356 -0.7598  1.2028 -0.1108
15125TIP3    H266791   3.158   6.719   0.233 -1.7803 -1.8085  0.1913
15126TIP3   OH266792   3.063   5.008   2.776  0.1823 -0.4601 -0.3077
15126TIP3    H166793   3.062   5.072   2.847 -0.7662  0.2887 -0.9616
15126TIP3    H266794   2.977   4.966   2.780  0.2672 -0.6875 -0.7664
15127TIP3   OH266795   0.848   3.940   4.091 -0.1421  0.3409 -0.1681
15127TIP3    H166796   0.851   3.930   4.186  1.2506 -1.1529 -0.3176
15127TIP3    H266797   0.755   3.947   4.071 -0.4352  1.4711  1.3472
15128TIP3   OH266798   6.727   4.209  15.542 -0.0040  0.1699 -0.2702
15128TIP3    H166799   6.778   4.289  15.552 -0.0094  0.2199 -0.6352
15128TIP3    H266800   6.639   4.232  15.572  0.6554 -0.4871  2.4305
15129TIP3   OH266801   0.590   2.075  16.169 -0.2068  0.1367 -0.9519
15129TIP3    H166802   0.653   2.018  16.128  0.2441  0.6231 -0.9480
15129TIP3    H266803   0.636   2.158  16.181 -0.7792  0.4395 -0.7703
15130TIP3   OH266804   0.854   4.555   4.799 -0.4984 -0.1020 -0.4951
15130TIP3    H166805   0.900   4.530   4.719 -1.0254  0.5936 -1.0208
15130TIP3    H266806   0.784   4.490   4.807 -1.0442  0.3845 -1.1408
15131TIP3   OH266807   2.508   4.545   1.530  0.2810 -0.0920  0.3620
15131TIP3    H166808   2.485   4.626   1.576  0.7956 -1.1488  2.6258
15131TIP3    H266809   2.440   4.537   1.463  0.7914  2.6897 -0.6526
15132TIP3   OH266810   0.699   6.464  15.271 -0.1365 -0.6008 -0.5200
15132TIP3    H166811   0.611   6.455  15.234  0.7347 -1.5042 -2.4885
15132TIP3    H266812   0.743   6.382  15.249  1.5436  0.2719 -0.5598
15133TIP3   OH266813   5.800   0.603  12.523  0.3633 -0.0309 -0.0441
15133TIP3    H166814   5.788   0.691  12.486 -0.3978 -0.0974  0.0230
15133TIP3    H266815   5.875   0.611  12.582  1.4129  0.1596 -1.3544
15134TIP3   OH266816   4.357   1.663  13.875  0.0734  0.6167 -0.0685
15134TIP3    H166817   4.405   1.614  13.942  1.0084  0.8452 -0.5554
15134TIP3    H266818   4.399   1.749  13.874  0.1591  0.5720 -1.0422
15135TIP3   OH266819   2.735   6.285   2.053  0.4778  0.0081 -0.3282
15135TIP3    H166820   2.786   6.344   1.998  0.4041  0.0991 -0.2985
15135TIP3    H266821   2.765   6.303   2.142  1.1629 -0.6959 -0.4132
15136TIP3   OH266822   5.890   5.897  15.581 -0.2844 -0.6891  0.4740
15136TIP3    H166823   5.930   5.915  15.666  1.3002 -0.8195 -0.2192
15136TIP3    H266824   5.840   5.816  15.595  0.8096 -1.2961  1.0279
15137TIP3   OH266825   5.858   2.818  16.481 -0.0869 -0.2026  0.0108
15137TIP3    H166826   5.904   2.899  16.459  0.2844 -0.2275  0.6712
15137TIP3    H266827   5.870   2.808  16.576 -2.0700  0.1729  0.3499
15138TIP3   OH266828   5.589   0.168   5.387  0.0725 -0.1403 -0.0984
15138TIP3    H166829   5.570   0.212   5.304  1.1376  1.0711  0.2495
15138TIP3    H266830   5.503   0.145   5.422 -0.3746 -2.6238 -2.4683
15139TIP3   OH266831   2.289   2.855   2.621 -0.0592  0.4417  0.6877
15139TIP3    H166832   2.300   2.851   2.715 -1.0488 -0.2752  0.7935
15139TIP3    H266833   2.264   2.766   2.596 -2.4235  1.1693  0.1423
15140TIP3   OH266834   0.743   2.436   0.206  0.0521 -0.6379 -0.7218
15140TIP3    H166835   0.735   2.489   0.285 -0.1408  0.0066 -1.1633
15140TIP3    H266836   0.800   2.364   0.231  1.3975  0.4833 -0.4569
15141TIP3   OH266837   0.310   3.221  12.349 -0.0419 -0.1771  0.1021
15141TIP3    H166838   0.313   3.269  12.432  0.7573 -2.8878  1.7908
15141TIP3    H266839   0.395   3.236  12.309 -0.4346  1.1611 -0.2567
15142TIP3   OH266840   5.928   4.634   2.254  0.1069  0.1117 -0.9667
15142TIP3    H166841   6.015   4.614   2.218  0.1632 -2.4298  0.3615
15142TIP3    H266842   5.905   4.557   2.306 -2.4372  1.2353 -0.2639
15143TIP3   OH266843   0.623   1.323   4.870 -0.0766 -0.3694 -0.1630
15143TIP3    H166844   0.552   1.285   4.921 -0.6255 -1.7748 -1.8685
15143TIP3    H266845   0.597   1.310   4.778  1.6493  0.5122 -0.8287
15144TIP3   OH266846   5.606   2.144   2.416 -0.1513 -0.1898  0.3135
15144TIP3    H166847   5.538   2.117   2.478 -0.4087 -1.9238 -0.6623
15144TIP3    H266848   5.688   2.115   2.457 -0.3644 -1.8702 -0.3517
15145TIP3   OH266849   2.676   6.000   1.265 -0.1404  0.1202  0.4983
15145TIP3    H166850   2.736   6.018   1.192 -0.1158  0.4190  0.5909
15145TIP3    H266851   2.591   6.030   1.233 -0.2428 -0.2919  0.3719
15146TIP3   OH266852   4.485   5.766   2.465 -0.4038  0.2002 -0.0337
15146TIP3    H166853   4.443   5.851   2.479  0.4614  0.5167  0.7793
15146TIP3    H266854   4.578   5.783   2.480 -0.0734 -0.6554 -0.9991
15147TIP3   OH266855   4.335   2.107  12.724  0.6560  0.7228  0.0722
15147TIP3    H166856   4.403   2.131  12.661  0.7432 -0.4125 -0.2927
15147TIP3    H266857   4.370   2.032  12.771 -0.3486  0.0896 -0.1529
15148TIP3   OH266858   4.735   2.551  13.859 -0.3343 -0.1807  0.0182
15148TIP3    H166859   4.782   2.609  13.918 -0.1514  0.3209 -0.6052
15148TIP3    H266860   4.673   2.504  13.915  1.0543 -1.0246  0.8869
15149TIP3   OH266861   1.929   4.272   0.207 -0.0399  0.4031 -0.4556
15149TIP3    H166862   1.862   4.237   0.267  0.2343 -1.2411 -1.0816
15149TIP3    H266863   1.952   4.199   0.150  2.4388  0.8658 -0.1621
15150TIP3   OH266864   3.467   4.612  10.846  0.3183  0.1077 -0.4346
15150TIP3    H166865   3.559   4.628  10.824  0.2573 -0.4513 -1.1191
15150TIP3    H266866   3.417   4.655  10.777  0.0242  1.0929  0.3594
15151TIP3   OH266867   1.215   4.386   4.671  0.0474 -0.0935 -0.0687
15151TIP3    H166868   1.203   4.292   4.658  0.2399  0.1256 -2.2751
15151TIP3    H266869   1.297   4.405   4.625 -1.0756  1.4716 -1.5203
15152TIP3   OH266870   1.887   0.547  15.679  0.1473 -0.7064 -0.0147
15152TIP3    H166871   1.979   0.571  15.681 -0.5123  2.0394  1.8083
15152TIP3    H266872   1.878   0.481  15.747  0.3793  0.9043  1.6494
15153TIP3   OH266873   2.200   4.296  14.670  0.4103  0.3998 -0.2139
15153TIP3    H166874   2.262   4.354  14.625  0.6322  1.5847  1.5246
15153TIP3    H266875   2.114   4.335  14.654  0.5110  0.9517  0.5336
15154TIP3   OH266876   4.495   0.124  15.661 -0.0376 -0.0248 -0.3295
15154TIP3    H166877   4.569   0.077  15.623 -1.9480 -2.2512 -1.5575
15154TIP3    H266878   4.510   0.216  15.636  2.7205 -0.2280  0.2892
15155TIP3   OH266879   5.102   1.167  14.466 -0.0849 -0.2591  0.3171
15155TIP3    H166880   5.131   1.194  14.553 -0.8560 -1.6693  1.0618
15155TIP3    H266881   5.176   1.119  14.429  0.5417  1.0438 -0.1684
15156TIP3   OH266882   5.493   2.761  10.671  0.3428 -0.0197  0.4319
15156TIP3    H166883   5.539   2.683  10.640  2.2690  1.4236 -0.5823
15156TIP3    H266884   5.529   2.777  10.758 -0.6430 -0.6582  0.9841
15157TIP3   OH266885   1.450   2.946  15.033 -0.7548  0.4386 -0.3454
15157TIP3    H166886   1.535   2.945  14.989  0.1752 -0.7251  1.3617
15157TIP3    H266887   1.408   2.865  15.006  0.7640 -1.4427  2.4758
15158TIP3   OH266888   2.244   6.686  13.337 -0.1794  0.0739 -0.0684
15158TIP3    H166889   2.189   6.765  13.339 -2.1912 -1.1646 -1.7511
15158TIP3    H266890   2.237   6.654  13.247 -0.0564 -2.3936  0.7049
15159TIP3   OH266891   2.605   4.868   3.364 -0.3674  0.0072 -0.2396
15159TIP3    H166892   2.551   4.933   3.320  0.7464  1.2757  0.1962
15159TIP3    H266893   2.669   4.840   3.298  0.2315  0.6431  0.0619
15160TIP3   OH266894   5.009   3.787  15.553  0.5606  0.0481  0.3380
15160TIP3    H166895   4.986   3.866  15.504  0.8426  0.3974  0.7729
15160TIP3    H266896   4.999   3.716  15.489  2.1353  0.6231 -0.6147
15161TIP3   OH266897   2.642   4.900  13.437 -0.4684 -0.3285 -0.3310
15161TIP3    H166898   2.683   4.849  13.507  2.5357  1.1600 -0.8594
15161TIP3    H266899   2.698   4.885  13.360 -2.4649 -0.2443 -1.8994
15162TIP3   OH266900   1.492   2.698  14.504 -0.1347  0.1497 -0.0271
15162TIP3    H166901   1.403   2.689  14.471 -0.2176  0.4643  0.1039
15162TIP3    H266902   1.490   2.778  14.557 -0.1787 -0.6844  1.2832
15163TIP3   OH266903   1.667   2.803  16.491  0.3639 -0.4486 -0.3200
15163TIP3    H166904   1.681   2.861  16.416  0.7626 -0.1536 -0.0223
15163TIP3    H266905   1.755   2.780  16.521  0.3308 -3.6267 -2.2128
15164TIP3   OH266906   0.820   6.608  14.984  0.2018  0.5582 -0.5643
15164TIP3    H166907   0.730   6.585  15.007 -0.8364  2.0211 -2.7905
15164TIP3    H266908   0.844   6.547  14.915  0.6218  0.6808 -0.5296
15165TIP3   OH266909   3.001   6.294   0.837  0.4194  0.4973  0.5128
15165TIP3    H166910   3.044   6.279   0.753  1.5476  1.5212  0.8663
15165TIP3    H266911   2.915   6.252   0.828  1.0892 -0.7171 -0.5910
15166TIP3   OH266912   1.396   2.498   1.972  0.7311  0.4952  0.1480
15166TIP3    H166913   1.488   2.477   1.988  0.5405 -0.1853  0.4011
15166TIP3    H266914   1.368   2.434   1.906 -0.3246 -1.2463  2.1874
15167TIP3   OH266915   0.326   3.304  13.343  0.1838  0.2121 -0.2303
15167TIP3    H166916   0.275   3.280  13.266  1.0166 -1.6136 -0.2594
15167TIP3    H266917   0.393   3.236  13.350  0.0275  0.2279  2.2134
15168TIP3   OH266918   2.397   2.494  11.985 -0.2368  0.2354  0.0340
15168TIP3    H166919   2.398   2.483  12.080  0.0705 -0.7470 -0.0655
15168TIP3    H266920   2.324   2.553  11.968 -1.2624 -0.7807  0.7617
15169TIP3   OH266921   3.416   5.018  14.808  0.2981 -0.4737  0.0985
15169TIP3    H166922   3.435   4.948  14.745 -2.9325 -1.5099  0.1219
15169TIP3    H266923   3.390   5.092  14.754  2.2816  0.3176  0.1376
15170TIP3   OH266924   1.135   1.438   2.287  0.0189 -0.5584  0.0782
15170TIP3    H166925   1.182   1.387   2.221 -0.8061 -0.2048 -0.8067
15170TIP3    H266926   1.064   1.380   2.315  0.6002 -0.8661  0.9830
15171TIP3   OH266927   5.952   5.484  13.571 -0.2359 -0.0720 -0.4936
15171TIP3    H166928   5.893   5.559  13.562 -0.0041 -0.0505 -2.1427
15171TIP3    H266929   6.016   5.494  13.500  1.2590 -0.5568  0.7204
15172TIP3   OH266930   4.641   6.533  14.368  0.0942 -0.1639  0.3136
15172TIP3    H166931   4.560   6.543  14.418  0.6887 -0.3018  1.3408
15172TIP3    H266932   4.650   6.615  14.320 -1.0534 -0.4533 -0.4380
15173TIP3   OH266933   5.320   1.800  14.577 -0.0178 -0.1636 -0.0921
15173TIP3    H166934   5.340   1.728  14.517  0.8666 -1.4648  1.6520
15173TIP3    H266935   5.388   1.794  14.644 -2.0903 -0.0879  2.1418
15174TIP3   OH266936   1.200   4.298   3.945  0.6046  0.3107 -0.2077
15174TIP3    H166937   1.110   4.263   3.940  0.6804  0.2926 -1.6230
15174TIP3    H266938   1.206   4.334   4.034  0.4532 -3.0849  1.3530
15175TIP3   OH266939   0.844   0.506   5.989  0.0739 -0.1230  0.3535
15175TIP3    H166940   0.904   0.501   6.064 -1.4685 -1.4422  1.5721
15175TIP3    H266941   0.845   0.598   5.963  2.7619 -0.1305  0.1734
15176TIP3   OH266942   2.187   1.517  15.290 -0.2788  0.0672 -0.2031
15176TIP3    H166943   2.253   1.483  15.350  1.7212  0.1631 -2.2029
15176TIP3    H266944   2.212   1.609  15.278 -0.0445 -0.1817 -1.8445
15177TIP3   OH266945   3.385   1.930   4.626 -0.2623  0.5710 -0.4055
15177TIP3    H166946   3.334   1.889   4.555  0.4637 -1.3653  0.1158
15177TIP3    H266947   3.321   1.942   4.696 -0.1288 -1.6201  0.1593
15178TIP3   OH266948   5.413   2.453   5.553  0.0096 -0.0195  0.5833
15178TIP3    H166949   5.395   2.401   5.631 -0.6737 -0.8272 -0.0973
15178TIP3    H266950   5.433   2.541   5.587 -0.5669 -0.2805  1.6425
15179TIP3   OH266951   4.719   4.582  16.315  0.2562 -0.6133 -0.2469
15179TIP3    H166952   4.654   4.516  16.338  0.5590 -0.2330  2.0154
15179TIP3    H266953   4.670   4.665  16.317  0.6055 -0.4148  0.6393
15180TIP3   OH266954   5.288   4.364   2.742  0.5514  0.0334 -0.0171
15180TIP3    H166955   5.247   4.364   2.829 -0.7462 -2.8662 -0.5314
15180TIP3    H266956   5.352   4.435   2.747  0.8418 -0.2847  3.4514
15181TIP3   OH266957   1.376   3.461  14.501 -0.9344  0.1950  0.1316
15181TIP3    H166958   1.426   3.507  14.434 -0.2867 -1.2923 -0.4599
15181TIP3    H266959   1.436   3.455  14.575 -0.6073 -0.6193 -0.1839
15182TIP3   OH266960   4.444   6.309  12.304 -0.2375 -0.1610  0.3407
15182TIP3    H166961   4.447   6.362  12.225 -1.6058  2.3861  1.9060
15182TIP3    H266962   4.525   6.331  12.351 -1.1239  1.1252  1.3112
15183TIP3   OH266963   1.706   1.085   5.605 -0.7651  0.5936 -0.4355
15183TIP3    H166964   1.754   1.012   5.565  1.1376  0.4582  1.8886
15183TIP3    H266965   1.631   1.043   5.649 -1.8509  0.5471 -2.2502
15184TIP3   OH266966   1.133   3.625   4.836 -0.4582  0.4226 -0.5361
15184TIP3    H166967   1.140   3.539   4.794 -0.0434 -0.3220  0.9650
15184TIP3    H266968   1.221   3.643   4.869 -0.8979  0.6510  0.5619
15185TIP3   OH266969   1.502   2.528   0.546 -0.2445 -0.1145  0.0396
15185TIP3    H166970   1.516   2.440   0.580 -0.1664 -0.2281 -0.2890
15185TIP3    H266971   1.409   2.530   0.522 -0.3680  0.0550  0.5098
15186TIP3   OH266972   1.885   3.981  13.973  0.3426  0.2373  0.0944
15186TIP3    H166973   1.907   3.899  14.019 -0.1507 -0.7441 -1.3556
15186TIP3    H266974   1.880   4.046  14.043  0.8133 -0.9528  1.2929
15187TIP3   OH266975   4.468   1.369  15.155 -0.5488 -0.0580 -0.2164
15187TIP3    H166976   4.521   1.442  15.122  1.6779 -1.4792  0.0492
15187TIP3    H266977   4.429   1.330  15.077  0.1370  0.0132 -0.5977
15188TIP3   OH266978   4.760   0.956  12.317 -0.5878 -0.5165 -0.4272
15188TIP3    H166979   4.817   0.998  12.252 -0.3544 -1.4900 -0.8733
15188TIP3    H266980   4.763   1.014  12.393  0.9662 -0.5192 -0.4592
15189TIP3   OH266981   1.148   0.991   6.589 -0.4182 -0.0948  0.4232
15189TIP3    H166982   1.196   1.071   6.609  0.5774 -1.1573  2.6049
15189TIP3    H266983   1.216   0.924   6.578 -1.2411 -0.7447 -1.0570
15190TIP3   OH266984   0.037   0.886  15.920 -0.2578  0.3634 -0.6498
15190TIP3    H166985   0.005   0.824  15.985 -0.5172  0.9526 -0.2064
15190TIP3    H266986  -0.004   0.858  15.838 -1.5227  0.7964 -0.1914
15191TIP3   OH266987   3.677   1.740  13.999 -0.0902 -0.1095 -0.1226
15191TIP3    H166988   3.677   1.817  13.943  0.2065  1.5613  2.0284
15191TIP3    H266989   3.584   1.720  14.013 -0.1961  0.6188  0.2564
15192TIP3   OH266990   5.601   3.229   2.649  0.3922  0.0054 -0.0220
15192TIP3    H166991   5.537   3.170   2.609 -0.0537  0.8251 -0.5598
15192TIP3    H266992   5.632   3.183   2.727 -0.8124 -0.4343  0.2127
15193TIP3   OH266993   3.438   3.784   5.020  0.1675  0.0175  0.0463
15193TIP3    H166994   3.385   3.855   5.056  1.4846  0.4992  1.1334
15193TIP3    H266995   3.375   3.715   4.998 -0.9980  1.0045  0.2237
15194TIP3   OH266996   0.218   5.919  15.611 -0.3652  0.1437 -0.4239
15194TIP3    H166997   0.123   5.910  15.610 -0.6199  2.3492 -1.2100
15194TIP3    H266998   0.243   5.914  15.519 -0.2088  3.1614 -0.6451
15195TIP3   OH266999   2.477   5.379  12.045  0.4365 -0.0990 -0.1578
15195TIP3    H167000   2.398   5.430  12.055  0.3390 -0.2188 -0.3059
15195TIP3    H267001   2.517   5.378  12.132 -1.6384 -3.1660  0.9556
15196TIP3   OH267002   5.549   0.546   1.914  0.2782 -0.1836  0.2678
15196TIP3    H167003   5.586   0.523   1.829 -0.7186 -2.2411  0.3329
15196TIP3    H267004   5.503   0.467   1.942 -0.9679  1.0575  1.8864
15197TIP3   OH267005   2.439   3.771   0.490  0.2860 -0.0325  0.3487
15197TIP3    H167006   2.410   3.779   0.581 -3.0036 -1.2882 -0.4385
15197TIP3    H267007   2.481   3.686   0.485 -0.7220 -0.5504  0.4600
15198TIP3   OH267008   1.791   2.957  14.449 -0.2215  0.0859  0.3698
15198TIP3    H167009   1.822   3.015  14.380  2.1091  0.7632  1.8464
15198TIP3    H267010   1.742   3.014  14.509  1.4268  0.4599  1.4298
15199TIP3   OH267011   1.077   4.172   0.042 -0.6265  0.1466 -0.1198
15199TIP3    H167012   1.158   4.131   0.071 -0.7871 -1.4629 -1.7820
15199TIP3    H267013   1.012   4.101   0.044 -1.7082  1.1154  0.0465
15200TIP3   OH267014   0.665   2.040  12.210 -0.2207 -0.1897 -0.5308
15200TIP3    H167015   0.671   1.961  12.264  0.0964 -0.6885 -1.2739
15200TIP3    H267016   0.620   2.104  12.265 -0.1168 -0.7602  0.2297
15201TIP3   OH267017   0.332   0.599   4.329 -0.1560  0.1741  0.3883
15201TIP3    H167018   0.251   0.548   4.332  0.4877 -0.9099 -0.1623
15201TIP3    H267019   0.339   0.628   4.238  0.7049 -0.8058  0.1278
15202TIP3   OH267020   5.378   0.784  12.456 -0.2585  0.4257 -0.2328
15202TIP3    H167021   5.381   0.856  12.393 -0.1090 -0.5251 -1.3458
15202TIP3    H267022   5.287   0.782  12.486 -0.5366  0.3442 -1.0767
15203TIP3   OH267023   4.439   3.250   3.546 -0.7526 -0.6280  0.1289
15203TIP3    H167024   4.361   3.206   3.511 -1.0615 -0.9583  1.1880
15203TIP3    H267025   4.513   3.204   3.506 -1.0232  1.2148 -2.7885
15204TIP3   OH267026   6.381   2.677  16.207 -0.1341  0.5420  0.0256
15204TIP3    H167027   6.439   2.621  16.155 -0.3132  1.3956 -1.1377
15204TIP3    H267028   6.440   2.729  16.262  0.1586  0.6890 -0.4213
15205TIP3   OH267029   2.360   2.021   0.060 -0.7945 -0.5266  0.6256
15205TIP3    H167030   2.319   1.997   0.144 -1.1056  0.2232  0.6932
15205TIP3    H267031   2.445   1.977   0.062 -0.5705 -0.0800  1.5751
15206TIP3   OH267032   6.588   5.932  13.905 -0.1600 -0.5019 -0.2279
15206TIP3    H167033   6.663   5.926  13.964 -1.4124 -1.8030  1.3419
15206TIP3    H267034   6.586   6.024  13.878  1.8217 -0.3912 -0.1032
15207TIP3   OH267035   3.166   6.406  15.627 -0.0683 -0.4924  0.0370
15207TIP3    H167036   3.245   6.401  15.679  1.4778 -1.6124 -2.2711
15207TIP3    H267037   3.174   6.489  15.579  0.2309 -1.0783 -0.9472
15208TIP3   OH267038   6.133   6.340   3.629 -0.7030  0.1000 -0.4079
15208TIP3    H167039   6.039   6.336   3.612 -0.6338 -0.2176 -0.7415
15208TIP3    H267040   6.147   6.425   3.670 -0.7823  1.2077 -2.5510
15209TIP3   OH267041   5.018   4.122  15.224  0.2469 -0.2615 -0.3924
15209TIP3    H167042   5.014   4.084  15.136 -0.2351 -1.4789  0.1379
15209TIP3    H267043   5.108   4.108  15.252  0.3147 -0.1665 -0.5567
15210TIP3   OH267044   5.588   6.570   2.704 -0.4380  0.2763  0.1509
15210TIP3    H167045   5.596   6.486   2.749  0.9554 -0.2515 -1.0268
15210TIP3    H267046   5.522   6.618   2.755  0.4067 -0.6334  2.2094
15211TIP3   OH267047   6.724   3.553   1.230 -0.1113 -0.5239  0.4693
15211TIP3    H167048   6.777   3.620   1.186 -1.7591  0.9169  0.5772
15211TIP3    H267049   6.770   3.537   1.312 -0.9341  2.4122  1.6217
15212TIP3   OH267050   1.101   3.662   0.580  0.4364  0.1664  0.2901
15212TIP3    H167051   1.150   3.615   0.512 -1.2289 -0.6884 -0.3724
15212TIP3    H267052   1.109   3.754   0.555  1.6935  0.0537  0.2109
15213TIP3   OH267053   0.054   3.500  12.296 -0.0730 -0.6777  0.3866
15213TIP3    H167054   0.066   3.484  12.390  0.1498  0.1892  0.5143
15213TIP3    H267055  -0.024   3.450  12.273 -1.6568  1.0675  1.5906
15214TIP3   OH267056   0.931   1.639  13.264 -0.3337  0.3932 -0.1972
15214TIP3    H167057   0.979   1.670  13.341  0.5026  2.3812 -1.4163
15214TIP3    H267058   0.989   1.575  13.224 -0.1769  0.3297  0.1336
15215TIP3   OH267059   3.560   0.809   5.723 -0.2742  0.2121 -0.3619
15215TIP3    H167060   3.510   0.729   5.712 -0.9802  0.7276 -0.9344
15215TIP3    H267061   3.638   0.782   5.773 -0.3824 -0.8641 -0.7596
15216TIP3   OH267062   1.035   6.746  10.493 -0.0897  0.0714 -0.1860
15216TIP3    H167063   1.024   6.841  10.501 -0.7397  0.2047 -2.1386
15216TIP3    H267064   1.047   6.731  10.400  3.2029 -1.4993  0.3386
15217TIP3   OH267065   1.102   5.939  14.521 -0.5409  0.0218 -0.1529
15217TIP3    H167066   1.044   5.977  14.588  0.9771 -0.1560  1.3253
15217TIP3    H267067   1.113   5.848  14.548 -0.1739 -0.1418 -0.8460
15218TIP3   OH267068   4.427   5.667  10.627  0.9447 -0.4571  0.0887
15218TIP3    H167069   4.498   5.604  10.639  1.3358 -0.0368  0.0310
15218TIP3    H267070   4.459   5.725  10.558  0.8743  0.2015  0.5968
15219TIP3   OH267071   2.426   2.309  13.818 -0.3405 -0.0389  0.5748
15219TIP3    H167072   2.445   2.396  13.851  0.9563 -0.1876  0.2945
15219TIP3    H267073   2.500   2.255  13.848  0.0337 -0.5329 -1.1131
15220TIP3   OH267074   2.261   1.545  11.939 -0.3787 -0.3486  0.4072
15220TIP3    H167075   2.281   1.550  12.033  0.7716  0.3967  0.1523
15220TIP3    H267076   2.316   1.473  11.908 -0.3337 -0.2257  0.2061
15221TIP3   OH267077   4.959   2.637  11.901  0.1651  0.3489 -0.1675
15221TIP3    H167078   4.879   2.666  11.859 -0.0588 -0.0672 -0.0371
15221TIP3    H267079   4.933   2.559  11.951  0.5051  0.6037  0.4185
15222TIP3   OH267080   1.863   2.772   4.099 -0.1297  0.6431  0.7155
15222TIP3    H167081   1.904   2.856   4.078  1.1669  0.0598  0.8565
15222TIP3    H267082   1.936   2.711   4.111 -1.0287 -0.3861  1.1606
15223TIP3   OH267083   3.499   0.542   3.740  0.1477 -0.1396 -0.4466
15223TIP3    H167084   3.483   0.454   3.774 -3.1051 -0.5619 -2.5430
15223TIP3    H267085   3.423   0.593   3.769  1.7221  1.9060  0.3121
15224TIP3   OH267086   5.381   1.672  15.880  0.3510 -0.3341  0.1723
15224TIP3    H167087   5.460   1.656  15.931  2.2892 -2.2260 -3.0891
15224TIP3    H267088   5.368   1.767  15.884  2.1149 -0.1018  1.6809
15225TIP3   OH267089   5.511   4.299   0.792  0.5516  0.4542 -0.0053
15225TIP3    H167090   5.602   4.280   0.770  0.8520  2.5925 -0.9141
15225TIP3    H267091   5.515   4.340   0.879  0.4815  0.6682 -0.1012
15226TIP3   OH267092   2.974   1.796   4.776  0.3127 -0.8571 -0.0523
15226TIP3    H167093   2.910   1.823   4.841  0.1746 -1.4987  0.0837
15226TIP3    H267094   2.923   1.747   4.711  0.5407 -0.7126 -0.3440
15227TIP3   OH267095   5.305   4.876   3.842 -0.1675 -0.3652  0.1370
15227TIP3    H167096   5.214   4.883   3.871 -0.3234  0.5199 -0.5313
15227TIP3    H267097   5.316   4.783   3.821 -1.1651 -0.3345 -0.5778
15228TIP3   OH267098   5.709   4.192   5.908 -0.5837  0.5348 -0.3426
15228TIP3    H167099   5.769   4.145   5.967  0.6411 -0.6276 -2.4011
15228TIP3    H267100   5.757   4.271   5.883 -1.4823  1.5124  0.8481
15229TIP3   OH267101   0.104   5.301   1.017 -0.7562 -0.4538  0.9693
15229TIP3    H167102   0.186   5.331   1.057 -0.8750  2.2273 -0.5579
15229TIP3    H267103   0.037   5.323   1.082 -0.4264 -1.1824  1.5600
15230TIP3   OH267104   0.934   6.540  11.132 -0.4293  0.0685 -0.0533
15230TIP3    H167105   0.873   6.484  11.084 -1.3166  1.7836 -1.0368
15230TIP3    H267106   0.950   6.613  11.072  1.4264  0.4053  0.8113
15231TIP3   OH267107   1.797   6.596   0.778 -0.8669  0.4298  0.2345
15231TIP3    H167108   1.741   6.644   0.718 -1.0262  0.2759  0.2581
15231TIP3    H267109   1.797   6.506   0.744  0.1868  0.6371 -0.3615
15232TIP3   OH267110   1.452   3.189   5.191  0.3499  0.5083 -0.0059
15232TIP3    H167111   1.515   3.161   5.125  2.0625  0.1953  1.6811
15232TIP3    H267112   1.441   3.113   5.248 -0.9907  0.8087  0.1726
15233TIP3   OH267113   0.799   5.470   2.139  0.0064  0.2659  0.3122
15233TIP3    H167114   0.802   5.548   2.194 -0.8456  1.2938 -1.0550
15233TIP3    H267115   0.709   5.439   2.145 -0.4236  1.1119 -1.4586
15234TIP3   OH267116   6.742   6.336  12.643  0.0422  0.4948 -0.6635
15234TIP3    H167117   6.707   6.247  12.636  1.7342 -0.5950  2.3735
15234TIP3    H267118   6.806   6.342  12.572  0.7388 -1.2283 -0.2584
15235TIP3   OH267119   4.752   3.363  14.616  0.2858  0.4242 -0.0125
15235TIP3    H167120   4.846   3.378  14.628  0.0913  0.0322  2.8343
15235TIP3    H267121   4.720   3.441  14.572  2.2537 -0.4529 -3.2926
15236TIP3   OH267122   3.281   2.636   4.347  0.4880  0.0710 -0.1443
15236TIP3    H167123   3.278   2.550   4.390  0.8706 -0.3657 -0.9696
15236TIP3    H267124   3.189   2.660   4.336  0.3644 -0.5524 -0.5263
15237TIP3   OH267125   4.286   1.480  12.140  0.0577  0.0123  0.5618
15237TIP3    H167126   4.264   1.474  12.047 -0.6800 -0.4731  0.7650
15237TIP3    H267127   4.351   1.411  12.154  2.2394  1.7569 -0.1435
15238TIP3   OH267128   1.486   6.571  13.265 -0.3967 -0.1672  0.7142
15238TIP3    H167129   1.455   6.616  13.186 -0.0600  1.2036  1.3393
15238TIP3    H267130   1.477   6.636  13.335 -0.3708 -1.2499  1.7546
15239TIP3   OH267131   4.574   6.513  16.815 -0.3977 -0.2408 -0.2182
15239TIP3    H167132   4.663   6.489  16.839  0.2836  1.9200 -0.3863
15239TIP3    H267133   4.557   6.466  16.734  1.0296  0.1977 -0.7871
15240TIP3   OH267134   5.187   1.983  13.536  0.0068  0.2184  0.0931
15240TIP3    H167135   5.164   1.977  13.443 -0.6628  0.7068  0.2190
15240TIP3    H267136   5.281   1.966  13.539  0.2933  1.5079 -0.8311
15241TIP3   OH267137   1.388   2.189   0.278  0.2523 -0.4137  0.0896
15241TIP3    H167138   1.436   2.263   0.243 -0.6992 -0.1620 -0.7229
15241TIP3    H267139   1.324   2.167   0.210  2.4962 -3.9775 -1.1420
15242TIP3   OH267140   5.028   6.039   0.060 -0.9953  0.5129  0.2161
15242TIP3    H167141   5.101   6.025   0.121 -0.7869  0.3333 -0.0742
15242TIP3    H267142   4.974   5.961   0.068 -2.0233  1.3172  1.6096
15243TIP3   OH267143   2.915   1.956   1.324  0.3076  0.1843  0.2284
15243TIP3    H167144   2.959   2.004   1.255 -0.0238  1.0724  0.6282
15243TIP3    H267145   2.849   2.016   1.358 -0.1084 -0.5423  0.7449
15244TIP3   OH267146   1.240   6.450  15.342 -0.1248 -0.2495 -0.1668
15244TIP3    H167147   1.260   6.544  15.348 -2.0109  0.1779  0.0397
15244TIP3    H267148   1.204   6.428  15.428  2.7369 -1.8709  0.7755
15245TIP3   OH267149   6.206   4.829   1.400 -0.0962  0.0830 -0.0097
15245TIP3    H167150   6.157   4.862   1.324  0.8204  2.0111  0.2060
15245TIP3    H267151   6.239   4.907   1.444 -0.3508 -0.9988  2.2451
15246TIP3   OH267152   3.766   5.511  12.547  0.1402  0.2543 -0.2356
15246TIP3    H167153   3.685   5.476  12.509  0.4047 -0.8327  0.1782
15246TIP3    H267154   3.761   5.486  12.640 -0.3454  2.5898  0.4332
15247TIP3   OH267155   0.941   4.085   2.918 -0.5707 -0.0323  0.2572
15247TIP3    H167156   0.986   4.051   2.995  0.5492 -0.9559 -0.7591
15247TIP3    H267157   0.891   4.010   2.885  0.7339 -0.3285 -1.1577
15248TIP3   OH267158   3.053   0.829  10.614  0.3537  0.4793 -0.1285
15248TIP3    H167159   3.010   0.876  10.685  1.2318  1.0152  0.0652
15248TIP3    H267160   3.143   0.818  10.644  0.2278 -1.1449 -0.2602
15249TIP3   OH267161   1.988   2.837  12.558  0.2763  0.2799  0.6277
15249TIP3    H167162   2.008   2.883  12.477 -1.5560  4.7533  2.3963
15249TIP3    H267163   2.070   2.840  12.609  0.4768  0.6214  0.2880
15250TIP3   OH267164   4.620   6.038  11.798  0.3071 -0.0170 -0.1773
15250TIP3    H167165   4.686   6.092  11.841  0.6691 -1.0195  0.5653
15250TIP3    H267166   4.556   6.101  11.764  0.7004  0.8752  0.6797
15251TIP3   OH267167   6.459   4.256  15.612  0.2624 -0.3207  0.6204
15251TIP3    H167168   6.366   4.254  15.637  0.4869  0.8113  1.6332
15251TIP3    H267169   6.502   4.306  15.682  1.3084  0.9104 -0.8226
15252TIP3   OH267170   0.699   3.591  15.929  0.3531  0.3038  0.4005
15252TIP3    H167171   0.642   3.651  15.978  0.6529  0.3368  0.7094
15252TIP3    H267172   0.695   3.508  15.978  0.8097  0.3941  0.5969
15253TIP3   OH267173   6.210   3.446  14.291 -0.2358 -0.2191  0.2792
15253TIP3    H167174   6.242   3.443  14.381  1.6495 -2.4459 -0.3871
15253TIP3    H267175   6.117   3.470  14.299 -0.4255 -1.5418  2.9143
15254TIP3   OH267176   6.705   0.597   6.360  0.3483 -0.2504 -0.2475
15254TIP3    H167177   6.783   0.639   6.396 -0.0740  0.6155 -0.3015
15254TIP3    H267178   6.738   0.543   6.288  0.9181 -0.0597 -0.1352
15255TIP3   OH267179   1.329   5.188  16.742 -0.0986  0.2349 -0.0205
15255TIP3    H167180   1.350   5.185  16.649 -0.8681  1.4269 -0.2447
15255TIP3    H267181   1.413   5.175  16.786  0.5623  1.4239 -0.8821
15256TIP3   OH267182   6.171   2.423  14.831 -0.1440  0.3198  0.3232
15256TIP3    H167183   6.088   2.468  14.845  0.6737  1.9047  0.3305
15256TIP3    H267184   6.217   2.431  14.915 -0.0208 -0.6408  0.3577
15257TIP3   OH267185   2.675   0.013  17.005 -0.2983 -0.1104 -0.3706
15257TIP3    H167186   2.597  -0.042  16.999  1.3816 -2.6520  0.0341
15257TIP3    H267187   2.661   0.080  16.937 -2.3234 -1.0998 -1.0269
15258TIP3   OH267188   1.383   4.758  17.072 -0.0185  0.2018  0.0666
15258TIP3    H167189   1.405   4.671  17.104  0.4714  0.7304  1.2358
15258TIP3    H267190   1.331   4.743  16.993 -1.6273 -1.1860  1.3192
15259TIP3   OH267191   4.153   4.660   5.029 -0.4247 -0.4331 -0.2381
15259TIP3    H167192   4.175   4.712   5.107 -1.1997 -0.0602 -0.2601
15259TIP3    H267193   4.237   4.651   4.983 -0.1977  0.4757 -0.0373
15260TIP3   OH267194   3.356   0.382  16.812 -0.3106  0.5047 -0.5970
15260TIP3    H167195   3.451   0.388  16.822 -0.2125  0.4221 -1.3649
15260TIP3    H267196   3.323   0.467  16.842  0.0592  0.7457 -0.8646
15261TIP3   OH267197   6.143   3.284  12.510 -0.5467 -0.2127  0.2617
15261TIP3    H167198   6.159   3.251  12.598 -1.1940 -1.8852 -0.2209
15261TIP3    H267199   6.050   3.308  12.510 -0.7265 -0.8990 -0.1740
15262TIP3   OH267200   2.498   3.175   3.315  0.0102  0.4712  0.1678
15262TIP3    H167201   2.547   3.122   3.378 -0.3847 -1.5544 -1.1381
15262TIP3    H267202   2.431   3.219   3.368  2.6936  2.8373  1.9012
15263TIP3   OH267203   1.140   3.023   3.928 -0.1818 -0.5878  0.2632
15263TIP3    H167204   1.090   2.996   4.006  0.3992 -1.6436  0.2878
15263TIP3    H267205   1.229   2.992   3.945  0.1205 -0.1472 -0.4938
15264TIP3   OH267206   2.206   4.704   5.707 -0.5157  0.0800 -0.1746
15264TIP3    H167207   2.240   4.777   5.758 -1.1798 -0.0231  0.4353
15264TIP3    H267208   2.171   4.643   5.772  3.1236 -2.5377 -0.3422
15265TIP3   OH267209   3.655   1.214   2.524  1.0932 -0.2066  0.3771
15265TIP3    H167210   3.584   1.183   2.581  1.7091 -1.0841  0.6800
15265TIP3    H267211   3.670   1.142   2.463  0.6429  0.6112 -0.7328
15266TIP3   OH267212   3.303   5.370   6.356 -0.1911 -1.0671  0.1098
15266TIP3    H167213   3.263   5.292   6.394 -1.0811 -1.3944 -1.4479
15266TIP3    H267214   3.229   5.423   6.326  0.4516 -0.1896  0.0334
15267TIP3   OH267215   1.989   1.425  14.179  0.1031 -0.4605 -0.7191
15267TIP3    H167216   2.052   1.398  14.113 -0.8331 -1.4749 -1.2268
15267TIP3    H267217   1.906   1.384  14.153 -0.2480 -1.0809  1.1787
15268TIP3   OH267218   3.074   0.306  16.934 -0.1609  0.2245 -0.5066
15268TIP3    H167219   3.151   0.334  16.885  1.9469 -0.7519  2.0134
15268TIP3    H267220   3.074   0.362  17.012 -1.8609 -0.0137 -0.2882
15269TIP3   OH267221   5.608   2.865  16.870  0.7530  0.1947  1.0251
15269TIP3    H167222   5.513   2.864  16.868  0.7545  0.4592  0.7543
15269TIP3    H267223   5.633   2.947  16.827  1.1169 -0.2890  0.2744
15270TIP3   OH267224   1.833   3.785  12.290 -0.4456 -0.3868  0.0706
15270TIP3    H167225   1.748   3.743  12.277  0.4460 -3.2804  2.3540
15270TIP3    H267226   1.864   3.806  12.201 -2.1448 -2.2780 -1.0520
15271TIP3   OH267227   4.642   3.439   5.462 -0.1657  0.2800 -0.4915
15271TIP3    H167228   4.637   3.358   5.513  1.5478 -0.7122 -1.8017
15271TIP3    H267229   4.587   3.424   5.386 -0.9612  0.9137 -0.0597
15272TIP3   OH267230   3.713   2.776  12.555 -0.4951 -0.4207 -0.3690
15272TIP3    H167231   3.665   2.847  12.513  1.5164  1.8358  0.8611
15272TIP3    H267232   3.778   2.820  12.609  2.2388 -3.2298 -1.0794
15273TIP3   OH267233   3.286   6.677  12.694  0.3037 -0.4302 -0.1078
15273TIP3    H167234   3.362   6.725  12.660 -0.6676  1.0364 -0.2929
15273TIP3    H267235   3.216   6.741  12.696 -1.5222 -2.2082 -1.8586
15274TIP3   OH267236   4.269   2.389  11.891  0.0765  0.3895 -0.6051
15274TIP3    H167237   4.203   2.385  11.822 -0.9625  0.6062  0.3500
15274TIP3    H267238   4.338   2.445  11.855 -0.1831  0.0602 -1.6671
15275TIP3   OH267239   0.523   3.689  11.431 -0.1514  0.2366  0.2094
15275TIP3    H167240   0.514   3.631  11.506 -1.3280  1.1038  0.7637
15275TIP3    H267241   0.457   3.756  11.444  0.0940  0.8030 -1.2485
15276TIP3   OH267242   2.897   2.682   3.816  0.6384 -0.1604 -0.1367
15276TIP3    H167243   2.885   2.605   3.872 -2.6470 -0.9447 -1.6773
15276TIP3    H267244   2.914   2.646   3.729  0.5327  0.8673 -0.5934
15277TIP3   OH267245   1.341   0.479  12.144  0.3887  0.1300  0.5077
15277TIP3    H167246   1.358   0.495  12.052 -1.9262  0.7221  0.1341
15277TIP3    H267247   1.418   0.431  12.175  0.5122 -1.5124 -2.1070
15278TIP3   OH267248   2.923   5.166   2.340  0.1326  0.2454  0.2251
15278TIP3    H167249   2.851   5.219   2.306 -1.0615 -0.8636  0.9072
15278TIP3    H267250   2.940   5.201   2.427 -0.4265 -0.2402  0.5410
15279TIP3   OH267251   1.387   5.185  13.197 -0.0196  0.2207  0.1068
15279TIP3    H167252   1.437   5.222  13.269 -0.8919 -0.8385  1.2971
15279TIP3    H267253   1.413   5.236  13.120  0.2817  1.9443  1.3132
15280TIP3   OH267254   0.949   0.840   0.849  0.1152  0.0258 -0.0403
15280TIP3    H167255   0.899   0.823   0.769 -1.0338 -0.5291  0.7797
15280TIP3    H267256   0.973   0.753   0.881 -0.8573  0.1638  1.1044
15281TIP3   OH267257   5.492   2.595   0.867  0.2974 -0.1562  0.2425
15281TIP3    H167258   5.562   2.539   0.900  0.8828  1.2348  1.4539
15281TIP3    H267259   5.412   2.542   0.877  0.9268 -1.0503  0.6125
15282TIP3   OH267260   5.418   4.560  13.696  0.0282 -0.1351  0.2736
15282TIP3    H167261   5.462   4.506  13.631  0.1271 -0.7025  0.8056
15282TIP3    H267262   5.446   4.524  13.780 -0.5133  0.2538  0.6243
15283TIP3   OH267263   1.015   5.669   1.590 -0.3935 -0.7564 -0.6628
15283TIP3    H167264   1.045   5.729   1.659 -0.3678  0.2350 -1.5078
15283TIP3    H267265   1.094   5.648   1.541 -0.8446  0.9184 -2.1769
15284TIP3   OH267266   6.398   3.193  14.974  0.1755  0.1056 -0.2785
15284TIP3    H167267   6.312   3.220  14.943 -0.4587 -1.3493  0.1513
15284TIP3    H267268   6.397   3.212  15.067  0.2766 -0.0240 -0.2514
15285TIP3   OH267269   4.678   4.152   2.699  0.0288  0.4133 -0.2056
15285TIP3    H167270   4.665   4.183   2.610  0.0856 -1.3214 -0.8575
15285TIP3    H267271   4.603   4.095   2.716 -2.0745  3.5613  2.2965
15286TIP3   OH267272   0.262   2.114  16.583 -0.4315  0.6586 -0.1914
15286TIP3    H167273   0.257   2.100  16.488  0.7699  1.9482 -0.4774
15286TIP3    H267274   0.355   2.106  16.604 -0.9355 -2.6246  1.4612
15287TIP3   OH267275   4.709   2.566  14.897 -0.5569 -0.3989  0.0468
15287TIP3    H167276   4.631   2.551  14.843 -0.3262 -1.7323  0.0480
15287TIP3    H267277   4.695   2.513  14.975  0.4195 -0.7976 -0.0297
15288TIP3   OH267278   4.902   5.310  16.438 -0.2126  0.0010  0.8717
15288TIP3    H167279   4.852   5.259  16.374  0.8151 -0.9297  0.7855
15288TIP3    H267280   4.912   5.252  16.513  2.0641 -0.4429  0.2800
15289TIP3   OH267281   0.842   0.809  16.442  0.2564 -0.3975  0.1119
15289TIP3    H167282   0.792   0.792  16.521 -0.7090  0.8389 -0.1905
15289TIP3    H267283   0.866   0.902  16.448 -1.6641  0.3298 -1.9807
15290TIP3   OH267284   2.079   0.143  16.441 -0.1950  0.3446 -0.2455
15290TIP3    H167285   2.157   0.178  16.484 -0.4705  0.4117  0.2046
15290TIP3    H267286   2.092   0.049  16.439 -1.4129  0.0218  2.5297
15291TIP3   OH267287   0.154   4.934   3.594  0.6301 -0.6214 -0.2027
15291TIP3    H167288   0.181   4.964   3.507 -0.4338 -2.3535 -1.1948
15291TIP3    H267289   0.105   5.007   3.630  1.1899  0.1809 -1.0027
15292TIP3   OH267290   6.486   5.309  12.756 -0.2940 -0.1007  0.6444
15292TIP3    H167291   6.582   5.304  12.750 -0.3553 -0.9525  0.2668
15292TIP3    H267292   6.459   5.219  12.775 -1.1457 -0.2064 -0.9699
15293TIP3   OH267293   4.677   2.300   5.740 -0.4696 -0.2827 -0.3035
15293TIP3    H167294   4.762   2.340   5.759 -0.9021  2.1537 -2.7613
15293TIP3    H267295   4.698   2.209   5.719  1.6901  0.4119 -1.5468
15294TIP3   OH267296   1.848   1.993   1.325 -0.3551  0.4789 -0.0441
15294TIP3    H167297   1.827   1.925   1.389 -0.1328  0.3218 -0.1320
15294TIP3    H267298   1.915   1.952   1.270 -1.8593 -0.0823 -1.5470
15295TIP3   OH267299   0.600   1.941  13.871 -0.3740  0.0925  0.2429
15295TIP3    H167300   0.680   1.992  13.863  0.1838 -0.5875  1.2692
15295TIP3    H267301   0.561   1.970  13.954 -1.1476  0.3471 -0.1967
15296TIP3   OH267302   2.560   3.998   3.570  0.2981 -0.8747 -0.3631
15296TIP3    H167303   2.653   3.991   3.591  0.2052 -0.8267  0.0733
15296TIP3    H267304   2.546   4.090   3.549 -0.0164 -0.4867  1.3945
15297TIP3   OH267305   2.723   5.599  15.803 -0.3960  0.3301  0.0355
15297TIP3    H167306   2.646   5.591  15.858 -0.4315 -0.1873 -0.0841
15297TIP3    H267307   2.759   5.685  15.824  0.2803 -0.3431  1.7756
15298TIP3   OH267308   1.207   3.932  12.860  0.6732  0.0830 -0.4102
15298TIP3    H167309   1.168   4.019  12.846  1.8379  0.4482 -1.5836
15298TIP3    H267310   1.141   3.884  12.910 -0.5117  1.2548 -0.7894
15299TIP3   OH267311   0.942   0.573  15.827 -0.1165  0.1759  0.0916
15299TIP3    H167312   1.002   0.624  15.880  0.2800 -0.0996 -0.0877
15299TIP3    H267313   0.860   0.621  15.830  0.2343  0.7825 -0.0104
15300TIP3   OH267314   6.267   4.809   3.969 -0.0771 -0.3772 -0.0818
15300TIP3    H167315   6.268   4.904   3.961  1.5938 -0.2390  1.2055
15300TIP3    H267316   6.274   4.792   4.063 -2.2029 -1.8039 -0.1219
15301TIP3   OH267317   2.883   5.177  11.375 -0.3669  0.0107 -0.3316
15301TIP3    H167318   2.844   5.116  11.313  0.7749 -0.2030 -0.8785
15301TIP3    H267319   2.976   5.154  11.376  0.2023  2.0219 -0.9305
15302TIP3   OH267320   4.300   4.454   4.529 -0.3495 -0.6318  0.5899
15302TIP3    H167321   4.376   4.405   4.498 -2.5490 -2.8710 -1.6851
15302TIP3    H267322   4.283   4.518   4.460 -2.2939 -2.2644 -0.5337
15303TIP3   OH267323   4.894   4.088  16.932  0.4546  0.0589  0.3819
15303TIP3    H167324   4.840   4.011  16.950 -0.3128  0.1495 -1.3321
15303TIP3    H267325   4.925   4.116  17.018 -1.2631 -0.7123  1.3166
15304TIP3   OH267326   3.575   0.398  15.081 -0.1603 -0.6580  0.5327
15304TIP3    H167327   3.550   0.318  15.129 -1.1076 -1.0380 -0.5517
15304TIP3    H267328   3.647   0.370  15.024 -0.4531 -0.7264  0.1956
15305TIP3   OH267329   6.611   1.418  16.418  0.1758 -0.1630  0.5899
15305TIP3    H167330   6.539   1.367  16.458 -0.0142 -1.5854 -1.3857
15305TIP3    H267331   6.690   1.378  16.453  0.0038  0.1826  1.3740
15306TIP3   OH267332   2.212   6.090   5.511  0.6700 -0.5421  0.6473
15306TIP3    H167333   2.271   6.137   5.451  1.3308 -0.2114  1.5205
15306TIP3    H267334   2.127   6.093   5.468  1.1657 -0.4895 -0.3659
15307TIP3   OH267335   1.728   0.132   0.863  0.0216 -0.1297 -0.3018
15307TIP3    H167336   1.819   0.102   0.859  0.1823  0.4260 -1.1989
15307TIP3    H267337   1.694   0.117   0.775 -1.5250 -2.5632  0.6140
15308TIP3   OH267338   4.634   3.087  16.423 -0.1647  0.1848  0.0138
15308TIP3    H167339   4.643   2.994  16.403  0.3955 -0.0095  1.0996
15308TIP3    H267340   4.540   3.103  16.417 -0.2072 -0.2934 -0.8029
15309TIP3   OH267341   0.392   4.260   5.294  0.0031  0.0875  0.3211
15309TIP3    H167342   0.375   4.353   5.309  0.4364  0.1463  0.4454
15309TIP3    H267343   0.368   4.218   5.377  0.2893  0.1486  0.4346
15310TIP3   OH267344   3.521   0.889   2.447  0.0064 -0.0488 -1.0875
15310TIP3    H167345   3.469   0.840   2.511  1.5275 -0.9391 -0.4661
15310TIP3    H267346   3.457   0.922   2.385 -1.3123 -0.9718 -0.2888
15311TIP3   OH267347   0.466   1.003  12.777  0.0216  0.0463  0.4894
15311TIP3    H167348   0.465   0.908  12.791  1.9602 -0.3600 -1.5865
15311TIP3    H267349   0.393   1.020  12.719 -1.5784  0.1915  2.4452
15312TIP3   OH267350   2.405   2.474   0.616  0.1257  0.6262 -0.7201
15312TIP3    H167351   2.319   2.451   0.580  0.5418 -0.8022 -0.8393
15312TIP3    H267352   2.389   2.555   0.665 -1.4841 -0.1289  0.0723
15313TIP3   OH267353   2.148   2.236  14.967 -0.0772  0.2787 -0.1238
15313TIP3    H167354   2.075   2.178  14.989  0.3059 -0.7303 -1.3727
15313TIP3    H267355   2.126   2.320  15.007 -0.9508 -0.5502  1.2126
15314TIP3   OH267356   6.337   4.399  13.027 -0.3798  0.3864 -0.4213
15314TIP3    H167357   6.329   4.461  13.099 -0.4069 -0.9376  0.7517
15314TIP3    H267358   6.403   4.437  12.970 -1.1249  1.9890 -0.2758
15315TIP3   OH267359   0.334   4.558  12.629 -0.0049  0.1288  0.3633
15315TIP3    H167360   0.262   4.603  12.672 -1.7876 -0.1503 -2.1140
15315TIP3    H267361   0.306   4.466  12.627  1.0699 -0.2185  0.5318
15316TIP3   OH267362   6.793   1.962   5.229  0.8121 -0.2211 -0.0639
15316TIP3    H167363   6.809   1.993   5.318 -1.8703 -0.1541  0.4775
15316TIP3    H267364   6.778   1.868   5.239 -2.0439  0.1433  0.0705
15317TIP3   OH267365   5.666   5.437   3.192  0.3339 -0.2598 -0.1730
15317TIP3    H167366   5.693   5.367   3.252  0.2109 -0.1681 -0.0096
15317TIP3    H267367   5.744   5.490   3.181  0.3726 -0.3086 -0.1367
15318TIP3   OH267368   4.004   2.000   0.324  0.8844 -0.2000  0.3354
15318TIP3    H167369   4.069   2.034   0.262  1.3888  0.4683  1.2142
15318TIP3    H267370   3.964   2.077   0.363 -0.3200 -0.6095 -0.0485
15319TIP3   OH267371   6.323   4.018   2.439 -0.4202 -0.2007  0.4903
15319TIP3    H167372   6.368   4.011   2.524 -0.9269 -1.1017  0.6943
15319TIP3    H267373   6.385   3.981   2.376 -0.0842  0.3767  0.4754
15320TIP3   OH267374   0.742   4.089  13.868 -0.3800 -0.0033  0.0708
15320TIP3    H167375   0.823   4.127  13.903 -1.3714 -0.5133  3.2347
15320TIP3    H267376   0.715   4.149  13.799  2.9693 -0.1668 -1.5731
15321TIP3   OH267377   5.860   4.719  16.261  0.0962  0.6778  0.5830
15321TIP3    H167378   5.907   4.669  16.194 -1.1581 -0.9250  0.8315
15321TIP3    H267379   5.845   4.656  16.332  0.6256  2.1013  2.0101
15322TIP3   OH267380   3.810   1.748   3.762 -0.5212  0.1032 -0.0902
15322TIP3    H167381   3.803   1.687   3.835 -0.6673  1.5723  1.1844
15322TIP3    H267382   3.720   1.761   3.732 -0.8649  1.8215  1.5235
15323TIP3   OH267383   4.065   5.828   2.333 -0.0647  1.1277 -0.2802
15323TIP3    H167384   4.078   5.748   2.282 -1.6414  0.7122 -0.0828
15323TIP3    H267385   4.104   5.809   2.418 -1.2140  0.1953  0.0680
15324TIP3   OH267386   5.362   5.181   0.806  0.6564  0.1773 -0.0096
15324TIP3    H167387   5.411   5.227   0.874 -0.5269 -0.9552  1.6723
15324TIP3    H267388   5.429   5.149   0.745  2.0779 -1.2897  2.1897
15325TIP3   OH267389   4.723   0.508  11.255 -0.3315  0.0661 -0.6738
15325TIP3    H167390   4.805   0.544  11.288 -0.1651  0.6591 -1.6947
15325TIP3    H267391   4.661   0.581  11.258 -0.4842 -0.0442 -1.0612
15326TIP3   OH267392   5.144   5.685  10.458 -0.6224 -0.2518  0.2768
15326TIP3    H167393   5.191   5.712  10.379  1.2371 -0.8078  1.1164
15326TIP3    H267394   5.151   5.589  10.459 -1.1621 -0.2918  0.7891
15327TIP3   OH267395   2.804   6.187   4.519  0.6685  0.0481  0.2845
15327TIP3    H167396   2.858   6.120   4.560 -1.5019 -2.0074  0.0234
15327TIP3    H267397   2.777   6.244   4.591 -1.1925 -2.1521  1.4899
15328TIP3   OH267398   1.013   0.777  14.487 -0.2371  0.0961  0.2818
15328TIP3    H167399   0.919   0.779  14.506 -0.2172  1.1235  0.3535
15328TIP3    H267400   1.051   0.727  14.559 -0.6998 -0.0790  0.4075
15329TIP3   OH267401   3.569   4.592  12.096  0.0917 -0.3500  0.3905
15329TIP3    H167402   3.590   4.652  12.025 -0.3249  1.2716  1.5666
15329TIP3    H267403   3.546   4.649  12.170  0.0955 -1.9591  1.7078
15330TIP3   OH267404   5.558   4.814  13.689  0.7995 -0.1559 -0.2401
15330TIP3    H167405   5.534   4.729  13.654 -2.3002  0.7106 -0.4664
15330TIP3    H267406   5.524   4.813  13.779 -0.5960  1.3002 -0.7107
15331TIP3   OH267407   0.963   5.839   4.576 -0.1615 -0.3987 -0.3760
15331TIP3    H167408   0.932   5.892   4.503 -0.1189 -0.2590 -0.2928
15331TIP3    H267409   0.942   5.891   4.654 -0.6509 -0.7613 -0.2570
15332TIP3   OH267410   6.646   4.859   2.676  0.7560  0.2191 -0.0517
15332TIP3    H167411   6.601   4.802   2.614  1.1390 -1.1595  0.8965
15332TIP3    H267412   6.582   4.876   2.745  1.1421 -0.3704  0.4590
15333TIP3   OH267413   4.137   1.134  12.988  0.2812 -0.4479 -0.9313
15333TIP3    H167414   4.070   1.196  12.958 -1.0494 -1.6066 -0.4491
15333TIP3    H267415   4.184   1.182  13.057 -1.2103 -0.1865 -0.0488
15334TIP3   OH267416   3.889   1.488  11.544 -0.1664  0.1748  0.2494
15334TIP3    H167417   3.939   1.411  11.519 -0.2419  0.1135  0.2851
15334TIP3    H267418   3.841   1.462  11.623 -1.5998 -0.3518 -0.7404
15335TIP3   OH267419   1.892   1.099  15.210 -0.4395 -0.0733  0.1183
15335TIP3    H167420   1.859   1.103  15.120 -1.4999  0.1332  0.5030
15335TIP3    H267421   1.987   1.106  15.201 -0.5595  0.3491 -0.9603
15336TIP3   OH267422   5.951   1.693  15.099  0.1695 -0.2388  0.1298
15336TIP3    H167423   6.043   1.712  15.082  0.0717  0.1159 -0.0211
15336TIP3    H267424   5.908   1.704  15.014  0.0798 -0.9932  0.0694
15337TIP3   OH267425   6.779   2.368   2.622 -0.3744  0.4230 -0.8125
15337TIP3    H167426   6.836   2.362   2.699 -1.0538  0.6692 -0.2821
15337TIP3    H267427   6.827   2.425   2.561  0.0222  0.4888 -0.4421
15338TIP3   OH267428   6.593   1.521  15.845 -0.0104 -0.1292 -0.0177
15338TIP3    H167429   6.555   1.486  15.765 -1.6471 -1.1724  1.1336
15338TIP3    H267430   6.677   1.477  15.854  1.4676  1.9207 -2.4209
15339TIP3   OH267431   4.900   4.947   1.064 -0.1426  0.4761 -0.0254
15339TIP3    H167432   4.881   4.926   0.973 -1.2295 -0.3476  0.3734
15339TIP3    H267433   4.820   4.923   1.112 -0.1804  2.3625  0.9392
15340TIP3   OH267434   5.302   5.908   4.580 -0.2582 -0.1546  0.6584
15340TIP3    H167435   5.368   5.899   4.648  1.4014  1.0554 -0.6857
15340TIP3    H267436   5.314   5.831   4.525  1.7714  1.1388 -0.8964
15341TIP3   OH267437   3.235   2.668   1.751 -0.2853  0.6114  0.1867
15341TIP3    H167438   3.221   2.573   1.745  0.2668  0.5234  0.3085
15341TIP3    H267439   3.218   2.700   1.662  1.6908  0.1059 -0.4233
15342TIP3   OH267440   2.984   3.665   5.329  0.2592 -0.1310  0.0520
15342TIP3    H167441   2.943   3.728   5.388 -0.1545  0.9882 -1.3913
15342TIP3    H267442   2.935   3.584   5.344  1.2186 -0.3713  2.4065
15343TIP3   OH267443   0.925   2.170   2.950  0.2506  0.4548 -0.0670
15343TIP3    H167444   0.977   2.183   2.871  2.4777  1.0119  1.3800
15343TIP3    H267445   0.925   2.255   2.993 -0.2412 -0.0173  0.9073
15344TIP3   OH267446   6.100   1.552  15.587  0.6018  0.4896 -0.2350
15344TIP3    H167447   6.134   1.463  15.590 -1.2078 -0.2325  2.6739
15344TIP3    H267448   6.024   1.547  15.529  0.4881  0.1399 -0.0566
15345TIP3   OH267449   0.759   2.949   2.002 -0.4692  0.2304  0.1291
15345TIP3    H167450   0.712   2.924   1.923 -0.4940  0.2627  0.1336
15345TIP3    H267451   0.828   3.008   1.972  0.5546 -1.0261 -0.0749
15346TIP3   OH267452   6.784   4.890   2.329  0.5304 -0.0850  0.3737
15346TIP3    H167453   6.842   4.959   2.360 -1.6025  1.1032  1.9793
15346TIP3    H267454   6.768   4.836   2.406 -1.2047  0.1838  0.2380
15347TIP3   OH267455   0.209   1.967   0.120 -0.7556 -0.3200  0.0502
15347TIP3    H167456   0.249   1.979   0.033 -0.8340 -2.6944 -0.3892
15347TIP3    H267457   0.276   1.999   0.181 -0.2945  0.4827 -0.8345
15348TIP3   OH267458   0.591   4.167  15.925  0.1728 -0.4187  0.1099
15348TIP3    H167459   0.590   4.116  16.006 -1.7451  0.0722  0.4442
15348TIP3    H267460   0.646   4.116  15.866  1.5517 -0.8248  1.6723
15349TIP3   OH267461   2.119   1.805   4.950 -0.0712  0.1737 -0.6177
15349TIP3    H167462   2.065   1.725   4.945  0.4572 -0.1815 -0.7210
15349TIP3    H267463   2.126   1.823   5.044 -3.2746  2.2416 -0.6023
15350TIP3   OH267464   3.480   4.161   3.473 -0.0851  0.3615 -0.1449
15350TIP3    H167465   3.477   4.174   3.378 -1.8333 -3.5687 -0.8153
15350TIP3    H267466   3.439   4.240   3.509 -1.7484  0.8875 -2.8587
15351TIP3   OH267467   5.365   2.117   0.611 -0.0103  0.5414 -0.0843
15351TIP3    H167468   5.293   2.102   0.549 -0.8461  1.9194  0.5018
15351TIP3    H267469   5.441   2.135   0.555 -0.4865  0.6659 -0.7108
15352TIP3   OH267470   1.081   0.514  15.603 -0.1143  0.0214 -0.1131
15352TIP3    H167471   1.156   0.550  15.651  0.5973 -1.3660 -0.1232
15352TIP3    H267472   1.006   0.530  15.660  0.4045  0.1889  0.5392
15353TIP3   OH267473   0.094   5.692  11.847  0.7651  1.0637 -0.0512
15353TIP3    H167474   0.107   5.760  11.913  2.7384  0.7409 -0.0474
15353TIP3    H267475   0.175   5.641  11.848 -0.5998 -1.2644 -0.1168
15354TIP3   OH267476   4.971   5.832   4.694 -0.8275 -0.3135 -0.0992
15354TIP3    H167477   4.924   5.789   4.766 -1.0789  0.0298 -0.0550
15354TIP3    H267478   4.906   5.837   4.623 -0.4446 -1.0792 -0.5276
15355TIP3   OH267479   1.461   1.462   1.331 -0.0938  0.4045 -0.0861
15355TIP3    H167480   1.557   1.458   1.323 -0.1547 -1.3925 -0.2486
15355TIP3    H267481   1.446   1.529   1.397  1.4656 -1.6161  2.5338
15356TIP3   OH267482   5.545   1.639   5.135  0.5429  0.0891 -0.0695
15356TIP3    H167483   5.580   1.561   5.091 -0.0028 -0.4132  0.3765
15356TIP3    H267484   5.568   1.711   5.077  0.7475 -0.4465 -0.6654
15357TIP3   OH267485   1.759   1.108  10.658 -0.0906  0.0081  0.5146
15357TIP3    H167486   1.712   1.143  10.583  0.0058 -0.2871  0.3135
15357TIP3    H267487   1.822   1.177  10.682 -1.3244  0.8554  1.4534
15358TIP3   OH267488   6.066   3.519  11.451 -0.3093 -0.0722  0.2708
15358TIP3    H167489   6.031   3.607  11.467 -2.4923 -0.9577  0.7634
15358TIP3    H267490   6.022   3.464  11.517  0.1331 -1.7159 -0.7559
15359TIP3   OH267491   4.879   0.538  15.823  0.3737  0.2697  0.2440
15359TIP3    H167492   4.874   0.467  15.887  0.9847 -0.9593 -1.0082
15359TIP3    H267493   4.790   0.572  15.818 -0.4183 -1.7565 -0.5724
15360TIP3   OH267494   6.362   2.900   5.590  0.0695  0.3118 -0.8283
15360TIP3    H167495   6.422   2.830   5.565 -1.1660 -0.2698 -2.3188
15360TIP3    H267496   6.377   2.969   5.525 -2.0949 -0.5955 -2.4473
15361TIP3   OH267497   0.201   2.970  13.546  0.5702 -0.0260 -0.7407
15361TIP3    H167498   0.141   2.994  13.476 -1.6537 -0.4249  0.9005
15361TIP3    H267499   0.152   2.989  13.627  2.9335  0.2741  0.7270
15362TIP3   OH267500   3.065   4.172  16.509  0.2837  0.1393 -0.2563
15362TIP3    H167501   3.009   4.103  16.474  0.3670  0.5153 -1.1569
15362TIP3    H267502   3.016   4.207  16.583  0.5584 -1.3439  0.6818
15363TIP3   OH267503   5.281   3.597   6.479 -0.5028 -0.1985  0.6059
15363TIP3    H167504   5.345   3.568   6.544  0.0983 -1.1427 -0.3668
15363TIP3    H267505   5.196   3.581   6.519 -0.1401  0.2071  1.5599
15364TIP3   OH267506   5.433   6.423   2.092 -0.1410 -0.0986  0.2188
15364TIP3    H167507   5.375   6.398   2.020  0.7749  0.3934 -0.7103
15364TIP3    H267508   5.401   6.373   2.166 -0.2197 -1.7247 -0.8650
15365TIP3   OH267509   0.326   3.287   0.435  0.6481 -0.8689 -0.4813
15365TIP3    H167510   0.244   3.336   0.437 -0.4478 -2.6362  0.0388
15365TIP3    H267511   0.334   3.258   0.344  1.2653  0.1582 -0.7748
15366TIP3   OH267512   1.553   5.918  15.803 -0.4886 -0.2944 -0.2485
15366TIP3    H167513   1.569   5.891  15.893  0.7643 -0.3822 -0.4762
15366TIP3    H267514   1.488   5.988  15.810  0.6920  0.7390  0.8756
15367TIP3   OH267515   5.371   6.750  11.041 -0.2184  0.7033 -0.1268
15367TIP3    H167516   5.303   6.683  11.049 -0.5383  1.2359  2.0999
15367TIP3    H267517   5.377   6.766  10.946 -3.3830  0.8292 -0.4246
15368TIP3   OH267518   0.010   2.147   4.633  0.4867 -0.4639 -0.3095
15368TIP3    H167519   0.007   2.067   4.581  4.0337  1.1088 -3.3264
15368TIP3    H267520   0.053   2.120   4.715 -0.6675 -2.0485 -0.1788
15369TIP3   OH267521   2.593   0.881  12.446  0.8943 -0.1904 -0.6475
15369TIP3    H167522   2.621   0.792  12.424  1.7637 -0.4551  1.3028
15369TIP3    H267523   2.578   0.879  12.541 -1.0271  1.2509 -0.8551
15370TIP3   OH267524   4.203   2.118  14.793  0.6501 -0.3652 -0.6638
15370TIP3    H167525   4.226   2.127  14.885 -1.0826 -0.6730 -0.1700
15370TIP3    H267526   4.256   2.045  14.762 -0.8954 -2.2701  0.9109
15371TIP3   OH267527   6.616   0.647   0.927  0.0822 -0.2951  0.2676
15371TIP3    H167528   6.706   0.621   0.946  0.2041 -0.0187  0.0768
15371TIP3    H267529   6.593   0.598   0.848  0.1181 -0.2496  0.2289
15372TIP3   OH267530   5.185   5.091   4.097 -0.1395 -0.5231  0.0482
15372TIP3    H167531   5.201   5.185   4.109  0.9847 -0.6812 -0.0748
15372TIP3    H267532   5.168   5.081   4.004 -0.5891 -0.3987  0.1165
15373TIP3   OH267533   0.511   2.533  10.637  0.9860  0.7375  0.2495
15373TIP3    H167534   0.605   2.518  10.628  1.1160  0.6767  1.5184
15373TIP3    H267535   0.504   2.612  10.691  0.3086  0.5417  0.4554
15374TIP3   OH267536   2.866   2.831  16.408 -0.0944  0.1208 -0.6871
15374TIP3    H167537   2.793   2.863  16.355 -0.6352  1.3474  0.7400
15374TIP3    H267538   2.825   2.799  16.488  1.0090  3.1440  1.2673
15375TIP3   OH267539   1.268   6.285   3.214  0.4138 -0.7667 -0.2275
15375TIP3    H167540   1.288   6.347   3.284  0.1245 -0.1337 -0.6953
15375TIP3    H267541   1.178   6.256   3.233 -0.2801  0.6307 -1.2055
15376TIP3   OH267542   5.635   3.269  12.957 -0.0491  0.5783  1.0399
15376TIP3    H167543   5.542   3.249  12.959  0.3833 -1.7780  1.6360
15376TIP3    H267544   5.650   3.329  13.030 -1.0108  0.4775  1.3240
15377TIP3   OH267545   6.577   2.084  15.496  0.1215  0.2737 -0.6020
15377TIP3    H167546   6.589   2.054  15.586  3.6802 -0.7159 -1.2536
15377TIP3    H267547   6.547   2.007  15.448  2.0420 -0.3643 -0.8879
15378TIP3   OH267548   1.322   5.422  11.756 -0.3792  0.4965 -0.0565
15378TIP3    H167549   1.270   5.458  11.685  0.3252  0.6709 -0.4834
15378TIP3    H267550   1.342   5.332  11.728 -2.1223 -0.2867  0.9962
15379TIP3   OH267551   2.470   0.054   3.425  0.0331 -1.0992 -0.2141
15379TIP3    H167552   2.461  -0.034   3.462 -1.3882 -0.2506  1.5816
15379TIP3    H267553   2.428   0.112   3.488 -0.0974  0.7701 -1.9026
15380TIP3   OH267554   0.947   1.484   4.314  0.1264 -0.0925  0.2287
15380TIP3    H167555   0.875   1.547   4.317  0.4855  0.3093  0.4927
15380TIP3    H267556   0.914   1.413   4.258 -0.2710  0.3402 -0.0974
15381TIP3   OH267557   2.443   1.472   2.767  0.0260 -0.4205  0.1993
15381TIP3    H167558   2.464   1.565   2.777  0.2708 -0.7426  4.2112
15381TIP3    H267559   2.526   1.427   2.785  0.1083 -1.4989 -2.4716
15382TIP3   OH267560   2.282   0.258   4.687  0.0816 -0.5137 -0.7150
15382TIP3    H167561   2.367   0.300   4.670 -0.0513 -0.0436 -0.2401
15382TIP3    H267562   2.222   0.331   4.701  0.0853 -0.8555  1.3222
15383TIP3   OH267563   5.763   4.799   3.402 -0.6278 -0.0220  0.3523
15383TIP3    H167564   5.753   4.885   3.362  0.7223 -0.3666 -0.8164
15383TIP3    H267565   5.727   4.808   3.490 -0.7404  1.6615  0.1518
15384TIP3   OH267566   2.276   4.897   3.626 -0.0771 -0.0918  0.0474
15384TIP3    H167567   2.349   4.841   3.653 -0.2828 -0.3879 -0.0237
15384TIP3    H267568   2.223   4.843   3.569 -0.1380  0.2566 -0.2258
15385TIP3   OH267569   5.880   2.087   4.587  0.0548 -0.8238  0.4279
15385TIP3    H167570   5.829   2.024   4.535  0.8954 -0.0651 -1.4292
15385TIP3    H267571   5.969   2.052   4.586  0.4509  0.1603 -0.2850
15386TIP3   OH267572   3.063   5.192  11.995  0.9446 -0.3497 -0.1971
15386TIP3    H167573   2.997   5.176  11.927  0.0189 -0.7707  0.7746
15386TIP3    H267574   3.145   5.162  11.956 -0.0105 -3.4335 -0.0764
15387TIP3   OH267575   5.713   1.213   3.032 -0.0709  0.2991  0.2237
15387TIP3    H167576   5.710   1.240   3.124 -0.8716  0.6399  0.0997
15387TIP3    H267577   5.631   1.244   2.995  0.7113  1.1231 -0.8804
15388TIP3   OH267578   6.205   3.255  15.932 -0.3727 -0.0593 -0.1283
15388TIP3    H167579   6.186   3.198  15.857  0.0800  1.2360 -1.2764
15388TIP3    H267580   6.124   3.303  15.946 -0.0831  0.5852 -0.6090
15389TIP3   OH267581   6.004   3.813  14.376 -0.5150 -0.3648  0.2403
15389TIP3    H167582   5.957   3.739  14.337 -0.9473  0.2077 -0.3385
15389TIP3    H267583   6.086   3.817  14.327 -1.3746  0.8250 -1.1754
15390TIP3   OH267584   1.864   0.111  13.331 -0.6727 -0.4212  0.2579
15390TIP3    H167585   1.803   0.183  13.348  2.1173  2.5181 -1.2112
15390TIP3    H267586   1.869   0.106  13.236  0.8802 -1.0442  0.3498
15391TIP3   OH267587   1.112   4.037   6.174 -0.1410  0.4116  0.0637
15391TIP3    H167588   1.108   4.051   6.269  1.1091  0.2678  0.1551
15391TIP3    H267589   1.083   3.947   6.162 -0.8615  0.6099  0.2373
15392TIP3   OH267590   2.230   1.031  16.341 -0.2529  0.1137  0.5634
15392TIP3    H167591   2.166   1.020  16.411 -2.4917 -0.5554 -1.4217
15392TIP3    H267592   2.298   0.967  16.359 -1.5777 -1.1338  1.2848
15393TIP3   OH267593   1.711   4.905   3.078  0.1238 -0.3207 -0.0445
15393TIP3    H167594   1.718   4.917   2.984  0.5105 -1.0069 -0.1056
15393TIP3    H267595   1.667   4.984   3.109 -1.4244 -0.7776 -0.9849
15394TIP3   OH267596   0.809   0.028  10.293  0.0478 -0.1700 -0.3572
15394TIP3    H167597   0.859   0.097  10.248  0.1197 -1.1361 -1.8339
15394TIP3    H267598   0.849  -0.054  10.264 -1.9263 -0.9458 -1.0624
15395TIP3   OH267599   1.384   0.873  13.399  0.0243 -0.0094 -0.4160
15395TIP3    H167600   1.347   0.788  13.377 -0.3056  0.2267 -0.7780
15395TIP3    H267601   1.325   0.937  13.359 -0.3489  0.4304  0.7832
15396TIP3   OH267602   4.647   5.726  10.335  0.1401 -0.5946  0.1140
15396TIP3    H167603   4.606   5.640  10.338 -0.8630 -0.1446 -0.1435
15396TIP3    H267604   4.574   5.787  10.347  0.8291  0.2214  0.2512
15397TIP3   OH267605   6.563   6.285  17.000  0.5236 -0.1008 -0.1233
15397TIP3    H167606   6.530   6.374  16.992 -1.2404 -0.5756  1.1110
15397TIP3    H267607   6.539   6.244  16.916 -0.1743  0.1427 -0.0500
15398TIP3   OH267608   3.067   1.168  16.142 -0.1051  0.1952 -0.0539
15398TIP3    H167609   3.008   1.119  16.199  0.7002  1.0055  1.5350
15398TIP3    H267610   3.033   1.257  16.142 -0.4231  0.0982 -1.3434
15399TIP3   OH267611   6.299   2.840  14.830 -0.5235  0.5949  0.8830
15399TIP3    H167612   6.335   2.919  14.789  0.7226 -1.7680 -3.1218
15399TIP3    H267613   6.215   2.826  14.786 -0.0047 -1.1126  0.3723
15400TIP3   OH267614   2.986   1.062  16.906  0.0105 -0.5953 -0.4210
15400TIP3    H167615   2.935   1.133  16.867  0.7441  1.1686  1.5868
15400TIP3    H267616   2.921   1.007  16.951 -0.3558  0.5309  0.4817
15401TIP3   OH267617   5.358   6.725  14.490  0.6023  0.0502  0.3783
15401TIP3    H167618   5.329   6.677  14.412  0.8876 -1.4523  1.1572
15401TIP3    H267619   5.339   6.665  14.563  1.0118  1.1268  1.3954
15402TIP3   OH267620   0.570   6.236  15.665 -0.1788 -0.1981 -0.1183
15402TIP3    H167621   0.612   6.192  15.591  1.3861  0.7516  0.1556
15402TIP3    H267622   0.588   6.179  15.740  1.0515  0.3955  0.0712
15403TIP3   OH267623   2.526   3.516   3.244  0.0160 -0.4311  0.3208
15403TIP3    H167624   2.494   3.603   3.269  1.4151  0.2159 -0.0763
15403TIP3    H267625   2.494   3.458   3.314 -0.2947  0.5209  0.9906
15404TIP3   OH267626   5.880   1.427  16.310  0.0582 -0.7128  0.7501
15404TIP3    H167627   5.851   1.364  16.377 -0.0041  0.0019  1.4086
15404TIP3    H267628   5.852   1.512  16.343  1.6197 -0.1503  0.7161
15405TIP3   OH267629   1.408   0.885   0.391 -0.2808 -0.5621 -0.7041
15405TIP3    H167630   1.411   0.980   0.381  1.0453 -0.5872 -0.7030
15405TIP3    H267631   1.364   0.871   0.475  0.3418  0.0948 -0.2494
15406TIP3   OH267632   3.032   1.851  11.022  0.5978 -0.6182  0.2011
15406TIP3    H167633   3.114   1.801  11.024  1.2877  0.4783  0.7873
15406TIP3    H267634   2.982   1.819  11.097  0.8384 -0.7356  0.3118
15407TIP3   OH267635   0.799   1.036  14.915  0.4345 -0.2622 -0.0376
15407TIP3    H167636   0.891   1.059  14.899  0.3354 -0.2293 -0.5844
15407TIP3    H267637   0.766   1.104  14.973  0.1072  1.0641 -1.7209
15408TIP3   OH267638   4.596   0.947   4.230 -0.0962  0.7081 -0.6842
15408TIP3    H167639   4.568   0.870   4.181 -0.9581  1.2754 -1.1017
15408TIP3    H267640   4.683   0.967   4.195  0.5686 -0.6398  0.1184
15409TIP3   OH267641   3.937   3.915  13.755  0.3841 -0.3733 -0.4081
15409TIP3    H167642   4.028   3.894  13.732  0.6359 -1.2593  1.2242
15409TIP3    H267643   3.944   3.992  13.812 -0.0624  0.6036 -1.6249
15410TIP3   OH267644   1.697   3.353   2.411 -0.6142 -0.3484  0.3696
15410TIP3    H167645   1.775   3.313   2.372  0.9925 -1.3372  4.1559
15410TIP3    H267646   1.716   3.447   2.410 -1.1072 -0.2113 -1.9583
15411TIP3   OH267647   6.315   5.382   4.184  0.0562 -0.0107  0.2825
15411TIP3    H167648   6.345   5.292   4.202 -2.6006 -0.6623  2.2417
15411TIP3    H267649   6.263   5.405   4.262 -1.9535  2.0108 -1.5148
15412TIP3   OH267650   5.019   3.369   5.533  0.6007  0.2709  0.2884
15412TIP3    H167651   4.978   3.451   5.559  0.5777  0.8910 -1.5143
15412TIP3    H267652   5.034   3.379   5.439  1.9154 -1.2272  0.2905
15413TIP3   OH267653   2.883   6.693   5.764 -0.2361  0.2445  0.0541
15413TIP3    H167654   2.813   6.710   5.701 -1.9740 -1.9152  1.2893
15413TIP3    H267655   2.840   6.697   5.850  1.6608  1.1464  1.0238
15414TIP3   OH267656   0.547   5.827  14.354  0.1406  0.0763  0.0441
15414TIP3    H167657   0.619   5.778  14.393 -0.4646 -0.0182  1.0756
15414TIP3    H267658   0.544   5.909  14.404 -0.1554  0.2880 -0.3149
15415TIP3   OH267659   2.663   1.916  13.346 -0.1590  0.2575  0.0808
15415TIP3    H167660   2.627   1.961  13.269 -1.5398  0.6852  0.9288
15415TIP3    H267661   2.689   1.830  13.315  0.8405  0.9909 -1.1995
15416TIP3   OH267662   4.464   5.197   3.948 -0.5420  0.2927 -0.2277
15416TIP3    H167663   4.539   5.176   4.004 -0.9606  0.1167  0.2683
15416TIP3    H267664   4.447   5.115   3.900 -0.9272  0.0908  0.2537
15417TIP3   OH267665   1.267   2.070  10.861  0.6398  0.3127  0.2883
15417TIP3    H167666   1.203   2.037  10.799  1.4300  2.7460 -2.0450
15417TIP3    H267667   1.350   2.030  10.834  0.6753 -0.1358  1.0473
15418TIP3   OH267668   1.165   6.557   1.609  0.1347 -0.3877 -0.1369
15418TIP3    H167669   1.214   6.567   1.528 -0.1932  2.1990 -0.1017
15418TIP3    H267670   1.228   6.519   1.671  1.1966  0.1156 -0.8806
15419TIP3   OH267671   6.531   3.876   1.349 -0.0329  0.6479  0.5776
15419TIP3    H167672   6.625   3.868   1.335  0.0317 -1.1723  1.7717
15419TIP3    H267673   6.494   3.792   1.320 -1.1498  0.9165  1.1425
15420TIP3   OH267674   5.721   5.214   4.908 -0.1305 -0.0300 -0.5136
15420TIP3    H167675   5.652   5.274   4.936  1.2594  1.2007  0.4443
15420TIP3    H267676   5.716   5.215   4.812 -0.4758  1.2158 -0.5031
15421TIP3   OH267677   4.661   4.448  12.326  0.5395  0.1724 -0.6423
15421TIP3    H167678   4.651   4.543  12.336 -0.2234  0.1594 -1.2260
15421TIP3    H267679   4.720   4.439  12.251  1.0907  0.1872 -0.2149
15422TIP3   OH267680   0.368   1.856  15.082  0.4528  0.0415  0.4461
15422TIP3    H167681   0.340   1.939  15.120 -0.4782 -0.1240  0.1567
15422TIP3    H267682   0.294   1.828  15.029  0.9381 -0.7464  0.1620
15423TIP3   OH267683   5.052   3.058  13.979  0.5675  0.4655 -0.1946
15423TIP3    H167684   5.122   3.033  14.040  1.2694  0.8514 -0.8346
15423TIP3    H267685   5.061   2.997  13.906 -0.2640  0.0154  0.0552
15424TIP3   OH267686   2.531   6.034  13.469 -0.3780 -0.2315  0.0804
15424TIP3    H167687   2.564   6.091  13.399 -0.9456 -1.0402 -0.8696
15424TIP3    H267688   2.610   6.010  13.518 -0.3509  3.4012  2.1649
15425TIP3   OH267689   4.728   3.114  13.206  0.2905 -1.1624  0.2123
15425TIP3    H167690   4.674   3.038  13.228 -0.7971 -0.8301 -1.1696
15425TIP3    H267691   4.689   3.186  13.256 -1.0824 -0.7672 -1.3490
15426TIP3   OH267692   1.648   0.703   2.640  0.3936  0.2585 -0.1459
15426TIP3    H167693   1.728   0.693   2.589  0.4039 -1.9741  0.2085
15426TIP3    H267694   1.628   0.615   2.671 -2.6211  0.5787 -0.8566
15427TIP3   OH267695   6.093   2.104  13.560 -0.3243 -0.3868 -0.3238
15427TIP3    H167696   6.159   2.035  13.550  0.2031 -0.1962  1.5510
15427TIP3    H267697   6.051   2.109  13.474  1.4137 -1.2067 -1.2745
15428TIP3   OH267698   6.629   5.389  10.349 -0.0987  0.2538  0.2121
15428TIP3    H167699   6.553   5.439  10.317  1.3307  1.2813 -1.7772
15428TIP3    H267700   6.628   5.309  10.298  0.4928  0.5483 -0.2682
15429TIP3   OH267701   6.772   0.278  16.221 -0.0534  0.1148 -0.1297
15429TIP3    H167702   6.817   0.339  16.279  1.9122 -1.9006  0.6259
15429TIP3    H267703   6.683   0.271  16.256 -0.5094  2.7799 -0.5189
15430TIP3   OH267704   5.361   0.753  13.694  0.3778 -0.3718 -0.4882
15430TIP3    H167705   5.337   0.661  13.693  1.5645 -0.6918 -1.6957
15430TIP3    H267706   5.453   0.754  13.720  0.8840  0.3071 -2.1707
15431TIP3   OH267707   2.713   5.443   0.054  0.2602  0.5309  0.9674
15431TIP3    H167708   2.632   5.486   0.080 -0.8565  0.2805 -1.7311
15431TIP3    H267709   2.764   5.511   0.010  0.6470  0.2126  0.9124
15432TIP3   OH267710   0.364   5.094  16.631 -0.0574 -0.5028  0.1965
15432TIP3    H167711   0.391   5.147  16.555 -1.7138 -0.9784 -0.7763
15432TIP3    H267712   0.443   5.045  16.654  0.6109 -0.0276 -0.9531
15433TIP3   OH267713   2.077   3.846   2.796 -0.1746  0.2830 -0.5015
15433TIP3    H167714   1.985   3.857   2.821 -0.4037 -1.3224 -0.5550
15433TIP3    H267715   2.122   3.829   2.879  0.1766  1.5048 -0.4171
15434TIP3   OH267716   2.768   4.447  16.373  0.9081  0.4128 -0.3091
15434TIP3    H167717   2.720   4.406  16.301  0.1374 -1.7075  1.3232
15434TIP3    H267718   2.860   4.432  16.351  0.6834 -0.2309 -0.8433
15435TIP3   OH267719   6.554   6.680  14.257  0.1361  0.2678 -0.1219
15435TIP3    H167720   6.469   6.674  14.302 -0.8245  0.5478 -1.8381
15435TIP3    H267721   6.551   6.764  14.212  0.6626 -0.4295 -1.4864
15436TIP3   OH267722   0.060   0.566  15.009 -0.1350 -0.3694 -0.0713
15436TIP3    H167723  -0.015   0.508  15.002  0.1237 -0.7779  0.4618
15436TIP3    H267724   0.026   0.644  15.052  0.0373 -1.1320  1.5255
15437TIP3   OH267725   2.711   1.818   2.591  0.1449 -0.1167  1.3765
15437TIP3    H167726   2.773   1.823   2.519 -1.3808 -0.2936  0.0078
15437TIP3    H267727   2.717   1.904   2.633  0.7461  0.1395  0.7875
15438TIP3   OH267728   6.225   5.457   0.021  0.4215 -0.0623  0.2063
15438TIP3    H167729   6.221   5.525   0.088 -2.1557 -1.2577  1.4168
15438TIP3    H267730   6.188   5.497  -0.057  0.2111  0.3478  0.5127
15439TIP3   OH267731   4.760   0.418  14.498  0.1385 -0.3935 -0.2028
15439TIP3    H167732   4.796   0.331  14.514 -1.8280 -1.2665 -0.1940
15439TIP3    H267733   4.809   0.476  14.555 -1.5267 -2.2265  3.3880
15440TIP3   OH267734   5.440   2.000   5.489 -0.0325 -0.3002 -0.5190
15440TIP3    H167735   5.487   1.980   5.570  1.0350  0.0878 -1.0178
15440TIP3    H267736   5.357   1.955   5.497  1.7134 -3.9270 -1.0379
15441TIP3   OH267737   0.310   3.705   1.084 -0.4665  0.5137 -0.3565
15441TIP3    H167738   0.400   3.673   1.089 -0.6047  0.0893 -0.5452
15441TIP3    H267739   0.276   3.668   1.002 -0.9793  0.2296 -0.0200
15442TIP3   OH267740   0.748   4.500   5.731 -0.3889 -0.6813 -0.0118
15442TIP3    H167741   0.721   4.438   5.799 -0.1870  1.1884  1.8860
15442TIP3    H267742   0.666   4.529   5.692 -0.7288  0.1323  1.2446
15443TIP3   OH267743   3.423   3.772   3.655 -0.6013  0.3389 -0.1442
15443TIP3    H167744   3.383   3.795   3.740 -0.8735  1.3238 -0.5289
15443TIP3    H267745   3.413   3.677   3.650 -0.9259  0.3072  0.7605
15444TIP3   OH267746   3.158   0.114   1.686 -0.4427  0.4080  0.1580
15444TIP3    H167747   3.088   0.167   1.723  0.6305  1.6056  0.5487
15444TIP3    H267748   3.235   0.171   1.689  0.4554 -0.7220 -0.6447
15445TIP3   OH267749   2.418   1.811  11.306  0.0690  0.0614  0.0317
15445TIP3    H167750   2.416   1.852  11.220 -1.5615  1.1127  0.5210
15445TIP3    H267751   2.332   1.772  11.317  0.6355 -1.0450  0.7482
15446TIP3   OH267752   5.512   5.761  16.606 -0.3472  0.0647 -0.6584
15446TIP3    H167753   5.507   5.750  16.701 -1.4633  0.7334 -0.6189
15446TIP3    H267754   5.542   5.852  16.594 -2.0714  0.6423 -0.9102
15447TIP3   OH267755   2.393   5.754   2.344 -0.4457 -0.4035 -0.5385
15447TIP3    H167756   2.381   5.660   2.327  0.6719 -0.5713 -0.4701
15447TIP3    H267757   2.390   5.795   2.257  2.2748 -0.9078 -0.9544
15448TIP3   OH267758   6.579   1.648   2.973  0.5856 -0.3337  0.0996
15448TIP3    H167759   6.630   1.623   3.050  2.5913 -0.0563 -1.0428
15448TIP3    H267760   6.637   1.707   2.925 -1.1638  0.6279 -0.9253
15449TIP3   OH267761   0.698   1.556   5.709 -0.6318 -0.7482  0.5489
15449TIP3    H167762   0.682   1.534   5.801 -1.2447 -1.3794  0.3044
15449TIP3    H267763   0.779   1.606   5.710  0.8248 -2.9719  1.1811
15450TIP3   OH267764   1.457   2.565  17.012 -0.4303 -0.2279  0.2370
15450TIP3    H167765   1.468   2.569  16.917  1.6978 -0.6826  0.4190
15450TIP3    H267766   1.485   2.476  17.036  0.4790  0.3498  1.4301
15451TIP3   OH267767   5.691   6.349   5.585  0.0980 -0.3942 -0.6177
15451TIP3    H167768   5.760   6.318   5.527  1.2193  0.8776 -0.0221
15451TIP3    H267769   5.725   6.337   5.673 -0.9118 -0.7899 -0.2696
15452TIP3   OH267770   6.295   6.715  14.379 -0.8270 -0.2847  0.1393
15452TIP3    H167771   6.210   6.759  14.377 -1.3233 -1.2584 -0.7881
15452TIP3    H267772   6.301   6.678  14.467 -1.3478 -0.1695  0.2258
15453TIP3   OH267773   4.960   2.362  12.078  0.4699 -0.3876 -0.0965
15453TIP3    H167774   4.867   2.358  12.056  0.5710 -1.7932 -0.3251
15453TIP3    H267775   4.963   2.349  12.173  0.3677  1.0142  0.1304
15454TIP3   OH267776   5.571   4.534  15.064  0.2247 -0.2254  0.1075
15454TIP3    H167777   5.608   4.571  15.144 -0.6594 -0.9352  0.8634
15454TIP3    H267778   5.492   4.586  15.048 -0.0232 -0.5899  0.1414
15455TIP3   OH267779   2.016   3.679   0.022  0.0170  0.4819 -0.3068
15455TIP3    H167780   2.060   3.711  -0.056 -1.6192 -0.3859 -1.6347
15455TIP3    H267781   1.923   3.699   0.008 -0.1395  1.9191  2.2282
15456TIP3   OH267782   3.073   1.515   4.995 -0.6702 -0.5641 -0.3394
15456TIP3    H167783   2.989   1.480   5.025 -0.2512 -2.1868 -0.9474
15456TIP3    H267784   3.101   1.573   5.065 -1.5640 -1.2085  0.5856
15457TIP3   OH267785   1.012   0.991   2.192 -0.1942  0.3589 -0.0843
15457TIP3    H167786   0.962   1.072   2.183 -1.2747 -0.2069  0.6839
15457TIP3    H267787   0.984   0.937   2.118  0.3097  0.5569 -0.4286
15458TIP3   OH267788   2.504   1.446   0.603 -0.1405 -0.3179 -0.0572
15458TIP3    H167789   2.417   1.465   0.639 -0.3048  1.0521 -1.1037
15458TIP3    H267790   2.561   1.442   0.679 -0.7610  0.8937  0.4933
15459TIP3   OH267791   2.152   0.531   6.570 -0.3582  0.2496  0.0109
15459TIP3    H167792   2.082   0.528   6.636 -1.0893  1.0363 -0.6913
15459TIP3    H267793   2.109   0.506   6.488  0.5393 -0.7226 -0.1808
15460TIP3   OH267794   6.472   6.158  14.241 -0.2672  0.3230 -0.1344
15460TIP3    H167795   6.419   6.178  14.164  1.8820  0.8443 -1.5488
15460TIP3    H267796   6.408   6.137  14.309 -2.2415 -0.6129 -2.1548
15461TIP3   OH267797   2.797   5.720  14.305 -0.4788  0.7539  0.1031
15461TIP3    H167798   2.782   5.650  14.241  0.0469 -1.1482  1.9373
15461TIP3    H267799   2.882   5.757  14.280  1.6392 -2.5057  1.6898
15462TIP3   OH267800   5.113   3.345  14.513  0.0805 -0.2101  0.2221
15462TIP3    H167801   5.063   3.365  14.593  1.2289  0.5229  0.7881
15462TIP3    H267802   5.168   3.270  14.538  0.1491 -0.2346 -0.0066
15463TIP3   OH267803   1.928   4.837  14.087 -0.4568  0.6715  0.6361
15463TIP3    H167804   1.924   4.896  14.011  2.5689 -1.1804 -1.1617
15463TIP3    H267805   1.997   4.873  14.142  0.3645 -0.3370  0.2853
15464TIP3   OH267806   0.507   2.072  14.140  0.6000 -0.2716 -0.0440
15464TIP3    H167807   0.484   2.003  14.202  1.7417 -0.4523  0.1943
15464TIP3    H267808   0.555   2.136  14.192  0.1136  0.3930 -0.3986
15465TIP3   OH267809   1.723   4.628  15.905  0.3740  0.0927  0.7370
15465TIP3    H167810   1.638   4.584  15.900  0.8981 -1.1200  1.9341
15465TIP3    H267811   1.787   4.558  15.907  1.3092  0.9288  1.5347
15466TIP3   OH267812   1.394   3.696  16.627  0.1656  0.0390 -0.5470
15466TIP3    H167813   1.300   3.698  16.611 -0.0349  0.2867  0.5673
15466TIP3    H267814   1.431   3.655  16.549 -0.9012 -0.4449 -0.8132
15467TIP3   OH267815   4.918   6.578   4.316 -0.1368  0.0941 -0.1855
15467TIP3    H167816   4.990   6.622   4.361 -1.4998  2.7991 -0.4702
15467TIP3    H267817   4.959   6.501   4.276  2.3766  0.9866  0.4615
15468TIP3   OH267818   1.376   5.236  11.373  0.1011 -0.2958 -0.0294
15468TIP3    H167819   1.455   5.254  11.323 -0.0260  0.0283 -0.1189
15468TIP3    H267820   1.316   5.307  11.349  0.6856  0.9882  2.0197
15469TIP3   OH267821   6.203   0.888  10.490  0.5096 -0.2794  0.5103
15469TIP3    H167822   6.156   0.851  10.565  1.0226 -1.0490  0.4662
15469TIP3    H267823   6.204   0.818  10.426 -0.4669  0.5849 -0.4797
15470TIP3   OH267824   1.140   2.340  17.048  0.0415 -0.4741  0.1219
15470TIP3    H167825   1.158   2.433  17.064 -0.1211 -0.3932 -0.1712
15470TIP3    H267826   1.051   2.339  17.012 -0.4110 -0.8376  1.2060
15471TIP3   OH267827   0.218   5.270   5.549 -0.2648 -0.1572  0.1379
15471TIP3    H167828   0.235   5.286   5.457 -1.0889  0.3830  0.0693
15471TIP3    H267829   0.128   5.236   5.551  0.6503 -2.8192  0.4848
15472TIP3   OH267830   6.221   3.288   4.590 -0.2799 -0.1788  0.2428
15472TIP3    H167831   6.170   3.293   4.671 -1.2170  2.5751 -0.3785
15472TIP3    H267832   6.292   3.352   4.603  0.2398 -0.5549 -0.6812
15473TIP3   OH267833   2.619   0.966  11.497  0.8237 -0.0518  0.0455
15473TIP3    H167834   2.700   0.929  11.462  0.5342 -1.6502  1.0005
15473TIP3    H267835   2.550   0.908  11.465 -0.0589  1.5750 -1.1876
15474TIP3   OH267836   5.463   6.665  16.061  0.2333  0.0550 -0.1602
15474TIP3    H167837   5.533   6.721  16.097  0.4455  0.4831 -1.1910
15474TIP3    H267838   5.382   6.704  16.094  0.3946  0.8199 -0.6292
15475TIP3   OH267839   0.579   1.803  16.226 -0.1447 -0.1724 -0.0200
15475TIP3    H167840   0.532   1.722  16.205 -0.9393 -0.0355  1.1327
15475TIP3    H267841   0.538   1.869  16.170  0.3779 -0.5211 -0.8270
15476TIP3   OH267842   2.876   5.905   3.231 -0.1642 -0.0103 -0.0837
15476TIP3    H167843   2.965   5.916   3.264 -0.0247  0.5304 -0.6345
15476TIP3    H267844   2.887   5.889   3.137 -0.6486  0.1265 -0.1654
15477TIP3   OH267845   2.439   1.214   2.011 -0.9001  0.4978  0.3171
15477TIP3    H167846   2.355   1.260   2.023 -0.8145  0.5207  0.8632
15477TIP3    H267847   2.492   1.275   1.960 -1.5861  0.0288 -1.0181
15478TIP3   OH267848   3.436   4.654  15.829 -0.3938  0.4241 -0.1645
15478TIP3    H167849   3.370   4.616  15.770  0.0635  0.5540 -0.7690
15478TIP3    H267850   3.415   4.617  15.915 -2.4031  1.8565  0.0494
15479TIP3   OH267851   4.929   0.158   6.473 -0.0951  0.1275 -0.3709
15479TIP3    H167852   4.889   0.084   6.427  0.2954 -0.3285  0.0176
15479TIP3    H267853   4.902   0.148   6.564  2.3010 -1.1897  0.2511
15480TIP3   OH267854   4.933   5.776   0.054  0.1030  0.4461 -0.1116
15480TIP3    H167855   4.851   5.765   0.006 -1.1435  2.6698  1.3523
15480TIP3    H267856   4.932   5.707   0.120  1.7983 -2.6034 -2.9301
15481TIP3   OH267857   4.315   6.526   2.489  0.4282 -0.2169 -0.4244
15481TIP3    H167858   4.231   6.530   2.534  0.7991  0.5516  0.2249
15481TIP3    H267859   4.300   6.467   2.415 -0.5227 -0.5311  0.0057
15482TIP3   OH267860   6.747   4.409   5.873 -0.3708  0.4243  0.0440
15482TIP3    H167861   6.677   4.461   5.834 -2.0804 -1.9287 -0.1987
15482TIP3    H267862   6.731   4.413   5.967 -0.2882  0.6064  0.0506
15483TIP3   OH267863   5.817   1.745  16.098 -0.4005  0.4212 -0.1691
15483TIP3    H167864   5.733   1.726  16.057 -0.1241  0.8488 -0.9483
15483TIP3    H267865   5.797   1.805  16.170 -0.6479  1.3045 -0.9622
15484TIP3   OH267866   0.947   0.171  13.996  0.0098 -0.0384 -0.0673
15484TIP3    H167867   0.874   0.138  13.944  0.4051 -1.5651  0.2643
15484TIP3    H267868   0.935   0.266  13.998 -0.4352 -0.0117 -2.2577
15485TIP3   OH267869   2.833   1.394   1.260  0.4653  0.3608  0.1043
15485TIP3    H167870   2.918   1.377   1.300  0.6962  0.7002 -0.2288
15485TIP3    H267871   2.822   1.325   1.196  0.4947  0.3208  0.1425
15486TIP3   OH267872   2.279   4.937  15.448 -0.2760 -0.2569  0.4483
15486TIP3    H167873   2.363   4.975  15.474 -1.0092  1.3943  0.5338
15486TIP3    H267874   2.301   4.847  15.421  1.5617  0.2484  0.0851
15487TIP3   OH267875   1.333   1.238   0.945 -0.4320 -0.5089  0.1790
15487TIP3    H167876   1.424   1.212   0.938  0.3456  1.3470  2.1725
15487TIP3    H267877   1.309   1.219   1.035 -1.1367  1.4145  0.4585
15488TIP3   OH267878   3.618   4.970  16.555 -0.9172 -0.3394  0.5086
15488TIP3    H167879   3.540   4.961  16.609 -1.4849 -4.5193 -0.6520
15488TIP3    H267880   3.589   4.949  16.467  1.1429  0.1682 -0.3566
15489TIP3   OH267881   2.194   2.500   2.216 -0.6172  0.5899 -0.9617
15489TIP3    H167882   2.185   2.427   2.154 -1.1548 -0.0532 -0.1577
15489TIP3    H267883   2.237   2.461   2.292 -0.8771  1.1245 -0.5378
15490TIP3   OH267884   0.446   3.392   3.727  0.0902 -0.5669  0.1527
15490TIP3    H167885   0.364   3.342   3.727  0.0890 -0.6150 -1.6185
15490TIP3    H267886   0.479   3.384   3.638  1.8809 -0.2725  0.7507
15491TIP3   OH267887   0.758   1.165   2.161 -0.1450  0.1041  0.3915
15491TIP3    H167888   0.673   1.138   2.197 -1.4681  3.5999  0.2843
15491TIP3    H267889   0.738   1.198   2.074  1.9287 -1.8518 -0.9367
15492TIP3   OH267890   4.373   6.382  12.911 -0.0126 -0.3964 -0.4262
15492TIP3    H167891   4.365   6.426  12.996  1.0725 -0.8674 -0.0543
15492TIP3    H267892   4.341   6.293  12.928  1.7469 -0.9976 -0.0424
15493TIP3   OH267893   6.530   2.493  14.632 -0.2599  0.0812 -0.0454
15493TIP3    H167894   6.620   2.466  14.650 -0.3037  0.3908  0.6922
15493TIP3    H267895   6.489   2.500  14.719 -1.5582 -1.9627 -0.4245
15494TIP3   OH267896   5.748   2.804   6.250 -0.1999  0.2846 -0.2313
15494TIP3    H167897   5.811   2.772   6.185 -0.1101  0.1787 -0.0908
15494TIP3    H267898   5.663   2.793   6.207 -0.2755 -1.1539  0.2082
15495TIP3   OH267899   2.988   0.691   2.552  0.1724  0.0602 -0.0949
15495TIP3    H167900   2.979   0.783   2.527  0.3109  0.8652  2.4882
15495TIP3    H267901   2.900   0.654   2.542 -0.7382  1.4447  2.0913
15496TIP3   OH267902   0.443   0.029   5.800 -0.1013 -0.1932  0.0608
15496TIP3    H167903   0.537   0.037   5.785 -0.0799 -1.2845 -0.4937
15496TIP3    H267904   0.432   0.040   5.894  0.6489 -0.5711  0.1957
15497TIP3   OH267905   3.063   5.507   3.924  0.2850 -0.6300  0.0287
15497TIP3    H167906   3.001   5.522   3.996  1.4788 -0.6899  1.1212
15497TIP3    H267907   3.142   5.556   3.950  0.1975  0.7307 -2.0634
15498TIP3   OH267908   3.014   3.158   0.583  0.3422  0.4395 -0.1494
15498TIP3    H167909   2.976   3.113   0.508  1.2642  1.7063 -1.4482
15498TIP3    H267910   3.108   3.159   0.565  0.4358  2.0733  0.2478
15499TIP3   OH267911   6.140   0.104   2.771 -0.1941 -0.1972  0.0233
15499TIP3    H167912   6.176   0.063   2.849  0.8465 -0.0930 -0.3852
15499TIP3    H267913   6.196   0.180   2.755 -1.1502  0.4859 -0.1207
15500TIP3   OH267914   1.717   3.219   1.393  0.0669 -0.0769 -0.0324
15500TIP3    H167915   1.707   3.138   1.442  1.6203 -0.5992 -0.5134
15500TIP3    H267916   1.693   3.288   1.454  0.1262 -0.8248  0.8507
15501TIP3   OH267917   3.362   6.333   5.152  0.1458 -0.3719  0.0014
15501TIP3    H167918   3.295   6.338   5.220  1.4100 -0.6223  1.3085
15501TIP3    H267919   3.375   6.240   5.136 -0.1584 -0.3154 -0.6102
15502TIP3   OH267920   5.612   2.476   1.136 -0.2693  0.4677  0.3712
15502TIP3    H167921   5.692   2.502   1.089 -0.4421  0.5626  0.1304
15502TIP3    H267922   5.582   2.398   1.090  0.4479 -0.3877  1.3143
15503TIP3   OH267923   0.044   3.749  11.714  0.2781  0.2364  0.1771
15503TIP3    H167924   0.043   3.654  11.725 -0.7179  0.2308  0.1267
15503TIP3    H267925   0.127   3.767  11.670 -0.2036 -0.8045 -1.2656
15504TIP3   OH267926   1.038   1.894  13.661  0.5321  0.8632  0.3588
15504TIP3    H167927   1.040   1.811  13.707 -1.0923  0.7570  0.2850
15504TIP3    H267928   1.099   1.950  13.709  2.2051 -0.5553 -0.0226
15505TIP3   OH267929   0.007   5.563  11.631 -0.1115 -0.2792  0.2389
15505TIP3    H167930   0.024   5.615  11.552  1.2060  1.2895  1.4978
15505TIP3    H267931   0.041   5.616  11.703 -1.3866 -1.6084  1.9081
15506TIP3   OH267932   3.028   3.247   4.029 -0.2759  0.3593  0.1299
15506TIP3    H167933   2.940   3.286   4.026 -0.5728 -0.3360 -1.7127
15506TIP3    H267934   3.064   3.264   3.942  0.9282 -0.4648  0.4477
15507TIP3   OH267935   2.306   3.872   3.201  0.3648  0.0384 -0.2328
15507TIP3    H167936   2.385   3.830   3.236  1.5622  0.1871 -2.5113
15507TIP3    H267937   2.276   3.811   3.133 -2.2311 -0.5860  1.3563
15508TIP3   OH267938   6.340   2.234   5.335  0.4727 -0.1476 -0.1584
15508TIP3    H167939   6.341   2.271   5.247 -0.7826 -1.6449 -0.8429
15508TIP3    H267940   6.255   2.189   5.341  0.8530 -0.6932  1.5492
15509TIP3   OH267941   1.723   6.783  15.675  0.4403 -0.7919  0.2314
15509TIP3    H167942   1.726   6.811  15.766  2.1324  0.4667 -0.1533
15509TIP3    H267943   1.634   6.749  15.663 -1.3637  3.0299  1.2116
15510TIP3   OH267944   4.748   2.840   4.536 -0.0409  0.3568 -0.3541
15510TIP3    H167945   4.829   2.833   4.484  1.0143  2.3520  0.8994
15510TIP3    H267946   4.688   2.889   4.481  0.3694  0.7346 -0.4705
15511TIP3   OH267947   2.690   1.570  13.295 -0.1806  0.0340 -0.1584
15511TIP3    H167948   2.717   1.481  13.274 -0.8098  0.4917 -3.4480
15511TIP3    H267949   2.770   1.613  13.327  0.4278 -1.3225  0.2061
15512TIP3   OH267950   1.072   5.221  12.532  1.0275 -0.1761  0.0094
15512TIP3    H167951   1.039   5.142  12.490  0.0459  0.6155 -0.7650
15512TIP3    H267952   1.018   5.231  12.610  0.4151  0.3020 -0.4647
15513TIP3   OH267953   1.606   6.674   3.984  0.0556 -0.6604  0.0775
15513TIP3    H167954   1.610   6.749   4.043 -1.6597 -0.6617  0.2396
15513TIP3    H267955   1.607   6.712   3.896  0.8643 -0.5583  0.1253
15514TIP3   OH267956   0.838   2.113  12.872  0.0255 -0.0943  0.2408
15514TIP3    H167957   0.872   2.110  12.783  1.6172  0.7274  0.7779
15514TIP3    H267958   0.767   2.177  12.869 -1.4980 -1.7615 -0.8885
15515TIP3   OH267959   6.280   4.742  13.703  0.3296  0.4174 -0.2560
15515TIP3    H167960   6.184   4.738  13.698  0.3475 -0.1108 -0.2465
15515TIP3    H267961   6.298   4.822  13.753 -0.0459  1.6961 -2.0714
15516TIP3   OH267962   4.811   5.713   1.223 -0.0687 -0.1450 -0.5430
15516TIP3    H167963   4.751   5.679   1.289  0.8853  1.0713  1.0038
15516TIP3    H267964   4.857   5.635   1.190 -0.0233 -0.6944  0.7791
15517TIP3   OH267965   5.776   2.934   0.570  0.2407  0.1455 -0.1601
15517TIP3    H167966   5.824   3.004   0.526 -0.5541 -0.2639 -1.7650
15517TIP3    H267967   5.834   2.858   0.565  1.7602  0.9222  2.9035
15518TIP3   OH267968   3.685   0.912   4.949 -0.5420  0.5912 -0.1275
15518TIP3    H167969   3.673   0.893   4.856 -1.0072 -1.1775  0.2500
15518TIP3    H267970   3.662   1.004   4.958 -2.3087  0.3446 -1.4782
15519TIP3   OH267971   6.144   4.079   3.272 -0.7634 -0.8067 -0.2763
15519TIP3    H167972   6.235   4.093   3.247 -0.8898 -1.2335 -1.0002
15519TIP3    H267973   6.131   3.985   3.265 -0.9856 -0.8688  0.8065
15520TIP3   OH267974   0.370   0.779   3.446  0.3820 -0.4792 -0.1087
15520TIP3    H167975   0.289   0.768   3.395 -0.1665 -1.3757  0.9214
15520TIP3    H267976   0.363   0.867   3.483 -1.0131 -1.1671  1.4172
15521TIP3   OH267977   1.282   4.730  12.881  0.4065 -0.1743  0.0539
15521TIP3    H167978   1.238   4.798  12.932 -1.6183 -0.7576 -0.8187
15521TIP3    H267979   1.252   4.648  12.920  1.9338 -0.6074  0.3727
15522TIP3   OH267980   2.157   3.752  16.252 -0.3966  0.8040 -0.1506
15522TIP3    H167981   2.248   3.731  16.270  0.1144  3.0541  0.2675
15522TIP3    H267982   2.132   3.813  16.322 -2.3000  0.1164 -0.1510
15523TIP3   OH267983   2.290   1.777   5.693  0.0997  0.7198 -0.5163
15523TIP3    H167984   2.333   1.838   5.751 -2.0098  1.6553  0.1814
15523TIP3    H267985   2.242   1.717   5.751 -0.3399  0.3377 -1.2505
15524TIP3   OH267986   6.074   3.756  14.055 -0.7736 -0.5037  0.1838
15524TIP3    H167987   6.142   3.765  14.122  1.2104 -0.7635 -1.6903
15524TIP3    H267988   6.089   3.669  14.018 -0.9762  0.1306 -1.4510
15525TIP3   OH267989   1.882   5.780   5.580 -0.1421 -0.2790  0.0186
15525TIP3    H167990   1.826   5.796   5.657 -1.7388 -0.6418 -1.0230
15525TIP3    H267991   1.891   5.685   5.577  0.6170 -0.2233  0.1999
15526TIP3   OH267992   2.573   3.912   4.849  0.0780 -0.2618 -0.2018
15526TIP3    H167993   2.637   3.983   4.840 -1.1891  0.8231 -1.2452
15526TIP3    H267994   2.490   3.958   4.862 -0.3268 -1.6394  2.6803
15527TIP3   OH267995   0.009   4.404  16.154 -0.0284 -0.5083  0.3813
15527TIP3    H167996   0.103   4.393  16.139  0.5199  3.1452  0.1485
15527TIP3    H267997  -0.033   4.357  16.082  1.6835 -0.8557 -0.4395
15528TIP3   OH267998   1.198   4.067  16.731  0.0236  0.2196  0.4682
15528TIP3    H167999   1.257   3.995  16.708 -0.3239 -0.6677  2.1800
15528TIP3    H268000   1.123   4.055  16.673  0.2806 -0.3870  0.2462
15529TIP3   OH268001   5.868   3.358   0.827  0.4129 -0.5301 -0.7836
15529TIP3    H168002   5.919   3.429   0.788 -0.5671  0.9862  0.5401
15529TIP3    H268003   5.839   3.394   0.911  2.8251 -3.7317  1.6552
15530TIP3   OH268004   6.544   6.243   2.576 -0.1415 -0.2855 -0.5028
15530TIP3    H168005   6.547   6.268   2.483  1.5337  1.1347 -0.1158
15530TIP3    H268006   6.623   6.281   2.614 -0.1224 -1.9204  1.2709
15531TIP3   OH268007   4.731   2.752  12.059  0.0912 -0.3833 -0.2115
15531TIP3    H168008   4.728   2.845  12.081 -1.4583 -0.7977  1.5238
15531TIP3    H268009   4.824   2.729  12.069  0.3710  0.7852  0.0683
15532TIP3   OH268010   2.346   4.138  12.279  0.2865 -0.1509 -0.3865
15532TIP3    H168011   2.289   4.061  12.276  0.9590 -0.6845  0.0931
15532TIP3    H268012   2.402   4.122  12.355  0.3750  0.8633 -0.2296
15533TIP3   OH268013   2.194   0.587   0.263 -0.5584  0.2908  0.3545
15533TIP3    H168014   2.160   0.674   0.240  0.9125  0.7404 -0.2378
15533TIP3    H268015   2.186   0.583   0.358 -0.8910  0.9664  0.3671
15534TIP3   OH268016   5.086   2.022   6.036 -0.1760 -0.2031 -0.8158
15534TIP3    H168017   5.013   2.071   6.073  1.1560  0.7282  0.7140
15534TIP3    H268018   5.103   1.953   6.100  0.8717  0.1845 -0.6537
15535TIP3   OH268019   2.291   3.143   1.243  0.2928 -0.5324  0.1125
15535TIP3    H168020   2.262   3.052   1.251 -1.7797  0.1178  0.7063
15535TIP3    H268021   2.233   3.192   1.301 -0.4579  1.5526 -2.2222
15536TIP3   OH268022   4.162   6.396  11.862  0.1213  0.3959 -0.1601
15536TIP3    H168023   4.158   6.303  11.884  1.5373 -0.0689 -1.6705
15536TIP3    H268024   4.096   6.437  11.918 -0.3932 -1.4795  0.6752
15537TIP3   OH268025   2.424   0.212  11.562  0.3055 -0.4024  0.6295
15537TIP3    H168026   2.517   0.191  11.571  0.2379  0.0503  2.9876
15537TIP3    H268027   2.399   0.248  11.647 -1.9143 -0.0072 -0.1250
15538TIP3   OH268028   0.612   6.158  12.958 -0.2499 -0.0767 -0.1646
15538TIP3    H168029   0.571   6.219  13.020  0.6741 -0.3269  0.7176
15538TIP3    H268030   0.626   6.210  12.879  0.9719  1.0312  0.7366
15539TIP3   OH268031   4.541   3.884  15.117 -0.1239  0.3100  0.1809
15539TIP3    H168032   4.476   3.946  15.152  0.0518  0.7686 -0.2985
15539TIP3    H268033   4.520   3.801  15.161 -0.9781  0.4682  0.1057
15540TIP3   OH268034   0.124   0.556  15.961  0.3160 -0.3468  0.1767
15540TIP3    H168035   0.163   0.603  15.887  1.3098 -1.0557  0.2373
15540TIP3    H268036   0.174   0.475  15.967 -1.2906 -1.3918  0.1376
15541TIP3   OH268037   4.776   2.972  14.174 -0.2011  0.0549  0.3205
15541TIP3    H168038   4.681   2.966  14.181 -0.1173 -1.2531  0.7157
15541TIP3    H268039   4.793   3.059  14.138 -1.5100  0.5581  0.8737
15542TIP3   OH268040   3.334   0.987  15.840 -0.1958 -0.2915 -0.1514
15542TIP3    H168041   3.299   0.911  15.887  1.4879  0.2671  2.2036
15542TIP3    H268042   3.429   0.982  15.855  0.0432  1.7768 -0.7201
15543TIP3   OH268043   5.186   0.732   5.797  0.2175 -0.3356 -0.0617
15543TIP3    H168044   5.163   0.791   5.869 -1.4132 -0.9269 -0.0606
15543TIP3    H268045   5.135   0.764   5.723 -0.9620 -1.8854  0.0280
15544TIP3   OH268046   1.656   6.405  16.932  0.6312 -0.3173 -0.2734
15544TIP3    H168047   1.635   6.346  16.859  0.7729  1.5854 -1.9222
15544TIP3    H268048   1.745   6.436  16.914  0.7650  0.0163  0.8578
15545TIP3   OH268049   5.825   6.050  10.222 -0.5862 -0.6060  0.1631
15545TIP3    H168050   5.786   6.084  10.302 -0.9031 -0.2329 -0.1479
15545TIP3    H268051   5.849   5.960  10.243  0.0144 -0.2804  0.9127
15546TIP3   OH268052   3.872   6.437   0.182 -1.0107 -0.2842 -0.4469
15546TIP3    H168053   3.962   6.416   0.157 -0.7836  1.0930 -0.9144
15546TIP3    H268054   3.875   6.444   0.278 -0.0967  1.7043 -0.5528
15547TIP3   OH268055   5.350   6.491   1.164 -0.0506  0.1819 -0.1474
15547TIP3    H168056   5.424   6.530   1.211  0.8127 -0.7490 -0.7063
15547TIP3    H268057   5.386   6.413   1.122 -1.6607 -1.0707  0.6932
15548TIP3   OH268058   5.419   6.027  16.541  0.0770  0.0608 -0.1493
15548TIP3    H168059   5.438   6.045  16.633 -0.5000  1.7197 -0.3306
15548TIP3    H268060   5.409   6.113  16.501  1.4312 -0.5810 -2.0342
15549TIP3   OH268061   1.280   3.720   5.685 -0.3930 -0.1221  0.3391
15549TIP3    H168062   1.217   3.667   5.635  0.4052 -0.1831 -0.6439
15549TIP3    H268063   1.281   3.680   5.772 -1.4412 -0.3367  0.2691
15550TIP3   OH268064   6.015   3.772  16.574  0.1828 -0.0277 -0.4606
15550TIP3    H168065   6.105   3.802  16.588 -0.1101  0.3177  0.8967
15550TIP3    H268066   5.962   3.832  16.625 -0.6538 -1.2703  0.1939
15551TIP3   OH268067   3.459   0.294   4.315 -0.0048  0.4786  0.1933
15551TIP3    H168068   3.413   0.326   4.237 -0.4299 -2.7003 -0.9903
15551TIP3    H268069   3.543   0.263   4.282 -1.1102 -3.1516  0.4119
15552TIP3   OH268070   1.941   0.926  13.797 -0.2902  0.1936 -0.1108
15552TIP3    H168071   1.950   0.991  13.866  0.7638  0.1322 -0.1788
15552TIP3    H268072   2.027   0.922  13.756 -0.5455 -0.7070 -0.5883
15553TIP3   OH268073   1.169   0.491  14.393 -0.0632  0.3703  0.3677
15553TIP3    H168074   1.254   0.535  14.393  0.1358 -0.0056  0.2953
15553TIP3    H268075   1.176   0.427  14.322 -0.3315  0.1982  0.4973
15554TIP3   OH268076   4.341   0.170  11.222 -0.5165  0.2557 -0.0055
15554TIP3    H168077   4.301   0.093  11.262  0.2948  0.0096  0.3498
15554TIP3    H268078   4.312   0.168  11.131  2.0502 -2.3025 -0.9022
15555TIP3   OH268079   5.774   1.474   4.483  0.8243  0.2795 -0.1260
15555TIP3    H168080   5.772   1.390   4.528 -0.3497  0.2577 -0.2027
15555TIP3    H268081   5.729   1.534   4.543 -1.8352  0.0169 -1.6921
15556TIP3   OH268082   1.904   0.407  12.890 -0.6708  0.3126  0.0346
15556TIP3    H168083   1.942   0.388  12.803  0.2409 -2.0687  0.8582
15556TIP3    H268084   1.975   0.450  12.938  0.4615 -2.3899  0.9504
15557TIP3   OH268085   1.259   0.183   5.118 -0.4137  0.1152  0.2881
15557TIP3    H168086   1.261   0.241   5.194  1.2186  2.3347 -1.3041
15557TIP3    H268087   1.173   0.199   5.077 -0.4998  0.4039  0.5821
15558TIP3   OH268088   2.358   2.872  13.090  0.3681 -0.0799  0.3411
15558TIP3    H168089   2.451   2.896  13.093  0.5727 -0.7208 -0.4426
15558TIP3    H268090   2.349   2.805  13.157  0.1868  0.8562  1.2802
15559TIP3   OH268091   2.641   3.482  13.296  0.1709 -0.0544  0.1531
15559TIP3    H168092   2.582   3.411  13.320 -0.4897  0.1237 -0.9062
15559TIP3    H268093   2.688   3.450  13.219  0.8508  0.1311  0.4818
15560TIP3   OH268094   2.610   6.624  16.428 -0.2911  0.3987 -0.3408
15560TIP3    H168095   2.682   6.562  16.413 -1.4961 -0.9108 -1.0690
15560TIP3    H268096   2.612   6.641  16.522 -0.5121 -1.5629  0.0619
15561TIP3   OH268097   4.778   4.863  15.702  0.2933  0.3652  0.3723
15561TIP3    H168098   4.719   4.791  15.678  0.7467  0.6360 -1.7173
15561TIP3    H268099   4.722   4.940  15.701  0.4375  0.4622 -0.4634
15562TIP3   OH268100   6.136   0.045  13.124 -0.1407  0.2411  0.4538
15562TIP3    H168101   6.053   0.084  13.097  0.0204  1.4639  1.6366
15562TIP3    H268102   6.171   0.106  13.189  1.6403 -0.2940  0.0512
15563TIP3   OH268103   0.540   2.868  15.770 -0.3197  0.0304 -0.9073
15563TIP3    H168104   0.521   2.813  15.694  0.6782 -1.2164 -0.2877
15563TIP3    H268105   0.580   2.946  15.732  1.4315 -1.1492 -1.6169
15564TIP3   OH268106   2.232   3.157  13.306 -0.0992  0.8055 -0.0374
15564TIP3    H168107   2.223   3.131  13.215 -0.7915 -0.7330  0.4360
15564TIP3    H268108   2.163   3.223  13.320 -0.6476  0.3058 -0.3698
15565TIP3   OH268109   2.493   1.768   2.721 -0.5399 -0.1480  0.0263
15565TIP3    H168110   2.520   1.830   2.788 -0.5116  0.6735 -0.7315
15565TIP3    H268111   2.571   1.753   2.668 -0.7981 -0.0680 -0.3828
15566TIP3   OH268112   2.914   1.957  13.806  0.4267  0.4672 -0.9977
15566TIP3    H168113   2.944   2.015  13.876 -0.7925  0.1194 -0.1427
15566TIP3    H268114   2.916   1.870  13.845 -0.7641  0.3301 -1.1907
15567TIP3   OH268115   6.317   6.597  14.629 -0.4615  0.1295  0.3091
15567TIP3    H168116   6.308   6.647  14.710 -1.1178 -0.3313  0.5242
15567TIP3    H268117   6.378   6.527  14.650  0.2793  0.6899  0.0711
15568TIP3   OH268118   0.494   0.355   5.261  0.2253  0.7785 -0.2058
15568TIP3    H168119   0.563   0.324   5.320 -0.0235 -0.5272 -0.5709
15568TIP3    H268120   0.535   0.355   5.175 -0.7696 -2.0692 -0.7730
15569TIP3   OH268121   1.970   5.640   5.915 -0.3056  0.2889 -0.1937
15569TIP3    H168122   1.941   5.732   5.916  0.7127  0.6807 -2.2961
15569TIP3    H268123   2.026   5.632   5.992 -1.7111  0.9324  0.9597
15570TIP3   OH268124   2.981   1.481   6.715  0.2737 -0.4444 -0.2042
15570TIP3    H168125   3.027   1.563   6.734  0.3513 -0.7420  0.9443
15570TIP3    H268126   2.999   1.465   6.622 -2.1954  2.3620 -1.3116
15571TIP3   OH268127   0.474   5.782  14.940 -0.4030 -0.3752 -0.2769
15571TIP3    H168128   0.543   5.819  14.884  0.4993 -1.3241  0.1705
15571TIP3    H268129   0.517   5.770  15.025 -1.7161  0.9114  0.6215
15572TIP3   OH268130   4.031   6.026   6.102  0.5128  0.4642 -0.1693
15572TIP3    H168131   4.075   6.055   6.022 -1.5224 -0.0479 -1.5473
15572TIP3    H268132   4.076   5.945   6.127  0.9244  0.4247 -1.0134
15573TIP3   OH268133   3.880   2.310  16.661  0.1499 -0.5446  0.9099
15573TIP3    H168134   3.865   2.237  16.601  1.5987 -1.0695  1.1423
15573TIP3    H268135   3.796   2.323  16.705 -0.7946 -0.5031 -0.8281
15574TIP3   OH268136   2.627   3.833   3.066 -0.1098 -0.0364  0.0163
15574TIP3    H168137   2.626   3.820   3.161 -1.0303 -1.7206 -0.2038
15574TIP3    H268138   2.720   3.834   3.043  0.0945 -0.7032  0.7926
15575TIP3   OH268139   4.450   3.460   4.491  0.5709 -0.1262  0.4546
15575TIP3    H168140   4.506   3.538   4.483  2.1416 -1.1956  0.6597
15575TIP3    H268141   4.419   3.444   4.402  0.2741  0.6976  0.4000
15576TIP3   OH268142   2.308   4.525   2.534  0.2576  0.1861  0.3172
15576TIP3    H168143   2.379   4.461   2.547 -1.0831 -1.3276  0.4829
15576TIP3    H268144   2.347   4.593   2.479  1.2627 -1.6950 -1.4355
15577TIP3   OH268145   5.727   5.731  11.345 -0.0711  0.0803  0.2785
15577TIP3    H168146   5.663   5.763  11.409  1.3227  1.1661  1.1953
15577TIP3    H268147   5.678   5.724  11.264 -1.7561 -0.7885  1.3132
15578TIP3   OH268148   5.655   5.876  12.120 -0.1879  0.0903 -0.3026
15578TIP3    H168149   5.628   5.931  12.047  0.4520 -0.1643 -0.7461
15578TIP3    H268150   5.630   5.925  12.198  1.8798  1.8678 -0.6405
15579TIP3   OH268151   5.101   0.236  12.950  0.6207 -0.0678  0.2800
15579TIP3    H168152   5.119   0.263  12.860 -2.0865  1.5019  0.0925
15579TIP3    H268153   5.055   0.311  12.988  0.4705 -1.2393  2.5479
15580TIP3   OH268154   2.379   4.380  12.875 -0.0151  0.0424  0.1127
15580TIP3    H168155   2.386   4.475  12.872 -1.5865  0.2792  1.9498
15580TIP3    H268156   2.370   4.353  12.783 -2.0474  1.9219 -0.3263
15581TIP3   OH268157   6.522   6.192  16.739 -0.1455 -1.0718  0.1633
15581TIP3    H168158   6.601   6.197  16.685 -0.5107 -0.3390 -0.3075
15581TIP3    H268159   6.519   6.100  16.768  0.3747 -1.3283 -0.5657
15582TIP3   OH268160   2.143   0.931  15.718  0.4501  0.4443  0.1815
15582TIP3    H168161   2.099   0.852  15.747  0.9242 -1.1771 -2.9992
15582TIP3    H268162   2.234   0.919  15.744  0.2358  0.6884  1.0519
15583TIP3   OH268163   1.790   3.406  16.660 -0.1153 -0.4131  0.3077
15583TIP3    H168164   1.831   3.429  16.744  0.3738  0.2110 -0.0910
15583TIP3    H268165   1.696   3.407  16.679  0.0117 -0.9295  1.0069
15584TIP3   OH268166   2.510   3.486  15.943  0.3168 -0.2276 -0.1237
15584TIP3    H168167   2.465   3.453  16.020  2.2718 -1.6083  0.5327
15584TIP3    H268168   2.493   3.420  15.876 -0.4504  0.3934 -0.5507
15585TIP3   OH268169   3.961   6.796   2.940 -0.3139  0.3391 -0.0922
15585TIP3    H168170   4.027   6.856   2.976 -0.3802  0.4149 -0.0973
15585TIP3    H268171   3.890   6.853   2.912 -0.5827  0.2212  0.3417
15586TIP3   OH268172   1.954   2.780  16.580  0.6224  0.0415  0.6258
15586TIP3    H168173   2.013   2.760  16.652 -1.0577 -0.6919  1.8513
15586TIP3    H268174   1.920   2.696  16.551 -1.5834  0.5410  1.5335
15587TIP3   OH268175   4.945   4.143   3.484  0.6875  0.4026  0.4835
15587TIP3    H168176   4.904   4.066   3.523 -1.2856  1.3715  0.4075
15587TIP3    H268177   4.998   4.180   3.555 -1.5709  1.2303  1.8081
15588TIP3   OH268178   5.260   0.299  12.352 -0.1505  0.5435  0.1065
15588TIP3    H168179   5.312   0.375  12.325 -0.8070  0.9579 -0.0122
15588TIP3    H268180   5.243   0.251  12.271 -1.0750  1.1276 -0.0624
15589TIP3   OH268181   4.259   5.716  13.607  0.3108  0.6701  0.3352
15589TIP3    H168182   4.208   5.725  13.527  1.1123 -0.9202 -0.4086
15589TIP3    H268183   4.326   5.652  13.585  1.1260  0.8941  2.0156
15590TIP3   OH268184   1.747   0.644  16.935  0.1221 -0.2357 -0.1945
15590TIP3    H168185   1.742   0.572  16.997 -0.2850  0.6255  0.8171
15590TIP3    H268186   1.669   0.633  16.880 -0.1765 -0.3244  0.2367
15591TIP3   OH268187   1.267   0.622   3.387 -0.7718 -0.5308 -0.1336
15591TIP3    H168188   1.309   0.667   3.314 -1.3954 -1.5733 -1.1555
15591TIP3    H268189   1.310   0.658   3.465 -1.6427  2.2942 -0.8390
15592TIP3   OH268190   0.442   5.144  15.309 -0.0216 -0.1750  0.3155
15592TIP3    H168191   0.528   5.172  15.278  1.6193 -4.1798  0.6737
15592TIP3    H268192   0.439   5.050  15.292 -4.5785 -0.2138 -0.0860
15593TIP3   OH268193   1.383   3.649  11.816  0.2757 -0.2942 -0.0389
15593TIP3    H168194   1.399   3.725  11.871 -0.3911  1.0267 -1.5718
15593TIP3    H268195   1.333   3.589  11.871 -0.7585  1.1605  0.6761
15594TIP3   OH268196   4.644   1.286   0.143  0.1437  0.1320 -0.0172
15594TIP3    H168197   4.589   1.361   0.119 -1.3911 -1.2160 -0.8975
15594TIP3    H268198   4.681   1.311   0.228 -1.0246  1.5270  0.1288
15595TIP3   OH268199   2.057   6.752   4.852 -0.3889 -0.0756 -0.0694
15595TIP3    H168200   1.990   6.684   4.850 -0.3799 -0.0745 -0.4477
15595TIP3    H268201   2.010   6.832   4.875 -0.1202 -0.5264  2.2508
15596TIP3   OH268202   3.851   1.712  12.127  0.4014  0.4187 -0.2205
15596TIP3    H168203   3.833   1.702  12.221 -1.4270  0.0359 -0.5614
15596TIP3    H268204   3.911   1.786  12.122  0.4012  0.5575  1.2425
15597TIP3   OH268205   2.894   1.610  12.166  0.0661  0.2244  0.4580
15597TIP3    H168206   2.962   1.626  12.231  0.8092 -3.6510  0.8285
15597TIP3    H268207   2.813   1.600  12.217  0.0825  0.1170  0.4612
15598TIP3   OH268208   2.737   3.607  11.266  0.2627 -0.3653  0.4779
15598TIP3    H168209   2.727   3.697  11.235  0.2684 -0.5775 -0.1569
15598TIP3    H268210   2.812   3.574  11.218 -2.0002 -1.9381 -2.2391
15599TIP3   OH268211   4.848   2.200  13.984  0.4840  0.0905  0.0024
15599TIP3    H168212   4.842   2.227  14.075  0.1527  0.0545 -0.0076
15599TIP3    H268213   4.802   2.269  13.936 -1.6484 -1.1924  0.1021
15600TIP3   OH268214   1.075   3.632   0.216  1.0365 -0.9431 -0.6741
15600TIP3    H168215   0.984   3.602   0.213  0.9458 -0.7246 -0.1379
15600TIP3    H268216   1.112   3.590   0.294  1.2138 -0.5147 -0.5254
15601TIP3   OH268217   3.401   4.711   1.956 -0.0867  0.3543  0.1639
15601TIP3    H168218   3.466   4.754   2.011 -0.9436  1.9049  0.0287
15601TIP3    H268219   3.320   4.761   1.970 -1.6630 -2.2767  1.3527
15602TIP3   OH268220   3.671   2.839   2.414  0.1886  0.4720  0.5686
15602TIP3    H168221   3.654   2.767   2.354  0.0057  2.4891 -1.9365
15602TIP3    H268222   3.766   2.855   2.407  0.1039  0.9670  0.5298
15603TIP3   OH268223   1.027   5.128  16.725  0.9343 -0.1119 -0.7214
15603TIP3    H168224   1.122   5.117  16.722  1.1172  0.5904  1.0105
15603TIP3    H268225   0.992   5.042  16.700  2.1101 -1.5756  2.1289
15604TIP3   OH268226   5.622   5.217  16.289  0.0774 -0.2055  0.1731
15604TIP3    H168227   5.711   5.232  16.321  0.6196 -2.2455 -0.2660
15604TIP3    H268228   5.574   5.189  16.367  0.2592 -0.7738  0.0836
15605TIP3   OH268229   0.826   0.697  14.141 -0.1386 -0.4159 -0.2664
15605TIP3    H168230   0.785   0.709  14.227  0.9118 -1.3103  0.3864
15605TIP3    H268231   0.806   0.777  14.093 -1.5102 -0.2822  0.4852
15606TIP3   OH268232   1.197   1.270  15.523 -0.0909  0.1044  0.8009
15606TIP3    H168233   1.263   1.205  15.546  0.1249  0.3595  0.9158
15606TIP3    H268234   1.163   1.301  15.607  0.8436  1.1852  0.7973
15607TIP3   OH268235   6.447   4.476   2.320 -0.0526  0.3719  0.7817
15607TIP3    H168236   6.364   4.431   2.337 -0.0585 -0.2490 -0.7905
15607TIP3    H268237   6.421   4.565   2.297 -0.2214  0.3927  1.0416
15608TIP3   OH268238   3.567   1.660   3.231  0.4249 -0.0105  0.1946
15608TIP3    H168239   3.499   1.636   3.168  1.0482  0.5708 -0.7143
15608TIP3    H268240   3.648   1.627   3.194  0.6575 -0.7624  1.3084
15609TIP3   OH268241   5.213   3.356  17.105  0.0982  0.1043  0.0034
15609TIP3    H168242   5.170   3.303  17.038  0.4889  1.0193 -0.9948
15609TIP3    H268243   5.263   3.421  17.056  0.8013  0.4859  1.1774
15610TIP3   OH268244   5.420   2.335  15.178  0.4357  0.4329  0.5357
15610TIP3    H168245   5.353   2.316  15.112 -0.1666 -0.7123  1.4433
15610TIP3    H268246   5.440   2.427  15.165 -0.2079  0.4223 -0.7563
15611TIP3   OH268247   2.757   2.394   2.534  0.7902  0.1618  0.8624
15611TIP3    H168248   2.759   2.313   2.586  0.9492 -0.1517  0.3755
15611TIP3    H268249   2.823   2.450   2.575 -0.6063  0.8011  2.3849
15612TIP3   OH268250   2.511   6.365   1.203 -0.1213 -0.2362 -0.0468
15612TIP3    H168251   2.586   6.308   1.211 -0.1653 -0.3416 -0.3710
15612TIP3    H268252   2.464   6.356   1.287  0.2508 -0.1291  0.1741
15613TIP3   OH268253   4.940   1.242  15.385 -0.2613 -0.0947 -0.1113
15613TIP3    H168254   4.925   1.336  15.387 -0.5942 -0.1294 -0.7273
15613TIP3    H268255   5.001   1.228  15.312 -0.9105 -0.4373 -0.6080
15614TIP3   OH268256   2.084   4.033  16.703 -0.2166  0.0162 -0.3926
15614TIP3    H168257   2.045   4.109  16.747  0.8461  0.5267 -0.2836
15614TIP3    H268258   2.115   3.977  16.774  0.5223  0.3154 -0.4679
15615TIP3   OH268259   4.529   4.537   1.357  0.4518 -0.7561 -0.3900
15615TIP3    H168260   4.608   4.498   1.318 -1.1478 -4.2243 -0.6021
15615TIP3    H268261   4.531   4.509   1.448 -0.3706 -0.6168 -0.3216
15616TIP3   OH268262   2.705   6.486   5.164 -0.2362  0.5857  0.3150
15616TIP3    H168263   2.774   6.515   5.224  1.0303 -0.3295 -0.6202
15616TIP3    H268264   2.662   6.414   5.209 -1.2243  1.7198  1.2762
15617TIP3   OH268265   1.772   6.784  15.950 -0.5927  0.1203  0.4728
15617TIP3    H168266   1.778   6.701  15.998  0.6916 -0.7343 -1.1068
15617TIP3    H268267   1.711   6.837  16.003  0.1520 -1.0382  2.6159
15618TIP3   OH268268   2.716   1.502   0.767 -0.1712  0.0155 -0.0514
15618TIP3    H168269   2.741   1.488   0.858  1.2222  0.7142 -0.3045
15618TIP3    H268270   2.752   1.588   0.745  2.4884 -1.4963 -2.2311
15619TIP3   OH268271   6.061   1.722  11.374 -0.1204  0.8489  0.0472
15619TIP3    H168272   6.075   1.697  11.283 -1.0399 -0.5618  0.2679
15619TIP3    H268273   5.984   1.673  11.401  0.2231  1.1285  1.6380
15620TIP3   OH268274   3.208   1.495  14.279  0.0579 -0.2594  0.4678
15620TIP3    H168275   3.201   1.407  14.316 -0.1021  0.7857  3.1528
15620TIP3    H268276   3.297   1.523  14.300 -0.1474  0.5154  0.3484
15621TIP3   OH268277   6.694   6.552  10.674  0.4679  0.1524  0.1587
15621TIP3    H168278   6.765   6.614  10.658  1.1905 -0.7229 -0.1119
15621TIP3    H268279   6.720   6.472  10.628 -1.0565  0.0414 -0.5923
15622TIP3   OH268280   1.231   6.329   2.933  0.0503 -0.0292 -0.2845
15622TIP3    H168281   1.326   6.326   2.943 -0.0989  0.8133  2.0855
15622TIP3    H268282   1.197   6.335   3.023 -2.1334  1.8479 -1.1087
15623TIP3   OH268283   1.875   0.984   3.652  0.1509 -0.3232 -0.0583
15623TIP3    H168284   1.964   0.950   3.657  0.2277 -0.4151 -1.4803
15623TIP3    H268285   1.879   1.069   3.696  0.8806 -0.4596  0.1447
15624TIP3   OH268286   3.174   6.666  14.861 -0.3062 -0.0331 -0.3013
15624TIP3    H168287   3.252   6.714  14.889 -0.8472 -0.0103  1.3057
15624TIP3    H268288   3.178   6.584  14.910 -1.2889 -0.0119 -0.1589
15625TIP3   OH268289   4.075   4.729  14.215  0.5409 -0.1479 -0.2481
15625TIP3    H168290   4.129   4.771  14.282 -0.7291 -1.0837  1.4273
15625TIP3    H268291   3.994   4.781  14.213 -0.8340 -2.0955  1.4738
15626TIP3   OH268292   2.050   5.542  14.836  0.0722  0.6790 -0.0317
15626TIP3    H168293   1.984   5.587  14.888 -1.1087  2.8095 -3.1037
15626TIP3    H268294   2.005   5.466  14.799  0.0777  0.7267 -0.1378
15627TIP3   OH268295   5.406   0.273  16.534 -0.1501  0.3859  0.4599
15627TIP3    H168296   5.361   0.194  16.564  0.4062 -0.9049 -1.8319
15627TIP3    H268297   5.370   0.289  16.446  0.0920  2.4406  0.6868
15628TIP3   OH268298   3.164   4.253  15.213 -0.2102  0.2327  0.2933
15628TIP3    H168299   3.143   4.163  15.188  0.0712  0.1569  0.3302
15628TIP3    H268300   3.098   4.306  15.167  0.3437  0.1029 -0.6732
15629TIP3   OH268301   4.919   3.452  16.516 -0.1174 -0.2179 -0.2238
15629TIP3    H168302   4.897   3.365  16.550  0.2687  0.0586  0.7690
15629TIP3    H268303   4.983   3.486  16.578  2.1393 -0.4604 -2.2515
15630TIP3   OH268304   3.096   4.769  13.318  0.0411  0.0574 -0.8637
15630TIP3    H168305   3.089   4.714  13.396 -1.8746 -0.3601 -1.2941
15630TIP3    H268306   3.121   4.855  13.352  0.9819 -0.5374  0.0169
15631TIP3   OH268307   0.824   0.406  12.025  0.0513  0.0358 -0.1029
15631TIP3    H168308   0.893   0.471  12.017 -0.1840  0.3602  0.4259
15631TIP3    H268309   0.858   0.329  11.980  0.8156  0.1421  0.2711
15632TIP3   OH268310   3.836   6.380   1.090  0.7069  0.4786 -0.2596
15632TIP3    H168311   3.916   6.428   1.113  0.6274  1.0351 -1.0671
15632TIP3    H268312   3.844   6.297   1.136  1.5497  0.6927  0.0140
15633TIP3   OH268313   2.649   6.196   5.645  0.3192 -0.3288 -0.0206
15633TIP3    H168314   2.676   6.106   5.627  1.7131 -0.0904  0.7541
15633TIP3    H268315   2.683   6.215   5.732 -0.9830  0.5712  0.3223
15634TIP3   OH268316   6.009   0.963  11.351 -0.7514  0.1332  0.0338
15634TIP3    H168317   6.097   0.934  11.377 -0.7573  0.0276 -0.0678
15634TIP3    H268318   5.965   0.884  11.321 -1.5055 -0.1528  1.7943
15635TIP3   OH268319   0.226   2.191  12.706 -0.2167 -0.6030 -0.0266
15635TIP3    H168320   0.315   2.226  12.698 -0.7624  0.5799 -1.5061
15635TIP3    H268321   0.224   2.117  12.645  0.3853 -2.1146  1.7136
15636TIP3   OH268322   6.396   5.585   0.990  0.3020  0.7354 -0.1503
15636TIP3    H168323   6.412   5.583   0.895  1.7557 -1.7556  0.0558
15636TIP3    H268324   6.407   5.494   1.018  0.6369  1.5179  2.5368
15637TIP3   OH268325   3.028   5.171   1.364 -0.3861 -0.0868 -0.5520
15637TIP3    H168326   3.113   5.137   1.392 -1.1160 -1.4463  0.1139
15637TIP3    H268327   2.977   5.180   1.445 -1.4186 -0.8849 -1.0866
15638TIP3   OH268328   5.217   3.302  16.008 -0.3645  0.0517 -0.2129
15638TIP3    H168329   5.300   3.263  16.034 -1.0952 -0.5147  1.4697
15638TIP3    H268330   5.216   3.387  16.052 -0.6318  0.1010 -0.3110
15639TIP3   OH268331   0.576   2.202  16.849 -0.3960  0.1378  0.4305
15639TIP3    H168332   0.518   2.279  16.850 -1.5516 -0.7123  0.8506
15639TIP3    H268333   0.570   2.166  16.937 -0.4317 -0.8402  0.0448
15640TIP3   OH268334   1.072   0.781  14.224  0.0716 -0.6904  0.3599
15640TIP3    H168335   1.046   0.806  14.313 -0.8600 -3.7410  1.0509
15640TIP3    H268336   0.989   0.775  14.176  0.5394  0.6123 -0.6807
15641TIP3   OH268337   5.092   6.490   5.616  0.3486  0.7334 -0.1616
15641TIP3    H168338   5.087   6.509   5.710  0.1772  0.2782 -0.0767
15641TIP3    H268339   5.151   6.557   5.582 -0.9450  2.0011 -0.0267
15642TIP3   OH268340   1.446   3.741  12.331  0.5359  0.3624  0.1575
15642TIP3    H168341   1.404   3.723  12.415  0.5268 -1.8026 -0.2379
15642TIP3    H268342   1.468   3.834  12.334  0.3210  0.3975  2.4479
15643TIP3   OH268343   5.084   1.597  15.323  0.5801 -0.0667 -0.2743
15643TIP3    H168344   5.036   1.558  15.250  0.2771 -1.1986  0.4858
15643TIP3    H268345   5.037   1.566  15.401  0.6612  1.4262  0.3925
15644TIP3   OH268346   5.114   1.616  16.544  0.1051 -0.0577  0.1727
15644TIP3    H168347   5.026   1.623  16.507 -0.3292 -0.8187  1.0141
15644TIP3    H268348   5.125   1.523  16.562 -0.4491  0.4357  3.6615
15645TIP3   OH268349   6.031   1.824  13.884 -0.3230 -0.5182 -0.2017
15645TIP3    H168350   6.000   1.740  13.919 -0.7328 -0.2113  0.1725
15645TIP3    H268351   5.966   1.888  13.911 -0.1194 -0.1034 -0.6612
15646TIP3   OH268352   0.187   1.650   5.625 -0.2721 -0.2203 -0.3258
15646TIP3    H168353   0.237   1.575   5.657  0.4811  0.6029  0.5202
15646TIP3    H268354   0.100   1.638   5.661  0.2898  0.1441  1.2490
15647TIP3   OH268355   5.238   4.821  16.343  0.4029  0.3034  0.2075
15647TIP3    H168356   5.308   4.881  16.367 -0.2717 -0.0765  3.8328
15647TIP3    H268357   5.159   4.860  16.381 -0.3721 -1.8640  1.0029
15648TIP3   OH268358   5.088   0.116   3.136 -0.3971  0.0609 -0.2345
15648TIP3    H168359   5.075   0.137   3.228 -1.2023  1.4647 -0.6462
15648TIP3    H268360   5.162   0.054   3.136  0.6355  1.2185  1.2305
15649TIP3   OH268361   0.855   0.638   2.547  0.1667  0.0405  0.2669
15649TIP3    H168362   0.781   0.577   2.553  0.0471  0.2300  0.7661
15649TIP3    H268363   0.815   0.722   2.527  0.2150  0.2052  0.8433
15650TIP3   OH268364   0.380   4.127   5.526  0.0130 -0.1877 -0.1996
15650TIP3    H168365   0.430   4.050   5.552 -1.2169 -0.6812  0.8217
15650TIP3    H268366   0.373   4.179   5.606 -0.0136  0.5010 -0.6432
15651TIP3   OH268367   5.907   2.340  10.412 -0.6547  0.2985 -0.5405
15651TIP3    H168368   5.912   2.433  10.393 -0.4500  0.4560  0.2668
15651TIP3    H268369   5.820   2.314  10.381 -0.6725  0.7353 -0.8597
15652TIP3   OH268370   5.763   5.016  17.065  0.1650 -0.0309 -0.0825
15652TIP3    H168371   5.771   4.922  17.054 -0.9247 -0.4306  1.9750
15652TIP3    H268372   5.700   5.027  17.137 -1.1680  2.3188 -1.4768
15653TIP3   OH268373   6.660   5.792  14.406 -0.3027 -0.0458 -0.0026
15653TIP3    H168374   6.671   5.844  14.326  2.2978 -1.8927 -0.9888
15653TIP3    H268375   6.573   5.752  14.397 -0.1380 -0.0705 -1.8281
15654TIP3   OH268376   4.622   1.589   2.251 -0.0609  0.2890  0.3820
15654TIP3    H168377   4.685   1.661   2.239  0.6615  0.1550  2.8891
15654TIP3    H268378   4.540   1.624   2.216  0.2232  2.4349  1.6316
15655TIP3   OH268379   4.343   5.048  11.719  0.0942 -0.9597 -0.0571
15655TIP3    H168380   4.334   4.955  11.698  0.6830 -0.8489 -0.8403
15655TIP3    H268381   4.419   5.052  11.777 -0.6925 -1.1015  1.0160
15656TIP3   OH268382   3.994   1.791   4.050  0.2556  0.9796 -0.2388
15656TIP3    H168383   4.033   1.739   4.119  2.5966  1.4520 -1.1240
15656TIP3    H268384   3.946   1.728   3.996 -1.8987  0.6478  1.8758
15657TIP3   OH268385   3.778   1.557   3.511  0.8660  0.8345  0.2388
15657TIP3    H168386   3.792   1.583   3.420  0.0501  1.3487  0.2481
15657TIP3    H268387   3.857   1.587   3.557  0.8835  1.3860 -0.1374
15658TIP3   OH268388   0.707   0.267   5.431  0.3998  0.3857  0.3345
15658TIP3    H168389   0.715   0.308   5.517  0.3887  0.8575  0.1167
15658TIP3    H268390   0.693   0.175   5.449 -0.3603  0.5982  0.8541
15659TIP3   OH268391   1.099   3.540  11.644  0.0392  0.0334  0.0246
15659TIP3    H168392   1.071   3.623  11.607 -0.8262  0.2242  1.0545
15659TIP3    H268393   1.159   3.564  11.714 -2.8915  0.0796  2.7277
15660TIP3   OH268394   2.081   3.154  11.367  0.6734  0.0987  0.2988
15660TIP3    H168395   2.136   3.201  11.430  2.9445 -2.2638  0.2042
15660TIP3    H268396   2.093   3.202  11.285  1.1548  0.6470  0.6801
15661TIP3   OH268397   0.199   2.139   1.901  0.5444 -0.1763 -0.0530
15661TIP3    H168398   0.207   2.081   1.976 -1.5269 -2.0023 -1.1071
15661TIP3    H268399   0.178   2.225   1.938 -1.8967 -1.3445  1.4778
15662TIP3   OH268400   0.069   1.286   4.965  0.3361 -0.0794 -0.0237
15662TIP3    H168401   0.076   1.203   4.918  0.1052  0.0126 -0.2249
15662TIP3    H268402   0.071   1.262   5.058 -0.0192 -0.3376 -0.0793
15663TIP3   OH268403   3.682   2.322  14.942  0.5935  0.4270 -0.1389
15663TIP3    H168404   3.704   2.348  14.852  0.4251  0.6540 -0.1147
15663TIP3    H268405   3.688   2.402  14.993 -1.7391  0.8574 -0.3933
15664TIP3   OH268406   5.223   0.305   2.524  0.2985 -0.1405 -0.3915
15664TIP3    H168407   5.263   0.342   2.603 -0.4534 -0.6812  0.2576
15664TIP3    H268408   5.294   0.258   2.481  0.3468 -1.2472  0.8414
15665TIP3   OH268409   1.704   6.327   2.562  0.4812 -0.4474  0.2950
15665TIP3    H168410   1.798   6.338   2.545  0.6807 -0.9328  1.0018
15665TIP3    H268411   1.661   6.349   2.480  1.3755 -2.7336 -0.8872
15666TIP3   OH268412   1.015   5.565   3.939  0.7832  1.0339  0.3149
15666TIP3    H168413   0.944   5.501   3.939  2.9503 -1.5862  0.3284
15666TIP3    H268414   1.036   5.578   3.846  2.2242 -0.7151  0.3197
15667TIP3   OH268415   0.036   3.061  16.996  0.0307  0.2616 -0.3562
15667TIP3    H168416  -0.039   3.114  16.967  1.9049  3.0162 -0.5930
15667TIP3    H268417   0.009   3.028  17.082 -2.3129 -0.8624 -1.4380
15668TIP3   OH268418   5.748   1.127  12.199  0.2114 -0.1590 -0.1664
15668TIP3    H168419   5.769   1.072  12.124 -0.4895 -0.6858  0.0101
15668TIP3    H268420   5.829   1.176  12.217 -0.2091  1.6516 -2.6288
15669TIP3   OH268421   3.093   0.164  12.222  0.4761  0.1178  0.4929
15669TIP3    H168422   3.180   0.142  12.255  1.9365 -0.9287 -3.4398
15669TIP3    H268423   3.107   0.240  12.166 -0.1692 -2.1957 -3.1843
15670TIP3   OH268424   5.031   0.296  15.522 -0.5726 -0.1006  0.0825
15670TIP3    H168425   4.985   0.239  15.584  0.6757  0.5452  1.6599
15670TIP3    H268426   5.122   0.266  15.524 -0.1041  1.2591  0.1458
15671TIP3   OH268427   0.531   5.326  17.011  0.1479 -0.6410  0.2049
15671TIP3    H168428   0.551   5.419  17.019 -2.5697  0.0530  0.0371
15671TIP3    H268429   0.486   5.304  17.093 -0.3973 -1.4603 -0.3023
15672TIP3   OH268430   6.410   2.306   3.000 -0.1673  0.3890  0.3467
15672TIP3    H168431   6.480   2.266   3.051 -0.4551  0.8533  1.1186
15672TIP3    H268432   6.455   2.345   2.925  0.8134  2.8357  2.0570
15673TIP3   OH268433   6.039   4.096  17.112  0.7384  0.3258  0.4390
15673TIP3    H168434   6.093   4.109  17.190  0.1521  0.4387  0.8335
15673TIP3    H268435   6.042   4.181  17.066 -2.1139  1.6404  2.3966
15674TIP3   OH268436   2.711   6.741   1.887 -0.3119  0.2094  0.3313
15674TIP3    H168437   2.679   6.812   1.830  0.4227  1.4032  1.3567
15674TIP3    H268438   2.773   6.693   1.833  0.6612  1.5541  0.2055
15675TIP3   OH268439   4.644   1.077   5.370  0.0034 -0.3529  0.2159
15675TIP3    H168440   4.671   1.067   5.279 -0.3577 -0.5421  0.1296
15675TIP3    H268441   4.714   1.130   5.410  0.3100 -0.5135 -0.0980
15676TIP3   OH268442   5.941   0.608   0.555 -0.0899  0.6076 -0.2631
15676TIP3    H168443   6.011   0.612   0.490  0.3696 -1.7552 -0.0114
15676TIP3    H268444   5.866   0.650   0.512  1.2736  2.6652 -0.7558
15677TIP3   OH268445   2.914   2.522   0.976  0.0953 -0.1451 -0.3029
15677TIP3    H168446   2.983   2.567   1.026 -0.1574  0.4379 -0.4717
15677TIP3    H268447   2.962   2.471   0.910  0.3357  1.3870 -1.3647
15678TIP3   OH268448   6.224   6.489  11.562  0.3260  0.1207 -0.2171
15678TIP3    H168449   6.285   6.562  11.573  0.7382  0.3337 -3.1125
15678TIP3    H268450   6.264   6.417  11.611  0.7255  1.3825  1.3749
15679TIP3   OH268451   2.709   1.727  11.617  0.1394 -0.0682  0.0727
15679TIP3    H168452   2.678   1.725  11.708  1.6909 -0.7760  0.6137
15679TIP3    H268453   2.690   1.640  11.583  1.7112 -0.6232  0.5117
15680TIP3   OH268454   3.329   0.726  13.318 -0.4091 -0.1649 -0.0674
15680TIP3    H168455   3.274   0.732  13.396 -1.3116 -0.0918 -0.6997
15680TIP3    H268456   3.329   0.815  13.282  0.1382 -0.1625 -0.0723
15681TIP3   OH268457   2.224   2.424   1.024  0.5041 -0.4234  0.3877
15681TIP3    H168458   2.151   2.399   1.081  0.2920 -0.8288 -0.0515
15681TIP3    H268459   2.190   2.410   0.935  0.8704  0.0837  0.1648
15682TIP3   OH268460   2.019   5.695  17.054 -0.3038 -0.1840 -0.0242
15682TIP3    H168461   1.944   5.654  17.097 -1.1819  1.5728  0.2025
15682TIP3    H268462   2.052   5.627  16.994 -0.9033 -1.6219  1.2127
15683TIP3   OH268463   2.355   5.465   5.703 -0.0556 -0.3476  0.2721
15683TIP3    H168464   2.388   5.375   5.701 -2.4467 -1.2754 -0.7847
15683TIP3    H268465   2.268   5.458   5.744  0.1426  1.6671  1.1540
15684TIP3   OH268466   1.236   3.596   2.083 -0.4619 -0.6139 -0.3110
15684TIP3    H168467   1.155   3.582   2.132 -0.5153  2.2775  0.5950
15684TIP3    H268468   1.285   3.658   2.136  1.5573 -0.8764 -1.7592
15685TIP3   OH268469   2.730   5.627   3.971  0.3078 -0.3249 -0.5444
15685TIP3    H168470   2.768   5.558   4.026  1.0257  0.0110 -0.6136
15685TIP3    H268471   2.683   5.579   3.902 -0.4968 -0.7467  0.2724
15686TIP3   OH268472   5.153   6.478  12.002 -0.2366 -0.2753 -0.3689
15686TIP3    H168473   5.153   6.383  12.017 -1.1820 -1.0246 -4.1024
15686TIP3    H268474   5.128   6.516  12.086  0.9343 -3.2482  1.4678
15687TIP3   OH268475   3.255   1.942  16.057  0.3303 -0.8111  0.2623
15687TIP3    H168476   3.181   1.997  16.082  0.7717  0.4336 -1.0843
15687TIP3    H268477   3.328   1.975  16.109  0.1183 -1.5840  1.0734
15688TIP3   OH268478   0.008   0.054  14.517 -0.1825 -0.0828  0.7656
15688TIP3    H168479  -0.047  -0.024  14.515 -0.2146 -0.0438 -0.1773
15688TIP3    H268480  -0.029   0.108  14.587 -1.2019 -0.1557  0.2937
15689TIP3   OH268481   3.657   5.802  11.684 -0.2125 -0.3633  0.3158
15689TIP3    H168482   3.732   5.747  11.663  1.9688  1.9929  1.4438
15689TIP3    H268483   3.581   5.749  11.660  1.7565 -3.0628 -0.3986
15690TIP3   OH268484   1.491   2.221   5.407  0.1513  0.2441  0.4983
15690TIP3    H168485   1.558   2.153   5.404  0.9952  1.0563  0.4109
15690TIP3    H268486   1.433   2.200   5.334  0.4159 -0.3649  0.4568
15691TIP3   OH268487   4.013   2.963   1.251  0.5113 -0.6758 -0.6920
15691TIP3    H168488   4.083   3.024   1.229  0.5125 -0.5085 -0.2554
15691TIP3    H268489   4.046   2.877   1.226  2.3541 -1.1191  2.5818
15692TIP3   OH268490   3.747   1.036  11.989  0.3494  0.4353  0.0425
15692TIP3    H168491   3.702   1.104  11.938  1.1864  0.8845 -0.1110
15692TIP3    H268492   3.821   1.082  12.030  1.6066 -0.6209 -0.9890
15693TIP3   OH268493   3.889   4.887  11.580  0.3567  0.3824 -0.2866
15693TIP3    H168494   3.937   4.843  11.510  0.2488  3.0737 -2.2117
15693TIP3    H268495   3.914   4.840  11.660  2.8196 -0.9571 -1.7367
15694TIP3   OH268496   4.563   6.154   3.320 -0.4553 -0.5709  0.4634
15694TIP3    H168497   4.624   6.223   3.345  0.1840 -0.9864  0.0755
15694TIP3    H268498   4.605   6.111   3.245 -1.7216 -0.1659 -0.5224
15695TIP3   OH268499   4.658   5.191  16.763  0.1984 -0.6270  0.1207
15695TIP3    H168500   4.714   5.258  16.723 -1.0402  0.8804  0.8386
15695TIP3    H268501   4.646   5.221  16.853 -1.2379 -1.2655  0.1559
15696TIP3   OH268502   1.223   1.485  14.950 -1.1176 -0.0818  0.3604
15696TIP3    H168503   1.141   1.523  14.978  0.2027  1.9320  1.7407
15696TIP3    H268504   1.266   1.555  14.900  0.4806 -0.4625  1.1473
15697TIP3   OH268505   0.920   0.300  15.932 -0.3147  0.4372 -0.4139
15697TIP3    H168506   0.965   0.307  16.017 -0.8735 -1.5600  0.0805
15697TIP3    H268507   0.906   0.391  15.906 -0.3440  1.1190  1.7624
15698TIP3   OH268508   3.537   0.179  15.235  0.3754  0.2083 -0.1686
15698TIP3    H168509   3.456   0.153  15.277 -0.0036  2.1472  0.3672
15698TIP3    H268510   3.599   0.191  15.307  1.2725 -1.5397 -0.5888
15699TIP3   OH268511   6.588   3.852   0.311  0.1118  0.0846  0.2760
15699TIP3    H168512   6.639   3.932   0.304 -0.2311  0.2899  0.0834
15699TIP3    H268513   6.648   3.782   0.284 -0.0061  0.4267 -0.9068
15700TIP3   OH268514   6.022   0.841  12.941 -0.2197 -0.2603  0.8080
15700TIP3    H168515   6.084   0.769  12.946 -0.0952 -0.3405 -1.3355
15700TIP3    H268516   6.068   0.911  12.895 -1.2982  0.1283  0.2696
15701TIP3   OH268517   4.912   1.420  15.159  0.2990  0.0425  0.0013
15701TIP3    H168518   4.822   1.389  15.158  0.8643 -2.0138  2.5100
15701TIP3    H268519   4.958   1.364  15.096  0.0187  0.5246 -0.6438
15702TIP3   OH268520   4.673   5.060  12.914  0.1659 -0.7810  0.0859
15702TIP3    H168521   4.657   4.966  12.924  0.5120 -0.7403  1.1243
15702TIP3    H268522   4.688   5.091  13.003  0.4311  0.1905 -0.2912
15703TIP3   OH268523   4.092   4.264  16.805  0.2057 -0.0632  0.3289
15703TIP3    H168524   4.168   4.278  16.749  0.5233 -0.3971  0.6697
15703TIP3    H268525   4.044   4.192  16.764  0.0018  0.2326  0.0422
15704TIP3   OH268526   1.233   0.331   6.012  0.3663  0.0673 -0.4500
15704TIP3    H168527   1.158   0.280   5.981  0.8807 -2.1742  1.6574
15704TIP3    H268528   1.197   0.388   6.080  0.4271 -0.4137 -0.0114
15705TIP3   OH268529   5.115   6.182   2.226 -0.3214 -0.2223 -0.4210
15705TIP3    H168530   5.130   6.096   2.186  1.3856  0.9180 -2.4048
15705TIP3    H268531   5.197   6.202   2.272 -0.1073  0.9819 -1.2811
15706TIP3   OH268532   6.254   5.593   0.272 -0.9410  0.1094 -0.1399
15706TIP3    H168533   6.216   5.506   0.283 -0.7933 -0.1175 -1.2276
15706TIP3    H268534   6.290   5.615   0.358  0.0193 -1.3954 -0.1136
15707TIP3   OH268535   0.531   6.079  12.589 -0.5778 -0.1410 -0.4799
15707TIP3    H168536   0.505   6.003  12.642 -1.8148  0.9761  0.6069
15707TIP3    H268537   0.538   6.045  12.500 -1.6334 -1.4408 -0.1061
15708TIP3   OH268538   5.267   4.148  15.317  0.6738  0.7548  0.3182
15708TIP3    H168539   5.324   4.217  15.284  0.8582  0.3044 -0.3368
15708TIP3    H268540   5.325   4.090  15.366  0.9337 -0.0570 -0.8925
15709TIP3   OH268541   0.501   5.212  16.437  0.0262 -0.2367 -0.0156
15709TIP3    H168542   0.578   5.169  16.474 -0.6519 -1.1764  0.3481
15709TIP3    H268543   0.514   5.209  16.343  1.3075  1.3068  0.0576
15710TIP3   OH268544   0.605   4.738  11.716 -0.7672 -0.5657 -0.2759
15710TIP3    H168545   0.561   4.781  11.790  0.2846  0.0077  0.0268
15710TIP3    H268546   0.696   4.766  11.722 -0.4060 -1.5181 -1.0620
15711TIP3   OH268547   1.645   3.060   0.711  0.4783  0.4734 -0.1488
15711TIP3    H168548   1.684   3.039   0.626  1.8314 -1.1572  0.7784
15711TIP3    H268549   1.661   2.981   0.764 -1.6362  0.8611  1.1849
15712TIP3   OH268550   0.409   1.324   5.465  0.5849 -0.0146 -0.4005
15712TIP3    H168551   0.319   1.353   5.476  0.4416 -0.5628 -0.0437
15712TIP3    H268552   0.459   1.403   5.447  0.0706  0.3233 -0.3450
15713TIP3   OH268553   2.062   2.302  16.342 -0.0435  0.5499 -0.3600
15713TIP3    H168554   2.063   2.311  16.437 -1.2481 -2.6881  0.0815
15713TIP3    H268555   2.116   2.225  16.324  1.1308  1.7622 -2.4634
15714TIP3   OH268556   6.316   3.234   0.915 -0.3600 -0.4406 -0.2115
15714TIP3    H168557   6.325   3.329   0.908  1.9680 -0.6398 -0.5156
15714TIP3    H268558   6.239   3.213   0.862 -0.7166  1.2218 -0.3967
15715TIP3   OH268559   4.848   2.980  12.369  0.3230  0.3153  0.1619
15715TIP3    H168560   4.836   2.970  12.463 -0.2101  1.8115  0.2907
15715TIP3    H268561   4.933   2.941  12.350  0.5915  0.3188  1.3221
15716TIP3   OH268562   3.573   2.680  11.049 -0.1347 -0.0067 -0.1345
15716TIP3    H168563   3.550   2.601  11.000 -3.2141  0.5216  0.2271
15716TIP3    H268564   3.514   2.679  11.124 -0.4410  2.7219 -0.2254
15717TIP3   OH268565   6.031   3.989   5.171  0.4759  0.5457  0.4129
15717TIP3    H168566   6.005   4.005   5.081 -0.6032 -2.2412  0.1212
15717TIP3    H268567   5.953   3.953   5.213  1.5990 -0.4780  1.7497
15718TIP3   OH268568   3.792   3.310   5.621  0.0685 -0.0659 -0.1002
15718TIP3    H168569   3.852   3.328   5.550  0.0449  0.8679  0.0910
15718TIP3    H268570   3.734   3.387   5.623  0.6970  0.4316  1.5417
15719TIP3   OH268571   0.848   6.751   5.232 -0.0647  0.0161 -0.5598
15719TIP3    H168572   0.819   6.820   5.172  1.1998  0.8487 -0.2723
15719TIP3    H268573   0.856   6.673   5.177 -0.5226  0.3514 -1.1151
15720TIP3   OH268574   5.113   4.872  13.876  0.0143  0.9485  0.4541
15720TIP3    H168575   5.074   4.815  13.811 -1.8912  1.6869  0.9036
15720TIP3    H268576   5.202   4.837  13.889  0.6358  1.0305 -2.8058
15721TIP3   OH268577   5.042   5.967  13.814 -0.2501  0.3664  0.2224
15721TIP3    H168578   5.109   6.018  13.767 -0.8497 -0.8465 -2.1339
15721TIP3    H268579   5.074   5.877  13.812 -2.4543 -0.5118 -2.2484
15722TIP3   OH268580   2.292   3.644   2.236  0.0198 -0.1854 -0.3248
15722TIP3    H168581   2.203   3.678   2.224 -0.1699 -0.2541  0.7593
15722TIP3    H268582   2.279   3.553   2.264  0.4296 -0.1850 -0.1242
15723TIP3   OH268583   1.714   0.324  11.302  0.2416  0.3932  0.3160
15723TIP3    H168584   1.765   0.287  11.374 -0.4826 -2.6152 -0.5807
15723TIP3    H268585   1.648   0.258  11.283 -0.3851  1.6437 -2.2863
15724TIP3   OH268586   0.685   0.598   1.114  0.2529  0.1005  0.2273
15724TIP3    H168587   0.745   0.605   1.040  0.8890 -1.8041  0.5077
15724TIP3    H268588   0.632   0.521   1.095 -0.1957  0.1198  1.3145
15725TIP3   OH268589   0.732   2.511   4.571  0.7499 -0.8107 -0.0320
15725TIP3    H168590   0.816   2.504   4.617  0.1011 -0.8063  1.1785
15725TIP3    H268591   0.709   2.604   4.577  1.2090 -0.5869 -1.3937
15726TIP3   OH268592   3.745   1.192  11.094  0.2161  0.0643  0.3917
15726TIP3    H168593   3.663   1.144  11.106  0.0996 -0.1884 -1.2258
15726TIP3    H268594   3.785   1.152  11.017  2.3443 -0.4524  1.6885
15727TIP3   OH268595   4.709   5.731   4.279 -0.3815  0.1264  0.1256
15727TIP3    H168596   4.644   5.798   4.260 -0.1844  0.0650 -0.7816
15727TIP3    H268597   4.716   5.731   4.375 -0.6457  1.1414  0.1535
15728TIP3   OH268598   6.124   3.175   3.021  0.0213  0.5918 -0.2387
15728TIP3    H168599   6.076   3.240   2.968  0.7099 -1.0620 -3.1372
15728TIP3    H268600   6.206   3.162   2.974  0.8808 -0.7378  1.5237
15729TIP3   OH268601   6.463   0.519   2.579  0.1449 -0.0624 -1.2124
15729TIP3    H168602   6.522   0.595   2.575 -0.2669  0.3922  0.3399
15729TIP3    H268603   6.520   0.444   2.564  0.8589  0.4646 -1.2012
15730TIP3   OH268604   0.419   2.280   0.476  0.0096  0.1066 -0.0396
15730TIP3    H168605   0.447   2.270   0.385  2.0274 -0.0787  0.5492
15730TIP3    H268606   0.442   2.370   0.499  0.8982 -0.3028  0.7166
15731TIP3   OH268607   1.299   1.318  12.019 -0.4492 -0.5180 -0.1039
15731TIP3    H168608   1.278   1.392  12.077 -0.4867  0.0027 -0.7666
15731TIP3    H268609   1.342   1.254  12.076  1.1225  0.7103  0.1609
15732TIP3   OH268610   0.927   2.513  16.912  0.3927  0.1614 -0.1685
15732TIP3    H168611   0.873   2.557  16.978  0.5118  0.8810 -0.5322
15732TIP3    H268612   0.951   2.583  16.851 -1.0310 -0.7636 -1.8819
15733TIP3   OH268613   0.565   2.074   3.232  0.0312 -0.4176 -0.2963
15733TIP3    H168614   0.650   2.119   3.234 -0.8747  1.5676 -2.0651
15733TIP3    H268615   0.570   2.018   3.154 -0.3458 -0.1140 -0.5432
15734TIP3   OH268616   0.303   4.580   5.799 -0.0001  0.0229  0.5908
15734TIP3    H168617   0.259   4.520   5.859 -0.6459  0.2564  0.3565
15734TIP3    H268618   0.373   4.527   5.760 -1.1061 -0.8576 -0.2609
15735TIP3   OH268619   5.961   3.087   5.739 -0.7582 -0.6489 -0.7494
15735TIP3    H168620   5.933   3.154   5.802  1.8664  0.6598 -0.8375
15735TIP3    H268621   5.892   3.086   5.673 -1.0579  1.7532 -0.5654
15736TIP3   OH268622   0.184   1.565   2.178  1.0315 -0.0911  0.6041
15736TIP3    H168623   0.132   1.646   2.172 -1.2331 -1.5348 -0.6132
15736TIP3    H268624   0.129   1.505   2.228  1.1320 -1.9417 -1.3809
15737TIP3   OH268625   4.219   4.882   4.548  0.5646 -0.5411 -0.6357
15737TIP3    H168626   4.186   4.840   4.627  0.2191  2.5529  1.0243
15737TIP3    H268627   4.190   4.825   4.476 -1.3907 -2.1002  1.2535
15738TIP3   OH268628   4.362   0.746   0.071 -0.0498  0.0719 -0.5347
15738TIP3    H168629   4.272   0.723   0.046 -0.3703 -0.2548  0.8625
15738TIP3    H268630   4.416   0.682   0.025 -0.5996 -0.3063 -0.6696
15739TIP3   OH268631   2.063   4.253   6.189  0.1161  0.4404 -0.1202
15739TIP3    H168632   1.993   4.207   6.235  0.8921 -1.6644 -0.9159
15739TIP3    H268633   2.141   4.237   6.242  0.6459 -0.3785 -1.0940
15740TIP3   OH268634   5.768   5.154  16.001 -0.0881  0.4106  0.5975
15740TIP3    H168635   5.748   5.085  16.065 -1.0198 -1.1461 -1.2716
15740TIP3    H268636   5.682   5.186  15.973  0.3146  1.1278  0.1603
15741TIP3   OH268637   5.136   0.397   3.418 -0.2719  0.1766  0.0819
15741TIP3    H168638   5.230   0.384   3.406 -0.3447  0.4606 -0.8707
15741TIP3    H268639   5.100   0.309   3.418  0.1198 -0.0264  1.7992
15742TIP3   OH268640   5.544   4.557  16.482 -0.7181 -0.2777  0.2020
15742TIP3    H168641   5.544   4.462  16.474 -1.0228 -0.2984  0.4540
15742TIP3    H268642   5.460   4.578  16.522 -0.9419  0.1564 -0.4785
15743TIP3   OH268643   0.143   4.866  12.861  0.6252  0.8722 -0.1256
15743TIP3    H168644   0.136   4.901  12.772  0.5610 -0.1989 -0.5593
15743TIP3    H268645   0.100   4.931  12.916  2.4788  2.5585 -0.5810
15744TIP3   OH268646   2.819   1.664   5.148 -0.3291  0.5634 -0.4388
15744TIP3    H168647   2.750   1.599   5.135 -0.9838  1.1513 -0.0474
15744TIP3    H268648   2.872   1.629   5.219 -0.9027  0.6241  0.0303
15745TIP3   OH268649   2.452   4.538   4.325  0.4617 -0.8591 -0.1934
15745TIP3    H168650   2.456   4.613   4.384  0.7808 -0.5099 -0.6563
15745TIP3    H268651   2.543   4.508   4.318  0.8255  0.5461 -2.3417
15746TIP3   OH268652   5.914   0.639   1.803 -0.4197 -0.4397 -0.2296
15746TIP3    H168653   5.922   0.649   1.708  0.1656 -0.1177 -0.1502
15746TIP3    H268654   5.907   0.545   1.816 -2.7432 -0.3997 -0.7501
15747TIP3   OH268655   4.920   2.518   3.936  0.1600  0.0568  0.0497
15747TIP3    H168656   5.000   2.571   3.936 -0.8982  1.6935 -0.3239
15747TIP3    H268657   4.889   2.521   3.845 -0.1439 -0.8858  0.1112
15748TIP3   OH268658   5.461   5.655   2.500 -0.2722 -0.4105 -0.0984
15748TIP3    H168659   5.458   5.720   2.429  1.2159  0.7081  0.7956
15748TIP3    H268660   5.524   5.590   2.470  1.8678  1.0795  0.9279
15749TIP3   OH268661   3.149   1.610  15.800  0.3496  0.6893  0.2852
15749TIP3    H168662   3.131   1.685  15.743 -1.6607  1.3883  1.7265
15749TIP3    H268663   3.144   1.645  15.889  3.2565 -0.4057  0.9909
15750TIP3   OH268664   4.223   6.254   5.717 -0.1675  0.4626  0.4638
15750TIP3    H168665   4.186   6.166   5.725 -1.2165  0.8868  0.5532
15750TIP3    H268666   4.317   6.242   5.723 -0.2508 -0.7424 -0.2968
15751TIP3   OH268667   2.923   4.602  12.438 -0.3775 -0.3844 -0.3540
15751TIP3    H168668   2.859   4.598  12.367 -0.2956  0.3477 -0.4797
15751TIP3    H268669   2.916   4.517  12.482 -0.6374 -0.7267 -1.0529
15752TIP3   OH268670   6.438   1.237  16.555 -0.3905 -0.0153  0.0914
15752TIP3    H168671   6.496   1.193  16.618 -1.5063 -0.1174  1.0977
15752TIP3    H268672   6.427   1.174  16.485 -1.2245 -1.0024  1.0728
15753TIP3   OH268673   3.839   5.367  11.046  0.0145 -0.2107  0.3323
15753TIP3    H168674   3.792   5.294  11.007 -0.3022 -0.1600  0.6188
15753TIP3    H268675   3.931   5.347  11.031 -0.1229  0.5102 -1.7251
15754TIP3   OH268676   6.681   6.138   2.081  0.2966  0.1112 -0.3960
15754TIP3    H168677   6.713   6.151   2.171  0.6882 -0.5653 -0.4241
15754TIP3    H268678   6.739   6.070   2.046 -0.8405 -0.7520 -0.6414
15755TIP3   OH268679   3.029   5.448   5.755  0.1372 -0.1855 -0.4744
15755TIP3    H168680   3.081   5.519   5.718  1.1145 -0.3979  0.4434
15755TIP3    H268681   3.040   5.456   5.850 -1.0170 -0.6134 -0.2762
15756TIP3   OH268682   2.928   3.254   6.739 -0.1260 -0.8076 -0.2458
15756TIP3    H168683   2.896   3.292   6.657  1.7497  1.0057 -0.2014
15756TIP3    H268684   2.954   3.329   6.792 -1.5930 -1.8971  2.2240
15757TIP3   OH268685   5.912   0.319   1.883  0.3662 -0.0963  0.2714
15757TIP3    H168686   5.838   0.273   1.842  1.5150  0.1480 -2.2706
15757TIP3    H268687   5.932   0.267   1.960 -0.4133 -2.0579 -0.7582
15758TIP3   OH268688   0.219   5.818   0.439 -0.7002  0.4698  0.4916
15758TIP3    H168689   0.189   5.745   0.492  1.4924 -0.2560  0.8180
15758TIP3    H268690   0.181   5.802   0.352 -0.4908 -0.9082  0.6352
15759TIP3   OH268691   2.248   6.213  10.700  0.5236  0.2817 -0.6447
15759TIP3    H168692   2.158   6.183  10.686  0.2455  1.0513 -0.5125
15759TIP3    H268693   2.246   6.307  10.682  0.6395  0.9057  2.1799
15760TIP3   OH268694   6.258   6.299  16.697 -0.0553  0.0539  0.1387
15760TIP3    H168695   6.257   6.317  16.603  1.5659 -0.9374 -0.1087
15760TIP3    H268696   6.351   6.297  16.720 -0.4020  2.5080  2.2405
15761TIP3   OH268697   1.807   5.858  16.762  0.2076 -0.3210  0.4992
15761TIP3    H168698   1.753   5.844  16.840 -0.9369 -0.6783 -0.3256
15761TIP3    H268699   1.744   5.876  16.693  0.8585 -3.7267 -1.1906
15762TIP3   OH268700   3.430   2.509   3.698 -0.1453  0.0535  0.2668
15762TIP3    H168701   3.461   2.599   3.712  0.2920  0.1063 -0.9444
15762TIP3    H268702   3.461   2.461   3.775  0.5078  0.7217  0.4327
15763TIP3   OH268703   5.671   4.047   1.678 -0.5889 -0.2251 -0.0088
15763TIP3    H168704   5.592   4.049   1.732 -0.4775  0.7733  0.1424
15763TIP3    H268705   5.742   4.067   1.740 -0.5646  1.9486 -0.6459
15764TIP3   OH268706   0.767   5.155   0.875  0.2756 -0.5389 -0.0607
15764TIP3    H168707   0.774   5.091   0.804  1.0935 -0.8794  0.3157
15764TIP3    H268708   0.802   5.236   0.839 -0.2093 -0.4540 -0.3489
15765TIP3   OH268709   6.414   3.083   4.519  0.2991  0.3561  0.8850
15765TIP3    H168710   6.497   3.127   4.502  0.1018  1.3049  2.2142
15765TIP3    H268711   6.352   3.154   4.536 -0.8634 -0.3200 -0.2839
15766TIP3   OH268712   0.324   2.321   5.464 -0.1621 -0.3394 -1.1875
15766TIP3    H168713   0.352   2.239   5.424  0.5193  0.0133 -1.4501
15766TIP3    H268714   0.242   2.343   5.419  0.4318 -0.1107 -2.1798
15767TIP3   OH268715   6.238   0.124   3.446  0.4609 -0.4721  0.5861
15767TIP3    H168716   6.231   0.030   3.431 -0.8205 -0.5483  1.5996
15767TIP3    H268717   6.202   0.138   3.533  3.3571  0.5929  1.7423
15768TIP3   OH268718   5.907   5.855  10.925  0.5373  0.3067  0.0903
15768TIP3    H168719   5.914   5.864  11.020  0.1942 -0.6308  0.2183
15768TIP3    H268720   5.995   5.831  10.897  0.2213 -1.3451  0.4265
15769TIP3   OH268721   5.554   2.500  13.497 -0.2330 -0.5417  0.4134
15769TIP3    H168722   5.536   2.525  13.588 -0.5334  0.0542  0.1971
15769TIP3    H268723   5.467   2.493  13.458 -0.1363 -1.5496  0.3638
15770TIP3   OH268724   4.287   0.319  14.477  0.3297  0.2191  0.1167
15770TIP3    H168725   4.334   0.401  14.463 -2.2366  1.6009 -1.1402
15770TIP3    H268726   4.208   0.326  14.422  0.4546 -3.5316 -0.8519
15771TIP3   OH268727   4.244   4.170  13.513  0.4142  0.1661 -0.1300
15771TIP3    H168728   4.326   4.132  13.481  0.2863 -1.0047  0.8593
15771TIP3    H268729   4.178   4.104  13.495  0.2142 -0.2221  1.8172
15772TIP3   OH268730   4.229   0.408   0.275 -0.5088 -0.1738  0.0246
15772TIP3    H168731   4.184   0.326   0.293  0.1449 -0.6582 -0.4893
15772TIP3    H268732   4.165   0.476   0.297 -1.8127 -0.8369 -1.5468
15773TIP3   OH268733   6.413   3.111  10.800  0.0018 -0.2466  0.2120
15773TIP3    H168734   6.365   3.031  10.780  0.2238 -0.2030 -0.5371
15773TIP3    H268735   6.375   3.177  10.741  0.1675  0.0714  0.4612
15774TIP3   OH268736   2.690   1.569   4.189  0.1756 -0.4583 -0.3517
15774TIP3    H168737   2.712   1.490   4.237  2.4577  1.1720  1.5929
15774TIP3    H268738   2.731   1.557   4.103 -1.1194 -2.0685 -0.7962
15775TIP3   OH268739   3.307   3.808  14.206 -0.4697  0.9727  0.4725
15775TIP3    H168740   3.345   3.749  14.271 -0.2422  0.0304 -0.4921
15775TIP3    H268741   3.213   3.795  14.214 -0.5170  1.7812  1.4451
15776TIP3   OH268742   1.096   2.691   5.019  0.1963  0.0230 -0.1428
15776TIP3    H168743   1.036   2.633   5.066  0.8407 -0.8791 -0.4247
15776TIP3    H268744   1.107   2.766   5.078 -1.8205  0.6097 -0.4136
15777TIP3   OH268745   5.392   5.406   2.241 -0.1266  0.0025  0.0491
15777TIP3    H168746   5.455   5.471   2.210  1.9799 -1.5156  0.9128
15777TIP3    H268747   5.378   5.347   2.167 -0.7681  0.4790 -0.2207
15778TIP3   OH268748   2.084   3.257  16.803  0.1187 -0.3629 -0.2473
15778TIP3    H168749   2.073   3.195  16.875  1.1032  0.9784  1.1252
15778TIP3    H268750   2.003   3.308  16.803 -0.5044 -1.2988 -1.0925
15779TIP3   OH268751   0.671   1.882  16.450  0.0764  0.0085  0.2149
15779TIP3    H168752   0.608   1.928  16.505  0.8000  0.5377  0.6084
15779TIP3    H268753   0.622   1.863  16.370 -1.0676 -0.9694  1.0879
15780TIP3   OH268754   5.082   5.098   4.989  0.4445  0.3954  0.5138
15780TIP3    H168755   5.102   5.119   4.898  0.8880 -0.7522  0.3215
15780TIP3    H268756   5.049   5.008   4.986 -1.4316  1.0120  1.2621
15781TIP3   OH268757   0.923   6.609  15.372  0.4266 -0.5960  0.1132
15781TIP3    H168758   0.993   6.569  15.422  1.5057 -0.0930 -0.9268
15781TIP3    H268759   0.896   6.542  15.309  1.2759 -0.1880 -0.7094
15782TIP3   OH268760   1.569   5.868  16.105  0.4877  0.0510  0.4454
15782TIP3    H168761   1.612   5.953  16.103  0.6442 -0.0116  0.9718
15782TIP3    H268762   1.475   5.888  16.102  0.5400  0.1600 -1.3891
15783TIP3   OH268763   1.085   0.536  16.622 -0.2524 -0.1512 -0.2033
15783TIP3    H168764   1.096   0.564  16.531  1.1387 -1.2883 -0.4257
15783TIP3    H268765   1.011   0.475  16.620  0.0504 -0.5081 -0.6622
15784TIP3   OH268766   6.676   0.283  13.172 -0.1813  0.0303 -0.1116
15784TIP3    H168767   6.615   0.310  13.104  0.1353 -0.2832 -0.5220
15784TIP3    H268768   6.664   0.188  13.178  0.3180 -0.0424 -0.2453
15785TIP3   OH268769   6.062   4.405   4.497 -0.4619  0.3073 -0.0967
15785TIP3    H168770   6.002   4.382   4.569  0.1471  0.6528  0.5331
15785TIP3    H268771   6.103   4.323   4.473  0.3324  0.3982  0.8853
15786TIP3   OH268772   0.746   3.258   5.212 -0.0742  0.5526 -0.1683
15786TIP3    H168773   0.792   3.228   5.133  0.4687 -0.1608  0.4075
15786TIP3    H268774   0.675   3.194   5.224  0.4813  0.0413  0.4997
15787TIP3   OH268775   2.316   5.174  10.710  0.2106  0.0173 -0.3498
15787TIP3    H168776   2.327   5.268  10.704  1.4257 -0.1161 -0.5693
15787TIP3    H268777   2.222   5.159  10.696  0.3393  1.0186 -2.7488
15788TIP3   OH268778   1.742   3.668   5.832  0.2725 -0.0572 -0.0912
15788TIP3    H168779   1.724   3.752   5.874 -0.4558 -0.9805  1.5088
15788TIP3    H268780   1.837   3.668   5.820  0.3287  0.8316  0.2524
15789TIP3   OH268781   4.923   6.480   2.303  0.3187  0.5639 -0.4643
15789TIP3    H168782   4.848   6.535   2.280  0.0643  1.3934  2.0594
15789TIP3    H268783   4.998   6.524   2.261 -0.4264  0.3301 -2.1015
15790TIP3   OH268784   3.522   3.492  12.442 -0.5974  0.6810 -0.2707
15790TIP3    H168785   3.514   3.519  12.534  0.5196 -0.0297  0.0560
15790TIP3    H268786   3.432   3.490  12.410 -1.1570 -0.5340  1.2541
15791TIP3   OH268787   2.364   3.656  12.248  0.4203  0.3562 -0.2013
15791TIP3    H168788   2.417   3.624  12.322 -0.9556 -0.7589  0.3613
15791TIP3    H268789   2.419   3.643  12.171  0.0784 -3.4372 -0.0134
15792TIP3   OH268790   4.831   1.442   2.464  0.0580  0.4773  0.4704
15792TIP3    H168791   4.812   1.500   2.538 -1.1011  0.7758 -0.0416
15792TIP3    H268792   4.848   1.501   2.391 -0.1126  0.1686  0.1829
15793TIP3   OH268793   4.915   0.918  12.818  0.0613  0.5922  0.0316
15793TIP3    H168794   5.003   0.951  12.798  0.3848 -0.2250  0.1043
15793TIP3    H268795   4.870   0.919  12.733  1.1451 -1.9740 -0.6472
15794TIP3   OH268796   6.560   2.289   2.442 -0.2036  0.3336 -0.2042
15794TIP3    H168797   6.491   2.348   2.473 -1.3735  1.0767 -3.7615
15794TIP3    H268798   6.636   2.310   2.496 -2.0723  1.2174  2.2272
15795TIP3   OH268799   6.682   6.184  16.536  0.1089  0.0145  0.4102
15795TIP3    H168800   6.646   6.210  16.452  0.8514  1.8147  0.6141
15795TIP3    H268801   6.777   6.194  16.526  0.2050  0.3041  1.4651
15796TIP3   OH268802   0.914   1.816   1.958 -0.2630  0.0794  0.3177
15796TIP3    H168803   0.824   1.845   1.969  0.2012  0.6864  3.1744
15796TIP3    H268804   0.913   1.724   1.986  0.0764  0.1935  0.7049
15797TIP3   OH268805   5.116   5.322  13.061 -0.2469  0.5734  0.0526
15797TIP3    H168806   5.083   5.363  13.140  1.4819  2.8872 -0.3211
15797TIP3    H268807   5.175   5.387  13.022  0.5496 -1.2540 -2.0645
15798TIP3   OH268808   3.702   0.140   2.262  0.5521  0.4236  0.2673
15798TIP3    H168809   3.764   0.071   2.288  1.1113  0.8702  0.1565
15798TIP3    H268810   3.632   0.093   2.217  1.7762  0.0454 -1.3833
15799TIP3   OH268811   1.506   0.174  13.672 -0.3314  0.2074 -0.0491
15799TIP3    H168812   1.478   0.220  13.751 -1.7477  1.9541 -1.4718
15799TIP3    H268813   1.498   0.239  13.602 -1.2984 -1.8579 -2.0028
15800TIP3   OH268814   1.059   6.411  12.279  0.1592  0.9820  0.2177
15800TIP3    H168815   0.974   6.414  12.322  1.0602  2.6144  2.0579
15800TIP3    H268816   1.049   6.467  12.202 -1.7169 -2.6217 -2.4859
15801TIP3   OH268817   6.725   0.876   0.051  0.5140 -0.6110 -0.3030
15801TIP3    H168818   6.758   0.933  -0.018 -1.0734  0.1642 -0.4815
15801TIP3    H268819   6.689   0.800   0.005 -1.9877  0.6126 -0.5791
15802TIP3   OH268820   0.843   1.711   2.850  0.3848  0.3840 -0.0023
15802TIP3    H168821   0.835   1.664   2.933  1.2915  0.3146  0.0538
15802TIP3    H268822   0.753   1.731   2.826  0.0234 -0.6855  0.3718
15803TIP3   OH268823   6.129   0.912   5.623 -0.0897 -0.3070 -0.1571
15803TIP3    H168824   6.073   0.835   5.622 -0.6646  0.1049 -0.3964
15803TIP3    H268825   6.216   0.879   5.603 -0.4737 -0.7886 -1.0873
15804TIP3   OH268826   1.123   0.565  16.340  0.2032 -0.3726 -0.2870
15804TIP3    H168827   1.152   0.474  16.343  1.2203 -0.2072 -2.6196
15804TIP3    H268828   1.028   0.560  16.329 -0.1178 -1.0390  2.2286
15805TIP3   OH268829   2.869   5.223  17.083  0.2155  0.5315  0.2109
15805TIP3    H168830   2.822   5.207  17.165  2.1763 -0.6728  1.1820
15805TIP3    H268831   2.956   5.253  17.111  1.4039 -1.2730 -1.3346
15806TIP3   OH268832   3.064   2.456  16.592 -0.4878  0.0299  0.1227
15806TIP3    H168833   2.984   2.508  16.599 -0.5715  0.3330 -2.0901
15806TIP3    H268834   3.117   2.505  16.529  0.4056 -1.4183 -0.2845
15807TIP3   OH268835   4.861   2.782  12.923 -0.0555  0.4812 -0.0113
15807TIP3    H168836   4.900   2.869  12.928 -1.0888  0.9798 -0.5529
15807TIP3    H268837   4.901   2.742  12.846 -0.1614  0.7613 -0.2103
15808TIP3   OH268838   5.032   0.474   4.054  0.2182 -0.0576  0.2433
15808TIP3    H168839   4.998   0.562   4.036  1.0099  0.4697  1.2184
15808TIP3    H268840   5.039   0.471   4.149 -1.0088 -1.6579  0.3177
15809TIP3   OH268841   3.928   5.118  14.093  0.6785 -0.2500 -0.2787
15809TIP3    H168842   4.016   5.105  14.129  0.7710  0.8403 -0.0722
15809TIP3    H268843   3.876   5.048  14.132  1.6183 -1.4063 -1.0337
15810TIP3   OH268844   0.922   1.160  14.103 -0.4452  0.1185 -0.1190
15810TIP3    H168845   0.907   1.254  14.091  0.9591  0.4046  0.2466
15810TIP3    H268846   0.996   1.140  14.046  0.1650 -0.4724  0.8591
15811TIP3   OH268847   2.742   4.004  14.016  0.3138  0.0302 -0.0242
15811TIP3    H168848   2.817   4.015  13.958 -1.3513  0.3390 -2.2620
15811TIP3    H268849   2.666   4.003  13.958 -1.4471 -0.3478  2.1159
15812TIP3   OH268850   1.717   2.588  11.459 -0.3241  0.2639  0.2471
15812TIP3    H168851   1.802   2.630  11.474  0.1320 -0.9196  1.1411
15812TIP3    H268852   1.666   2.654  11.412  1.1216  0.9528 -0.4126
15813TIP3   OH268853   1.618   5.754  14.597 -0.0205  1.0229  0.9043
15813TIP3    H168854   1.602   5.695  14.671  0.6897 -0.6348 -0.2262
15813TIP3    H268855   1.712   5.750  14.583 -0.1963  0.9831 -0.3530
15814TIP3   OH268856   4.568   3.204   2.056 -0.2410  0.0111  0.3295
15814TIP3    H168857   4.499   3.266   2.030 -0.6021 -1.0516 -1.3812
15814TIP3    H268858   4.631   3.207   1.985 -0.7479 -2.2540 -0.2916
15815TIP3   OH268859   2.373   2.269   4.232 -0.3747 -0.4993  0.4042
15815TIP3    H168860   2.305   2.277   4.299  0.2549 -0.8351  1.0970
15815TIP3    H268861   2.454   2.255   4.281  0.4390  1.2663 -0.3536
15816TIP3   OH268862   0.154   1.225   4.065  0.1386  0.5817 -0.0940
15816TIP3    H168863   0.068   1.260   4.086 -0.0655 -0.4800  0.9331
15816TIP3    H268864   0.215   1.278   4.115 -0.1105 -0.0310  0.8855
15817TIP3   OH268865   3.756   4.974  12.184  0.3620  0.3431  0.1868
15817TIP3    H168866   3.803   4.901  12.224 -0.8395 -0.8776 -0.5413
15817TIP3    H268867   3.746   4.948  12.092  0.7222  1.8656 -0.3133
15818TIP3   OH268868   4.800   0.007  13.009  0.4302  0.5523  0.2594
15818TIP3    H168869   4.837   0.019  12.921  0.4562  0.2784  0.2315
15818TIP3    H268870   4.794  -0.088  13.019  0.3060  0.5866  0.5043
15819TIP3   OH268871   2.061   6.325  14.331  0.4025  0.4235 -0.1884
15819TIP3    H168872   2.149   6.335  14.293  0.8116 -0.4837  0.4916
15819TIP3    H268873   2.008   6.291  14.260 -0.0819  3.3887 -1.4040
15820TIP3   OH268874   1.702   6.010  14.215 -0.5514  0.2126  0.4378
15820TIP3    H168875   1.743   5.941  14.269 -0.7948  0.8000  1.4041
15820TIP3    H268876   1.628   5.966  14.173  1.9340 -1.3586 -2.7617
15821TIP3   OH268877   1.723   0.273  14.079  0.0987 -0.1357 -0.9947
15821TIP3    H168878   1.728   0.265  13.984  2.4296 -3.6103 -0.7705
15821TIP3    H268879   1.660   0.205  14.106 -0.9985  1.2020 -0.0192
15822TIP3   OH268880   1.435   0.474  10.436 -0.1958  0.1518 -0.1874
15822TIP3    H168881   1.437   0.523  10.518  0.0837 -2.8967  1.7684
15822TIP3    H268882   1.525   0.480  10.402 -0.0558  0.5900  0.2496
15823TIP3   OH268883   5.757   0.321   4.098  0.2423  0.5672  0.3409
15823TIP3    H168884   5.706   0.337   4.019  0.9663 -1.6791 -0.6615
15823TIP3    H268885   5.810   0.401   4.109 -2.0266  2.1490  0.3526
15824TIP3   OH268886   2.693   5.867   2.085  0.0054 -0.2392 -0.2216
15824TIP3    H168887   2.687   5.772   2.072 -1.1587 -0.4046  1.2440
15824TIP3    H268888   2.675   5.904   1.999 -1.3389 -1.3266 -0.4559
15825TIP3   OH268889   0.129   2.332   0.601 -0.4867  0.3208 -0.2408
15825TIP3    H168890   0.192   2.383   0.550  0.3600  0.6161  1.0643
15825TIP3    H268891   0.140   2.362   0.691  0.3539 -2.4012  0.6760
15826TIP3   OH268892   4.359   6.420   1.755  0.3196 -0.5549  0.3941
15826TIP3    H168893   4.423   6.355   1.783 -1.0292 -2.6479 -1.0690
15826TIP3    H268894   4.274   6.382   1.777 -0.5176  1.1694  0.3350
15827TIP3   OH268895   6.125   6.322   3.063  0.8506  0.2201 -0.2377
15827TIP3    H168896   6.216   6.309   3.092  0.9390 -2.5396 -1.4879
15827TIP3    H268897   6.072   6.289   3.136  0.8267  1.3044  0.2558
15828TIP3   OH268898   4.006   0.515  11.090 -0.2671  0.2603 -0.7585
15828TIP3    H168899   3.998   0.562  11.007  0.8828  0.9472 -0.5090
15828TIP3    H268900   4.091   0.472  11.085  0.3718  1.3120  0.5325
15829TIP3   OH268901   2.565   1.556  16.777 -0.3322 -0.5761 -0.2101
15829TIP3    H168902   2.539   1.519  16.861 -0.9911 -0.9646 -0.5802
15829TIP3    H268903   2.634   1.619  16.799 -0.7320 -0.4272  0.6497
15830TIP3   OH268904   3.721   3.039  11.372 -0.8949 -0.0472 -0.0756
15830TIP3    H168905   3.731   3.120  11.321 -1.5708  0.6379  0.8533
15830TIP3    H268906   3.757   3.060  11.458 -1.4020 -0.6237  0.2851
15831TIP3   OH268907   0.250   2.999   0.911  0.0765  0.0752 -0.0862
15831TIP3    H168908   0.297   3.052   0.848  0.0065  1.2485  0.8286
15831TIP3    H268909   0.180   3.056   0.944 -2.2745 -1.6806 -1.6347
15832TIP3   OH268910   0.025   5.708   5.928 -0.3514  0.6865 -0.1776
15832TIP3    H168911   0.058   5.635   5.980  1.5991  0.6832 -1.3146
15832TIP3    H268912   0.006   5.777   5.991  1.8365  0.6487  0.5766
15833TIP3   OH268913   0.086   2.850   1.384  0.0001  0.1399  0.0041
15833TIP3    H168914   0.088   2.838   1.479 -0.2848 -0.8788 -0.0983
15833TIP3    H268915   0.177   2.846   1.357  0.2435  2.1533  0.3976
15834TIP3   OH268916   2.137   6.402  12.784  0.0173  0.0265 -0.3841
15834TIP3    H168917   2.059   6.458  12.788  0.2135  0.2900 -0.0961
15834TIP3    H268918   2.184   6.422  12.865 -0.5339 -1.4984  0.3305
15835TIP3   OH268919   2.445   6.415   5.665 -0.1646 -0.0843  0.1353
15835TIP3    H168920   2.458   6.416   5.760 -2.0138  1.8666  0.4311
15835TIP3    H268921   2.508   6.349   5.634  1.5701  0.2768  2.5160
15836TIP3   OH268922   0.395   6.190   1.972 -0.6530 -0.1271  0.6454
15836TIP3    H168923   0.442   6.181   1.889 -1.4009  1.0139  0.0706
15836TIP3    H268924   0.464   6.198   2.038 -0.0478 -0.5025  0.0761
15837TIP3   OH268925   1.177   4.574   2.121 -0.1698 -0.1325 -0.2439
15837TIP3    H168926   1.109   4.563   2.188  3.0215 -0.3448  3.2962
15837TIP3    H268927   1.167   4.498   2.064 -1.2801 -1.6078  1.7759
15838TIP3   OH268928   5.130   2.395   5.960 -0.0718  0.3291 -0.2921
15838TIP3    H168929   5.116   2.479   6.002 -0.9281  1.6079 -2.8978
15838TIP3    H268930   5.095   2.331   6.022 -0.6877  1.9844  1.1596
15839TIP3   OH268931   4.916   6.460  13.832 -0.1920 -0.2804  0.3723
15839TIP3    H168932   4.995   6.514  13.838  0.1264 -0.8292  1.3803
15839TIP3    H268933   4.875   6.486  13.749  1.1422 -0.1319 -0.2610
15840TIP3   OH268934   1.508   4.076  16.360 -0.4321 -0.4189 -0.1012
15840TIP3    H168935   1.563   4.013  16.313 -0.1101  0.7123 -1.2854
15840TIP3    H268936   1.514   4.049  16.452  0.8521 -1.2544 -0.4081
15841TIP3   OH268937   3.023   4.747  14.625 -0.2739 -1.2686  0.0127
15841TIP3    H168938   2.963   4.691  14.676 -1.3625 -0.1706 -0.0089
15841TIP3    H268939   2.999   4.836  14.651  0.2337 -0.7475 -1.2562
15842TIP3   OH268940   0.913   0.671  11.398  0.0633  0.0541  0.2056
15842TIP3    H168941   0.982   0.737  11.406 -0.1562  0.3472 -0.2750
15842TIP3    H268942   0.954   0.590  11.429  1.2670 -0.2194 -1.8403
15843TIP3   OH268943   0.875   2.966   2.832  0.4990  0.0709  0.4530
15843TIP3    H168944   0.897   2.994   2.921 -0.9013 -0.1876  0.9055
15843TIP3    H268945   0.870   3.047   2.781 -0.5149  0.3985  1.0510
15844TIP3   OH268946   4.124   3.970  11.824  0.6440 -0.4787 -0.1576
15844TIP3    H168947   4.167   3.888  11.848  0.3091 -0.5802  0.1032
15844TIP3    H268948   4.124   3.969  11.728  0.2192 -1.0211 -0.1651
15845TIP3   OH268949   4.722   4.035   1.323 -0.0080 -0.2552  0.0189
15845TIP3    H168950   4.804   3.986   1.320  0.1953  0.0975 -2.6401
15845TIP3    H268951   4.654   3.971   1.301 -0.2367 -0.1675  0.4542
15846TIP3   OH268952   5.669   1.167  11.527 -0.1733 -0.2770 -0.7502
15846TIP3    H168953   5.589   1.218  11.540 -1.6143 -2.3092 -0.9580
15846TIP3    H268954   5.715   1.173  11.611 -0.3442  1.2299 -0.7438
15847TIP3   OH268955   2.463   4.799  14.522 -0.4199  0.0811 -0.1463
15847TIP3    H168956   2.528   4.779  14.454 -0.5980  1.6615 -0.8188
15847TIP3    H268957   2.515   4.820  14.599 -0.1249  0.8605 -0.5463
15848TIP3   OH268958   6.798   5.810  14.048 -0.5525  0.1545 -0.4186
15848TIP3    H168959   6.798   5.875  14.118  2.4972  0.8225 -0.8791
15848TIP3    H268960   6.853   5.739  14.082 -1.6304 -0.9918 -0.9769
15849TIP3   OH268961   2.587   5.831   2.532 -0.2887  0.0588 -0.1619
15849TIP3    H168962   2.543   5.784   2.461  0.8685  2.9520 -3.0528
15849TIP3    H268963   2.680   5.814   2.518 -0.0600 -1.7527  2.6876
15850TIP3   OH268964   4.474   5.376   4.220  0.2150 -0.7134 -0.1448
15850TIP3    H168965   4.539   5.306   4.230  1.0166 -0.4637 -2.8073
15850TIP3    H268966   4.427   5.354   4.140 -4.1519 -1.6517  2.3234
15851TIP3   OH268967   4.993   0.225  12.557  0.3855 -0.1972  1.1134
15851TIP3    H168968   5.040   0.174  12.491  1.7056  0.5481  1.4540
15851TIP3    H268969   5.060   0.251  12.620  0.1688  3.4444  0.0678
15852TIP3   OH268970   0.093   1.667   3.439  0.2287 -0.0969  0.6211
15852TIP3    H168971   0.007   1.663   3.480  0.3196 -1.3771  0.7495
15852TIP3    H268972   0.147   1.606   3.491  0.9041 -0.1399 -0.1106
15853TIP3   OH268973   3.312   0.765  11.632 -0.1321 -0.0007  0.8388
15853TIP3    H168974   3.355   0.818  11.700 -0.0022  2.6032 -1.1124
15853TIP3    H268975   3.383   0.724  11.584 -0.0492  0.6123  0.4298
15854TIP3   OH268976   2.602   3.080  12.886  0.2197  0.0722 -0.0741
15854TIP3    H168977   2.646   3.163  12.907 -0.8002  0.7693 -0.6052
15854TIP3    H268978   2.638   3.017  12.948  0.1683  1.1758  1.1194
15855TIP3   OH268979   4.749   0.810   0.085  0.1575 -0.0448 -0.1239
15855TIP3    H168980   4.773   0.717   0.089 -0.7643 -0.2766  0.2648
15855TIP3    H268981   4.718   0.823  -0.005 -1.6434 -0.6310  0.3696
15856TIP3   OH268982   4.327   3.798   0.235  0.3246 -0.2670 -0.3539
15856TIP3    H168983   4.387   3.867   0.264  0.6469 -1.4250  1.8962
15856TIP3    H268984   4.376   3.750   0.168 -0.1402  1.9832 -2.4600
15857TIP3   OH268985   4.788   5.624  11.252 -0.5705 -0.0534  0.1154
15857TIP3    H168986   4.854   5.595  11.189 -0.4212 -0.7219  0.5663
15857TIP3    H268987   4.821   5.707  11.285 -0.2542 -0.0879 -0.1075
15858TIP3   OH268988   0.302   1.264   1.627 -0.1815  0.1535 -0.1888
15858TIP3    H168989   0.322   1.328   1.559 -1.3831  1.2648  0.4711
15858TIP3    H268990   0.206   1.264   1.634 -0.2980 -2.2750 -0.6812
15859TIP3   OH268991   4.914   4.243   5.914  0.9891 -0.3618 -0.1831
15859TIP3    H168992   5.008   4.257   5.906  0.8786  0.5884  0.0290
15859TIP3    H268993   4.890   4.192   5.837  1.4186  0.8028 -1.1134
15860TIP3   OH268994   0.323   0.395  16.089 -0.2111  0.1265  0.2249
15860TIP3    H168995   0.319   0.450  16.167 -0.7624 -0.8066  0.8815
15860TIP3    H268996   0.416   0.376  16.078 -0.1602 -0.0415  0.8906
15861TIP3   OH268997   4.344   3.586   3.145  0.2592 -0.3262 -0.0911
15861TIP3    H168998   4.426   3.540   3.128  0.2673 -0.8265  1.1724
15861TIP3    H268999   4.365   3.644   3.219 -0.1445  0.6256 -0.7052
15862TIP3   OH269000   6.683   5.948  14.931  0.0406  0.0132 -0.0359
15862TIP3    H169001   6.735   5.867  14.923  0.7784  0.3036  1.5306
15862TIP3    H269002   6.649   5.962  14.843 -0.6725 -2.3713 -0.2163
15863TIP3   OH269003   6.257   1.107   1.709  0.1649 -0.1218 -0.1987
15863TIP3    H169004   6.182   1.050   1.726 -0.0362  0.1858 -0.0595
15863TIP3    H269005   6.282   1.087   1.619  0.3135 -0.6849 -0.0400
15864TIP3   OH269006   0.971   6.285   3.949  0.1044 -0.2149 -0.1139
15864TIP3    H169007   0.895   6.322   3.995  0.8163  0.5147  0.4976
15864TIP3    H269008   1.033   6.358   3.942  1.1357 -1.0406  0.2089
15865TIP3   OH269009   2.159   2.033  12.533 -0.8079 -0.6295 -0.3354
15865TIP3    H169010   2.223   2.073  12.474  0.5467 -1.7008  0.3333
15865TIP3    H269011   2.130   2.105  12.589  0.2342 -0.1949 -0.3158
15866TIP3   OH269012   0.036   0.192  16.576  0.2451  0.2671 -0.2260
15866TIP3    H169013  -0.050   0.229  16.599  0.2351  1.3825 -1.8815
15866TIP3    H269014   0.099   0.254  16.611  0.5748 -1.5927  2.8744
15867TIP3   OH269015   5.489   1.167   6.411  0.0133  0.0320 -0.1301
15867TIP3    H169016   5.455   1.078   6.420 -0.1447  0.1440  0.4316
15867TIP3    H269017   5.469   1.209   6.494  0.4804  0.4623 -0.2263
15868TIP3   OH269018   6.326   1.372   2.760 -0.2714 -0.6687 -0.2422
15868TIP3    H169019   6.329   1.277   2.768 -1.1133 -0.8481 -1.6141
15868TIP3    H269020   6.277   1.402   2.837 -3.2687 -1.7272 -1.5604
15869TIP3   OH269021   4.800   2.613  13.579 -0.1536 -0.1724 -0.1060
15869TIP3    H169022   4.743   2.605  13.656 -0.6475 -2.2530 -0.6070
15869TIP3    H269023   4.884   2.576  13.608  0.1110  0.3754 -0.1644
15870TIP3   OH269024   1.919   5.421   4.298  0.1373 -0.0149 -0.6722
15870TIP3    H169025   1.850   5.406   4.233  0.6349  0.2784 -1.2645
15870TIP3    H269026   1.884   5.490   4.354 -0.4863 -0.5848 -0.3336
15871TIP3   OH269027   1.440   2.782  16.124 -0.2249  0.7178 -0.1334
15871TIP3    H169028   1.409   2.704  16.078  0.0252  1.2292 -1.1769
15871TIP3    H269029   1.479   2.748  16.205  2.6412 -0.5656 -1.9143
15872TIP3   OH269030   2.028   3.172  15.560  0.1530  0.5387 -1.0141
15872TIP3    H169031   1.935   3.164  15.540 -0.0196  0.7342 -0.3101
15872TIP3    H269032   2.034   3.246  15.620  0.6546  0.0032 -0.3831
15873TIP3   OH269033   4.649   1.648   0.836 -0.3387  0.4567  0.1896
15873TIP3    H169034   4.608   1.597   0.905 -1.0671  1.5190  0.5773
15873TIP3    H269035   4.692   1.720   0.882  1.5195 -0.3237 -0.2599
15874TIP3   OH269036   5.699   4.897  15.759  0.3101 -0.7716  0.1486
15874TIP3    H169037   5.646   4.942  15.825  1.7554 -0.1409  0.9277
15874TIP3    H269038   5.707   4.961  15.688  2.1574  0.1988  1.1520
15875TIP3   OH269039   1.461   0.883   6.574 -0.1681 -0.4579 -0.0970
15875TIP3    H169040   1.476   0.892   6.668  0.3289  1.0674 -0.2893
15875TIP3    H269041   1.544   0.849   6.540  0.2674  0.6153 -0.1708
15876TIP3   OH269042   0.818   5.959   2.128 -0.0104 -0.3923 -0.7313
15876TIP3    H169043   0.871   6.014   2.186 -0.2208  0.3594 -1.2371
15876TIP3    H269044   0.741   6.013   2.108 -0.9577 -1.4364 -0.0559
15877TIP3   OH269045   5.928   2.548   2.154  0.1965  0.4152 -0.2711
15877TIP3    H169046   5.892   2.460   2.167  1.4803 -0.0114  0.6215
15877TIP3    H269047   5.870   2.588   2.090 -0.9540 -0.7591 -0.0142
15878TIP3   OH269048   2.817   4.870   2.753  0.0161 -0.2385 -0.4753
15878TIP3    H169049   2.806   4.834   2.665  0.5608  1.1252 -1.1330
15878TIP3    H269050   2.758   4.945   2.756  0.8194  0.3993 -0.1010
15879TIP3   OH269051   0.728   6.202   3.424 -0.5138  0.3306 -1.0935
15879TIP3    H169052   0.783   6.268   3.383  1.4737 -0.7037 -0.2134
15879TIP3    H269053   0.728   6.225   3.517 -2.3028  0.7893 -1.1727
15880TIP3   OH269054   3.440   1.729   0.575 -0.3231  0.1669 -0.0973
15880TIP3    H169055   3.374   1.661   0.564 -0.9967  0.8509 -0.4073
15880TIP3    H269056   3.406   1.784   0.646  0.8860 -0.5850  1.1199
15881TIP3   OH269057   0.199   0.856   4.656  0.4737 -1.4342  0.1840
15881TIP3    H169058   0.146   0.845   4.577 -0.2142  1.3379  0.1614
15881TIP3    H269059   0.280   0.809   4.636  1.3365  1.0309 -3.2708
15882TIP3   OH269060   1.686   5.850   3.567  0.6138 -0.2627  0.2909
15882TIP3    H169061   1.671   5.903   3.645 -0.4720 -1.4295  0.9256
15882TIP3    H269062   1.735   5.774   3.599  1.1036 -0.2341 -0.3696
15883TIP3   OH269063   1.094   4.206   6.395  0.1305 -0.0718  0.1340
15883TIP3    H169064   1.004   4.232   6.372 -0.4127 -0.8460  1.2990
15883TIP3    H269065   1.146   4.230   6.318 -1.2940 -0.8497 -1.1341
15884TIP3   OH269066   5.213   5.672   3.335  0.1198 -0.0397 -0.4011
15884TIP3    H169067   5.158   5.602   3.299  0.5341 -0.4099 -0.3152
15884TIP3    H269068   5.303   5.647   3.312  0.6690 -1.5195  2.8869
15885TIP3   OH269069   4.706   1.597  15.304  0.1356 -0.0259 -0.4070
15885TIP3    H169070   4.745   1.648  15.233  1.1210  2.1439  1.5738
15885TIP3    H269071   4.778   1.580  15.364 -0.9202 -0.7079  0.6982
15886TIP3   OH269072   5.581   4.072  11.532 -0.7782 -0.3279  0.2867
15886TIP3    H169073   5.606   4.060  11.624  0.2712 -0.2211  0.0311
15886TIP3    H269074   5.665   4.071  11.485 -1.2038  0.8187 -0.5374
15887TIP3   OH269075   3.797   1.472   1.987  0.0706 -0.8114 -0.3264
15887TIP3    H169076   3.795   1.523   2.068  0.0325 -0.1327 -0.7454
15887TIP3    H269077   3.852   1.524   1.928 -2.0723  0.1037 -1.6420
15888TIP3   OH269078   4.116   0.792   0.621 -0.6928 -0.2447  0.0679
15888TIP3    H169079   4.201   0.813   0.584 -0.5824 -1.2959 -0.3111
15888TIP3    H269080   4.106   0.853   0.695  0.9976 -1.0271  0.9869
15889TIP3   OH269081   0.710   5.926  17.012 -0.2572 -0.0947 -0.6193
15889TIP3    H169082   0.757   5.944  16.930 -0.3946 -0.2792 -0.7384
15889TIP3    H269083   0.775   5.882  17.067  0.7527  2.5218  0.4554
15890TIP3   OH269084   0.675   4.181   2.847  0.2167 -0.0959  0.1699
15890TIP3    H169085   0.761   4.143   2.867 -0.1312  0.7756  3.8507
15890TIP3    H269086   0.612   4.112   2.870 -0.1945  0.4913  0.8075
15891TIP3   OH269087   6.696   4.188  11.426 -0.0968 -0.0411  0.2798
15891TIP3    H169088   6.739   4.156  11.346  1.0323  4.5712 -1.3286
15891TIP3    H269089   6.616   4.229  11.394  0.0119  1.2512  1.5675
15892TIP3   OH269090   3.921   0.655  15.270  0.3215  0.1699  0.3044
15892TIP3    H169091   4.007   0.618  15.251  1.0602  0.9263  1.9691
15892TIP3    H269092   3.897   0.703  15.191  1.2348 -0.3828 -0.3228
15893TIP3   OH269093   4.049   4.863   1.174 -0.4069 -0.2042 -0.0450
15893TIP3    H169094   4.000   4.888   1.253  1.0095  1.6590  0.3122
15893TIP3    H269095   4.126   4.919   1.175  0.6269 -1.4949 -1.7710
15894TIP3   OH269096   3.336   4.724   3.807 -0.2184  0.0236  0.3021
15894TIP3    H169097   3.341   4.793   3.741  3.9152 -1.9916 -1.8229
15894TIP3    H269098   3.302   4.769   3.885  1.4097  4.2619 -1.1259
15895TIP3   OH269099   6.697   0.020  15.685  0.1980  0.6138  0.1675
15895TIP3    H169100   6.608  -0.011  15.702  0.8620 -1.5639 -0.0029
15895TIP3    H269101   6.753  -0.047  15.724  1.8071  2.5293  1.3215
15896TIP3   OH269102   5.616   3.021  12.126 -0.2070  0.0117  0.2057
15896TIP3    H169103   5.700   3.006  12.170  0.5679  0.0209 -1.1970
15896TIP3    H269104   5.605   2.944  12.069 -1.2495 -0.0825  0.5131
15897TIP3   OH269105   1.842   5.867   0.055  0.6673  0.6527 -0.5735
15897TIP3    H169106   1.826   5.818   0.136  0.9786 -0.1751 -0.9972
15897TIP3    H269107   1.912   5.819   0.011  0.4926  1.0775 -1.3464
15898TIP3   OH269108   3.774   2.669   2.760  0.0164  0.1649  0.1826
15898TIP3    H169109   3.787   2.597   2.698  0.0854  0.9013 -0.6684
15898TIP3    H269110   3.858   2.713   2.765 -0.5142  1.3455 -0.7873
15899TIP3   OH269111   0.369   3.529  12.078  0.4417  0.1640  0.2654
15899TIP3    H169112   0.370   3.525  12.174 -0.7269 -3.0024  0.2580
15899TIP3    H269113   0.430   3.461  12.050 -3.1945 -2.9449 -1.0388
15900TIP3   OH269114   0.456   4.531   2.601  0.2617  0.0499  0.0157
15900TIP3    H169115   0.531   4.499   2.651 -1.0496 -1.7205  0.9777
15900TIP3    H269116   0.438   4.461   2.539 -1.0433  0.0822  0.3293
15901TIP3   OH269117   6.565   1.774  12.125  0.9171  0.0588  0.2084
15901TIP3    H169118   6.611   1.709  12.178  0.4719 -1.9640 -1.7180
15901TIP3    H269119   6.482   1.732  12.104 -0.2570  2.1104  0.5152
15902TIP3   OH269120   3.335   5.063   0.447 -0.3505  0.3127 -0.0324
15902TIP3    H169121   3.355   5.131   0.382  1.0666 -0.2663 -0.2286
15902TIP3    H269122   3.419   5.023   0.467 -1.3442 -2.9070 -1.5656
15903TIP3   OH269123   5.838   4.317   5.338  0.0035 -0.0402 -0.2794
15903TIP3    H169124   5.775   4.246   5.330 -0.2122 -0.0866  1.3984
15903TIP3    H269125   5.793   4.393   5.301 -0.1111 -0.5696 -1.2496
15904TIP3   OH269126   2.333   2.927  16.435  0.3673  0.6573 -0.4535
15904TIP3    H169127   2.299   2.938  16.346  1.6137  0.2950 -0.9925
15904TIP3    H269128   2.323   3.013  16.475 -0.1582  0.8376 -0.9559
15905TIP3   OH269129   4.647   3.700   5.115 -0.2606 -0.1808 -0.5256
15905TIP3    H169130   4.577   3.742   5.064  0.9483  1.2316 -1.0885
15905TIP3    H269131   4.728   3.733   5.075  0.7372 -2.0219 -0.0849
15906TIP3   OH269132   0.431   2.239  14.985 -0.0890 -0.0692 -0.1835
15906TIP3    H169133   0.360   2.271  14.929 -1.5166 -0.2556  1.4475
15906TIP3    H269134   0.511   2.264  14.938 -1.1938  1.3366 -1.4385
15907TIP3   OH269135   1.009   4.593   2.336  0.2982  0.4576  0.1349
15907TIP3    H169136   0.980   4.513   2.379  1.0373 -0.7923 -1.5820
15907TIP3    H269137   1.093   4.613   2.378  0.7454 -0.4257 -0.3085
15908TIP3   OH269138   3.115   5.347   4.472 -0.0822  0.3177  0.2521
15908TIP3    H169139   3.206   5.350   4.444 -0.2814  0.9589 -0.3644
15908TIP3    H269140   3.070   5.298   4.404  0.1897 -2.1723  1.7628
15909TIP3   OH269141   3.479   3.423  11.252 -0.4550 -0.2232 -0.3539
15909TIP3    H169142   3.532   3.413  11.173  1.4106 -2.1720  1.0390
15909TIP3    H269143   3.429   3.342  11.259 -0.6661 -0.0396  0.4063
15910TIP3   OH269144   5.377   3.616   0.480  0.0731  0.5088 -0.2161
15910TIP3    H169145   5.314   3.684   0.457 -0.2551  0.9561  1.8360
15910TIP3    H269146   5.324   3.536   0.485  0.0439  0.5123 -0.4633
15911TIP3   OH269147   3.666   3.926   4.372  0.1726  0.2427  0.2069
15911TIP3    H169148   3.746   3.953   4.327  0.1145  2.6256  1.3718
15911TIP3    H269149   3.595   3.962   4.319 -0.2639 -2.3471 -1.1409
15912TIP3   OH269150   4.519   1.037   2.162 -0.3430 -0.0927  0.0077
15912TIP3    H169151   4.503   0.943   2.158  1.2542 -0.4512  0.9737
15912TIP3    H269152   4.449   1.076   2.110 -1.5369 -1.7494  0.2987
15913TIP3   OH269153   2.292   3.732  15.252  0.3666 -0.4092  0.2904
15913TIP3    H169154   2.388   3.735  15.246  0.3522 -0.0430  0.1981
15913TIP3    H269155   2.262   3.738  15.161  0.2668 -1.1594  0.2721
15914TIP3   OH269156   3.772   0.587  13.591 -0.2737 -0.0819 -1.2505
15914TIP3    H169157   3.700   0.560  13.534 -0.8547 -1.6456  0.1538
15914TIP3    H269158   3.824   0.507  13.602 -0.0962  0.2221  0.2882
15915TIP3   OH269159   4.509   6.629   1.899  0.1875  0.0398  0.0428
15915TIP3    H169160   4.579   6.568   1.924  1.1294  0.9136 -0.3730
15915TIP3    H269161   4.442   6.574   1.859  0.1258 -0.9691  1.4614
15916TIP3   OH269162   5.169   4.551  14.004 -0.0673 -0.1210  0.0126
15916TIP3    H169163   5.198   4.505  14.083  1.2290 -0.0255 -0.3837
15916TIP3    H269164   5.234   4.620  13.992 -0.9567  0.6550 -0.4448
15917TIP3   OH269165   0.762   3.060   5.492 -0.1476 -0.1159 -0.4314
15917TIP3    H169166   0.774   3.007   5.413 -0.1997  0.5480 -0.8928
15917TIP3    H269167   0.686   3.020   5.535 -0.7273  0.0960 -1.2175
15918TIP3   OH269168   2.151   4.360  14.954 -0.2424 -0.4652 -0.3517
15918TIP3    H169169   2.205   4.421  15.005 -1.6093 -0.1320  0.7736
15918TIP3    H269170   2.180   4.372  14.864  0.2527  1.0954 -0.0161
15919TIP3   OH269171   3.844   2.964  12.290 -0.1360 -0.3302  0.4521
15919TIP3    H169172   3.877   3.043  12.333 -0.2765  0.9377 -1.6610
15919TIP3    H269173   3.919   2.904  12.288  0.4974  0.4602  0.4109
15920TIP3   OH269174   2.517   1.881   4.753 -0.0979 -0.1391  0.5006
15920TIP3    H169175   2.445   1.821   4.735  0.0004 -0.2889  0.6137
15920TIP3    H269176   2.557   1.848   4.833  0.2864 -0.2291  0.2747
15921TIP3   OH269177   4.681   3.094   0.899  0.3462  0.6247  0.8448
15921TIP3    H169178   4.744   3.159   0.865 -0.2223  1.3291  1.1199
15921TIP3    H269179   4.602   3.108   0.846  0.1976  0.2068  0.9573
15922TIP3   OH269180   6.178   0.349  14.688 -0.1485  0.4770  0.0693
15922TIP3    H169181   6.243   0.328  14.755  0.1808  1.1871 -0.0103
15922TIP3    H269182   6.229   0.386  14.616 -0.5858  0.5378 -0.2147
15923TIP3   OH269183   6.349   4.078   1.234 -0.7012  0.0284  0.5304
15923TIP3    H169184   6.277   4.018   1.217  0.0411 -0.5394 -0.7686
15923TIP3    H269185   6.423   4.022   1.259 -0.3389  0.4829  0.4987
15924TIP3   OH269186   2.279   4.093   6.609  0.0698 -0.4823 -0.0002
15924TIP3    H169187   2.230   4.176   6.610  0.7988 -0.0198  2.0019
15924TIP3    H269188   2.247   4.048   6.530 -2.2710  0.5387  0.2586
15925TIP3   OH269189   1.560   6.455   0.358  0.5535  0.2810  0.2645
15925TIP3    H169190   1.593   6.495   0.439  0.3448  0.5961  0.1938
15925TIP3    H269191   1.494   6.392   0.388  0.9611 -0.1017  0.3831
15926TIP3   OH269192   6.074   3.095   1.994  0.3264 -0.2477  0.2668
15926TIP3    H169193   6.136   3.135   1.932 -0.3452  0.6404  0.1545
15926TIP3    H269194   5.988   3.125   1.966 -0.4973 -3.4278 -1.1027
15927TIP3   OH269195   3.182   2.953   2.772  0.2122 -0.3918  0.3457
15927TIP3    H169196   3.258   2.904   2.802 -0.0924 -0.9959  0.1405
15927TIP3    H269197   3.198   3.043   2.801  1.3614 -0.3600 -0.3361
15928TIP3   OH269198   4.899   5.494  16.205  0.5557 -0.1023  0.1485
15928TIP3    H169199   4.990   5.516  16.227  0.9329  0.0837 -1.4962
15928TIP3    H269200   4.882   5.413  16.254  1.4260  0.1447  0.8872
15929TIP3   OH269201   0.679   4.464   2.825 -0.1943  0.2705 -0.0911
15929TIP3    H169202   0.655   4.372   2.836 -0.9771  0.2477 -1.7834
15929TIP3    H269203   0.628   4.509   2.893 -1.5976 -0.3110 -0.7081
15930TIP3   OH269204   1.455   1.313  14.902 -0.4990 -0.2636 -0.1041
15930TIP3    H169205   1.381   1.363  14.936 -1.6848 -2.2562  0.3759
15930TIP3    H269206   1.420   1.225  14.887  1.6309 -1.1123 -0.4402
15931TIP3   OH269207   3.054   3.924  12.106  0.2089 -0.3067 -0.4773
15931TIP3    H169208   3.129   3.978  12.132  0.5180 -1.1724  0.5053
15931TIP3    H269209   3.006   3.909  12.187  0.4064 -1.9124 -0.6308
15932TIP3   OH269210   3.970   5.501  17.127  0.0546  0.4853  0.3174
15932TIP3    H169211   4.004   5.434  17.186  0.0507 -1.0176 -1.3156
15932TIP3    H269212   4.002   5.584  17.163  2.0767 -0.5657  1.0726
15933TIP3   OH269213   5.045   2.792  11.438  0.3099 -0.0995 -0.0237
15933TIP3    H169214   5.081   2.843  11.366  1.0708  2.3211  1.9404
15933TIP3    H269215   5.121   2.761  11.487 -0.1570  0.9766  1.4689
15934TIP3   OH269216   4.446   1.425  16.826 -0.9566  0.1985 -0.1569
15934TIP3    H169217   4.406   1.364  16.763  1.1622  0.3774 -1.8007
15934TIP3    H269218   4.472   1.370  16.899 -2.2611 -0.2479 -0.0015
15935TIP3   OH269219   2.604   2.642  11.093 -0.2703  0.0025 -0.5679
15935TIP3    H169220   2.681   2.599  11.055 -0.4181  0.5613 -1.5208
15935TIP3    H269221   2.534   2.628  11.030 -1.4143 -1.8603  1.0181
15936TIP3   OH269222   3.412   6.799   3.318 -0.4310 -0.7713  0.2110
15936TIP3    H169223   3.341   6.845   3.274  0.4809 -0.8178 -1.4028
15936TIP3    H269224   3.398   6.707   3.297  1.1835 -0.6266 -1.9456
15937TIP3   OH269225   0.604   0.349   2.555  0.1240 -0.6210  0.0977
15937TIP3    H169226   0.592   0.327   2.462 -1.9477 -1.3889  0.4982
15937TIP3    H269227   0.611   0.264   2.599 -0.2677 -0.2885  0.8083
15938TIP3   OH269228   1.095   4.839  16.213  0.5049  0.5265  0.5987
15938TIP3    H169229   1.068   4.756  16.253 -0.6530  0.0644 -1.0346
15938TIP3    H269230   1.160   4.814  16.148 -1.2927  0.5588 -1.3340
15939TIP3   OH269231   6.655   0.241  11.809  0.0029  0.0390 -0.1408
15939TIP3    H169232   6.680   0.166  11.862 -2.2466 -1.2806 -0.8217
15939TIP3    H269233   6.670   0.213  11.718 -1.5264  0.0898 -0.4408
15940TIP3   OH269234   1.870   0.416   4.972 -0.3982 -0.2571 -0.3682
15940TIP3    H169235   1.961   0.436   4.995 -0.4807 -0.3915  0.0888
15940TIP3    H269236   1.869   0.321   4.962 -0.5006 -0.2594 -0.3305
15941TIP3   OH269237   2.931   5.260   5.430  0.0536  0.2181  0.6856
15941TIP3    H169238   2.910   5.349   5.403  0.4056 -0.0922 -0.6597
15941TIP3    H269239   2.850   5.228   5.470 -0.1473  1.0499  0.9694
15942TIP3   OH269240   6.338   3.629  16.679 -0.0933  0.2803 -0.1882
15942TIP3    H169241   6.303   3.718  16.679  1.6201  1.0839 -2.7309
15942TIP3    H269242   6.301   3.588  16.757 -1.7591  2.8783  0.5071
15943TIP3   OH269243   0.191   3.900  11.966  0.3027  0.2811  0.0419
15943TIP3    H169244   0.140   3.820  11.975  0.2599  0.3452  0.3990
15943TIP3    H269245   0.126   3.970  11.961  0.3265  0.2540 -0.7784
15944TIP3   OH269246   0.425   2.804  12.045 -0.5408  0.3073 -0.3390
15944TIP3    H169247   0.492   2.773  12.107 -0.5318  2.0893  0.5990
15944TIP3    H269248   0.366   2.729  12.034  1.2376 -1.1079 -0.7080
15945TIP3   OH269249   2.327   6.375   2.084  0.0125 -0.4118  0.5121
15945TIP3    H169250   2.352   6.459   2.047  0.6460 -0.1276  1.5431
15945TIP3    H269251   2.381   6.311   2.038 -0.8518 -0.3394 -0.6531
15946TIP3   OH269252   4.711   3.590  16.398  0.5327  0.6042  0.2279
15946TIP3    H169253   4.632   3.545  16.427  0.5738  0.1205 -0.3904
15946TIP3    H269254   4.779   3.560  16.457  0.0944  1.7334  1.3622
15947TIP3   OH269255   0.864   4.756  15.374  0.1169 -0.1484  0.0307
15947TIP3    H169256   0.839   4.710  15.294 -0.0540  0.0754 -0.0469
15947TIP3    H269257   0.797   4.730  15.438  1.6401 -2.3156  0.8372
15948TIP3   OH269258   5.578   5.829   5.603  0.1634  0.4024 -0.2555
15948TIP3    H169259   5.641   5.778   5.653  1.8587  0.6015 -2.0606
15948TIP3    H269260   5.607   5.919   5.613 -1.1061  0.7437  0.5719
15949TIP3   OH269261   1.131   1.349  13.461 -0.3274  0.1612  0.0724
15949TIP3    H169262   1.161   1.297  13.535  0.4411 -0.1083 -0.4215
15949TIP3    H269263   1.106   1.285  13.395  0.0970  0.4065 -0.3338
15950TIP3   OH269264   6.603   5.495  15.366 -0.8034  0.3105 -0.7118
15950TIP3    H169265   6.598   5.414  15.316 -0.3302 -0.8093  0.9601
15950TIP3    H269266   6.512   5.519  15.382 -0.9888 -0.9294  0.3088
15951TIP3   OH269267   2.163   6.508  13.574  0.1944  0.3635 -0.4138
15951TIP3    H169268   2.216   6.542  13.646  0.5194  0.7210 -0.8195
15951TIP3    H269269   2.175   6.571  13.503 -2.3767  1.6152  0.1169
15952TIP3   OH269270   1.752   3.082   5.428  0.4638  0.0723  0.5494
15952TIP3    H169271   1.667   3.040   5.442 -0.4064  1.6457  0.2113
15952TIP3    H269272   1.808   3.012   5.396 -0.7770 -0.9458  0.5186
15953TIP3   OH269273   0.991   3.335  16.090  0.5312  0.1499 -0.1977
15953TIP3    H169274   0.934   3.283  16.035  0.2190  0.1241  0.1468
15953TIP3    H269275   1.071   3.347  16.038  0.5939 -0.6347 -0.2896
15954TIP3   OH269276   3.827   2.232  16.334 -0.1227 -0.7246  0.3402
15954TIP3    H169277   3.773   2.311  16.336  0.9164  0.0412 -0.5672
15954TIP3    H269278   3.917   2.264  16.337  0.3399 -1.8269 -0.7803
15955TIP3   OH269279   4.711   0.752  13.523 -0.1499  0.2904  0.0001
15955TIP3    H169280   4.780   0.754  13.457  1.4372  2.5115  1.6113
15955TIP3    H269281   4.664   0.834  13.512 -0.0484  0.5662  1.4166
15956TIP3   OH269282   6.648   3.358   4.854 -0.5923  0.0032  0.3596
15956TIP3    H169283   6.600   3.419   4.798  1.5047 -0.4759 -2.1739
15956TIP3    H269284   6.622   3.272   4.823  0.8043 -0.2678 -0.1215
15957TIP3   OH269285   4.338   5.368  12.746  0.0736 -0.2961 -0.5196
15957TIP3    H169286   4.243   5.370  12.733  0.1460  1.2892 -1.0124
15957TIP3    H269287   4.354   5.287  12.794 -1.3660 -1.3205 -1.6738
15958TIP3   OH269288   3.031   6.173   6.024 -0.0754 -0.5307  0.2651
15958TIP3    H169289   3.001   6.082   6.021 -1.3991 -0.0935 -1.6034
15958TIP3    H269290   2.992   6.210   6.103  0.0321 -1.4287  0.7475
15959TIP3   OH269291   6.491   4.008  16.742 -0.2050 -0.0651  0.1412
15959TIP3    H169292   6.465   4.094  16.773 -0.2858  0.2572 -0.8208
15959TIP3    H269293   6.555   4.025  16.673 -0.4193 -0.7650 -0.2389
15960TIP3   OH269294   0.385   3.534  11.228 -0.6153 -0.1233 -0.5870
15960TIP3    H169295   0.439   3.538  11.150 -0.0227 -0.0445 -0.1824
15960TIP3    H269296   0.397   3.619  11.270 -2.7464  0.7332 -1.5791
15961TIP3   OH269297   3.126   4.884  11.121  0.2857  0.1943 -0.4575
15961TIP3    H169298   3.075   4.806  11.143  1.1745  0.0289  1.1687
15961TIP3    H269299   3.169   4.862  11.039 -3.7902  1.1207 -3.1371
15962TIP3   OH269300   1.755   5.963   1.241 -0.1629  0.1619 -0.1578
15962TIP3    H169301   1.667   5.958   1.278  0.5325 -2.0753  1.3861
15962TIP3    H269302   1.745   5.932   1.151 -1.2452  1.9486 -0.6964
15963TIP3   OH269303   4.779   5.649  11.633 -0.1598  0.0290 -0.2722
15963TIP3    H169304   4.758   5.578  11.572  1.1688  0.0255 -0.7518
15963TIP3    H269305   4.874   5.655  11.631 -0.2533  2.1443 -0.6045
15964TIP3   OH269306   5.057   2.703   5.106 -0.4334 -0.4753 -0.6513
15964TIP3    H169307   5.081   2.707   5.199  0.3405  0.3469 -0.8708
15964TIP3    H269308   5.003   2.781   5.092 -2.0614 -1.5537 -0.4929
15965TIP3   OH269309   6.773   1.846  14.805 -0.0516  0.1345  0.3897
15965TIP3    H169310   6.729   1.829  14.888  1.5562  2.0720  1.7435
15965TIP3    H269311   6.865   1.827  14.822  0.5089  1.8357 -0.5120
15966TIP3   OH269312   6.796   5.561   4.211  0.3839 -0.1692 -0.0448
15966TIP3    H169313   6.761   5.603   4.133 -1.3887 -0.4191  0.5659
15966TIP3    H269314   6.789   5.629   4.279 -0.1166 -0.6267  0.3699
15967TIP3   OH269315   2.833   0.449  11.168 -0.1396  0.6070  0.0480
15967TIP3    H169316   2.846   0.402  11.086 -0.4555 -0.9935  0.8800
15967TIP3    H269317   2.739   0.470  11.168  0.1470  2.0430 -0.7025
15968TIP3   OH269318   1.739   0.285   1.111 -0.0624 -0.2431 -0.7636
15968TIP3    H169319   1.722   0.239   1.029  0.4841 -1.6207 -0.1252
15968TIP3    H269320   1.801   0.355   1.086  0.4901 -0.9548 -1.4363
15969TIP3   OH269321   1.246   4.998  11.419 -0.1670  0.1562  0.1587
15969TIP3    H169322   1.292   5.080  11.404  0.1210 -0.3519 -2.0756
15969TIP3    H269323   1.154   5.021  11.416 -0.0834  0.5700  0.6973
15970TIP3   OH269324   3.992   1.099   1.901 -0.1483  1.0627 -0.7119
15970TIP3    H169325   3.900   1.113   1.924  0.1492  1.0193  0.6115
15970TIP3    H269326   4.011   1.166   1.836 -1.2518  0.7244 -1.4129
15971TIP3   OH269327   2.244   4.023   1.170  0.0762 -0.0187  0.2265
15971TIP3    H169328   2.239   4.119   1.163  0.6923  0.0248  0.3765
15971TIP3    H269329   2.173   3.992   1.114  0.3839  0.5006 -0.4644
15972TIP3   OH269330   1.200   0.469  11.208  0.1789 -0.2978  0.2817
15972TIP3    H169331   1.275   0.509  11.252 -0.4135 -0.4779  1.4682
15972TIP3    H269332   1.201   0.508  11.120  0.5091  1.1914  0.9108
15973TIP3   OH269333   5.047   4.860   5.266 -0.5404  0.5724 -0.0188
15973TIP3    H169334   5.009   4.872   5.178  0.6660  1.1165 -0.4884
15973TIP3    H269335   5.140   4.875   5.253 -0.1549 -0.7208  1.1087
15974TIP3   OH269336   1.955   1.002  16.061 -0.0790  0.2805  0.5414
15974TIP3    H169337   1.876   0.968  16.020  1.3352  0.1895 -2.3722
15974TIP3    H269338   2.001   0.925  16.093  0.1573  0.0148 -0.3946
15975TIP3   OH269339   2.404   1.378  13.736  0.3663 -0.0626  0.3544
15975TIP3    H169340   2.391   1.444  13.668  0.9063  1.1336  1.3670
15975TIP3    H269341   2.343   1.403  13.806 -1.0856 -1.9962 -0.1421
15976TIP3   OH269342   2.683   4.841   1.329  0.7021  0.5798  0.3841
15976TIP3    H169343   2.745   4.864   1.399  0.2595 -0.0083  0.9821
15976TIP3    H269344   2.597   4.866   1.363  0.4100 -0.2754  0.3144
15977TIP3   OH269345   4.337   1.595  13.078  0.0909 -0.0764  0.2714
15977TIP3    H169346   4.265   1.535  13.060 -0.5777  0.3778  1.3506
15977TIP3    H269347   4.306   1.649  13.150  0.4254  2.0063 -1.0555
15978TIP3   OH269348   3.513   1.734  11.316  0.1671  0.4334  0.2272
15978TIP3    H169349   3.476   1.788  11.246 -0.8317  0.2521  0.5983
15978TIP3    H269350   3.456   1.657  11.320  0.4759  0.2305  0.9464
15979TIP3   OH269351   5.064   0.732  12.934 -0.5614 -0.2289  0.4337
15979TIP3    H169352   5.004   0.791  12.889 -1.9119 -0.9485  1.2439
15979TIP3    H269353   5.079   0.774  13.019  2.4473  1.4340 -0.7606
15980TIP3   OH269354   1.468   1.779  16.300  0.5740 -0.0422 -0.2047
15980TIP3    H169355   1.542   1.839  16.310 -0.9180  1.9494 -0.3227
15980TIP3    H269356   1.439   1.761  16.390  0.1787  0.5806 -0.1992
15981TIP3   OH269357   3.372   1.685   5.910  0.4955  0.0587  0.0451
15981TIP3    H169358   3.336   1.629   5.979 -1.4858  1.0914 -0.0964
15981TIP3    H269359   3.452   1.721   5.949 -1.5887  2.2090  2.7213
15982TIP3   OH269360   2.589   0.477  16.923 -1.2072  0.7266  0.2931
15982TIP3    H169361   2.589   0.566  16.959  0.9807  1.5863 -1.6078
15982TIP3    H269362   2.681   0.459  16.904 -1.7266 -1.5552 -0.3560
15983TIP3   OH269363   4.087   2.169  12.801 -0.2089  0.2340 -0.1253
15983TIP3    H169364   4.032   2.091  12.813  0.1811 -0.0373 -0.0768
15983TIP3    H269365   4.173   2.134  12.776 -0.0458  0.6525 -0.1587
15984TIP3   OH269366   2.313   0.838   4.772 -0.5139  0.3334  0.5763
15984TIP3    H169367   2.390   0.894   4.775 -0.6763  0.5382  0.9618
15984TIP3    H269368   2.321   0.782   4.849 -0.1084 -0.5028 -0.0629
15985TIP3   OH269369   2.885   0.735  15.936  0.1579  0.4229  0.4420
15985TIP3    H169370   2.821   0.787  15.985  0.6948  0.5694  0.9961
15985TIP3    H269371   2.882   0.772  15.848 -0.6710  0.2865  0.3959
15986TIP3   OH269372   4.913   5.414  16.952 -0.2220  0.3968 -0.2158
15986TIP3    H169373   4.986   5.356  16.929 -1.2370 -1.6500  1.3553
15986TIP3    H269374   4.929   5.494  16.903  2.9828 -0.0265 -0.0555
15987TIP3   OH269375   4.286   4.808  16.114  0.5302  0.4007  0.3091
15987TIP3    H169376   4.340   4.731  16.131  1.4425  1.2693  1.6122
15987TIP3    H269377   4.225   4.811  16.188 -0.5959  0.0233 -0.5956
15988TIP3   OH269378   0.840   6.022   5.964 -0.5192  0.5600  0.0742
15988TIP3    H169379   0.776   5.954   5.985 -1.8973  1.2672 -1.6019
15988TIP3    H269380   0.918   5.997   6.014 -0.7987 -2.5046 -0.7967
15989TIP3   OH269381   6.322   3.012   2.677  0.0625 -0.0215 -0.0812
15989TIP3    H169382   6.354   2.924   2.697  0.1297  0.0460  0.1097
15989TIP3    H269383   6.344   3.025   2.585 -0.3982 -0.4013 -0.2535
15990TIP3   OH269384   6.545   5.007   4.068 -0.2668  0.4796 -0.0214
15990TIP3    H169385   6.626   5.041   4.107  0.5093 -0.4185 -0.8044
15990TIP3    H269386   6.537   4.918   4.104 -0.0860  0.0174 -1.0880
15991TIP3   OH269387   6.266   1.824  12.903  0.3906 -0.3901 -0.3870
15991TIP3    H169388   6.221   1.865  12.829  0.2888 -0.3751 -0.3168
15991TIP3    H269389   6.359   1.826  12.878  0.1437 -3.0059 -1.8141
15992TIP3   OH269390   5.221   4.432   0.308  0.2735 -0.4649  0.5298
15992TIP3    H169391   5.164   4.460   0.237 -0.5049 -0.8021  1.0038
15992TIP3    H269392   5.260   4.513   0.341  0.4911 -0.2877 -0.1480
15993TIP3   OH269393   2.159   0.653   3.275  0.1226  0.2455  0.5453
15993TIP3    H169394   2.118   0.568   3.289 -1.3180  0.8411  0.1307
15993TIP3    H269395   2.221   0.662   3.347 -0.2879 -0.8134  1.0480
15994TIP3   OH269396   0.163   5.952  15.956 -0.1320 -0.9067 -0.1779
15994TIP3    H169397   0.207   6.002  15.887  0.8774 -0.7246  0.5826
15994TIP3    H269398   0.226   5.883  15.980 -1.1094 -1.9538 -0.5282
15995TIP3   OH269399   5.286   3.273  15.426 -0.0137 -0.5383 -0.1728
15995TIP3    H169400   5.244   3.356  15.449  2.3326  0.2807  1.5963
15995TIP3    H269401   5.376   3.297  15.403  0.2188 -2.4263 -1.4767
15996TIP3   OH269402   4.539   5.237   4.795 -0.3325 -0.2787  0.7480
15996TIP3    H169403   4.479   5.214   4.866 -2.6302  1.6649 -0.4151
15996TIP3    H269404   4.531   5.165   4.733 -1.7932  0.1213  0.4448
15997TIP3   OH269405   5.126   3.840  15.218  0.0514  0.5905 -0.1337
15997TIP3    H169406   5.117   3.746  15.204 -0.0949  0.3810  1.2398
15997TIP3    H269407   5.128   3.878  15.130  0.3987 -0.7179 -0.7069
15998TIP3   OH269408   6.385   3.935   3.507  0.4271 -0.3746 -0.5226
15998TIP3    H169409   6.432   4.005   3.461 -1.4457 -0.2455 -2.3628
15998TIP3    H269410   6.305   3.977   3.538 -0.0199 -1.3594 -0.3191
15999TIP3   OH269411   3.750   6.678  12.240  0.0290  1.3224  0.3633
15999TIP3    H169412   3.832   6.662  12.288 -0.1460  1.1961  0.6253
15999TIP3    H269413   3.754   6.770  12.214  0.7393  1.0507 -0.5501
16000TIP3   OH269414   3.048   0.649   1.937  0.0316  0.1965 -0.0918
16000TIP3    H169415   3.111   0.592   1.892  0.3348  1.6905 -1.6883
16000TIP3    H269416   3.000   0.590   1.995  0.0958 -1.7440 -1.8662
16001TIP3   OH269417   3.099   3.972   3.224  0.1231 -0.3704  0.5782
16001TIP3    H169418   3.047   4.045   3.258  0.2189 -0.8173  1.7250
16001TIP3    H269419   3.058   3.894   3.260 -0.1029 -0.9172 -0.8097
16002TIP3   OH269420   1.154   1.226   2.108 -0.1272 -0.2231 -0.2321
16002TIP3    H169421   1.125   1.146   2.153  3.1881 -2.4538 -1.6443
16002TIP3    H269422   1.178   1.196   2.020  0.0477  2.6397 -1.2397
16003TIP3   OH269423   5.478   3.786  11.844 -0.1507 -0.1041  0.4269
16003TIP3    H169424   5.531   3.722  11.892 -0.2506 -0.5509 -0.0546
16003TIP3    H269425   5.416   3.734  11.793  1.7679  0.1620 -2.4276
16004TIP3   OH269426   6.391   2.976  16.888  0.0874  0.3465  0.1713
16004TIP3    H169427   6.340   3.049  16.924  3.1130  1.5083  2.4690
16004TIP3    H269428   6.439   2.941  16.962  2.4323 -0.8534 -1.7692
16005TIP3   OH269429   4.624   4.235   4.067  0.1927 -0.2143  0.3458
16005TIP3    H169430   4.583   4.175   4.005  0.4132  1.0919 -1.1457
16005TIP3    H269431   4.718   4.222   4.053  0.2560 -0.7339  1.2455
16006TIP3   OH269432   5.521   3.886   3.293  0.1556 -0.0030  0.0515
16006TIP3    H169433   5.498   3.871   3.385 -1.3695  0.0794 -0.2898
16006TIP3    H269434   5.474   3.966   3.269 -1.8317 -1.5248 -1.5610
16007TIP3   OH269435   4.939   3.547  13.890 -0.0191  0.1031  0.0743
16007TIP3    H169436   4.847   3.526  13.904 -0.0177  1.0134  1.7451
16007TIP3    H269437   4.982   3.463  13.880 -1.1126 -0.3063 -1.4251
16008TIP3   OH269438   0.282   3.393  15.457  0.4224  0.0882 -0.3493
16008TIP3    H169439   0.293   3.464  15.521  0.3172 -0.2752  0.0770
16008TIP3    H269440   0.350   3.409  15.392  0.9923  0.0670  0.2245
16009TIP3   OH269441   3.887   5.460  11.290  0.5692  0.5567  0.8215
16009TIP3    H169442   3.867   5.421  11.205  0.7603  1.1850  0.4854
16009TIP3    H269443   3.841   5.544  11.291 -0.0045  0.2526  1.6257
16010TIP3   OH269444   2.509   6.782   2.603  0.1690 -0.3888  0.0081
16010TIP3    H169445   2.528   6.874   2.585  0.1689 -0.2106  0.8950
16010TIP3    H269446   2.526   6.771   2.696 -1.5809 -0.8444  0.3195
16011TIP3   OH269447   5.351   6.357   5.820  0.8197 -1.1097 -0.0797
16011TIP3    H169448   5.382   6.391   5.736 -3.1397  0.0934 -1.2913
16011TIP3    H269449   5.381   6.421   5.885  0.4342  0.2586 -1.1965
16012TIP3   OH269450   0.608   4.604  17.012  0.5595 -0.0174 -0.2486
16012TIP3    H169451   0.563   4.654  17.080  0.2622  0.7150 -0.9629
16012TIP3    H269452   0.555   4.617  16.934  0.8534 -0.9116 -0.6126
16013TIP3   OH269453   1.803   2.273  13.614  0.3361  0.2467 -0.3750
16013TIP3    H169454   1.826   2.279  13.707 -0.5081 -0.5373 -0.0922
16013TIP3    H269455   1.795   2.364  13.585  0.3290  0.5021  0.4012
16014TIP3   OH269456   5.237   0.984   2.647  0.3989  0.1769  0.0256
16014TIP3    H169457   5.151   1.024   2.635  0.1788  0.1376  1.2719
16014TIP3    H269458   5.257   0.941   2.564 -0.4148  0.8907 -0.5429
16015TIP3   OH269459   2.883   1.082   3.444  0.0947  0.2885 -0.6682
16015TIP3    H169460   2.939   1.105   3.519  0.0683  0.5529 -0.7291
16015TIP3    H269461   2.819   1.152   3.440  0.6891  0.8008 -1.5413
16016TIP3   OH269462   2.583   3.025  13.594 -0.0251  0.4335  0.5783
16016TIP3    H169463   2.653   2.961  13.605  1.6017  1.7033 -1.6347
16016TIP3    H269464   2.517   2.979  13.542  0.6637  0.2168 -0.1250
16017TIP3   OH269465   1.155   5.011  16.963  0.0837  0.4330 -0.7629
16017TIP3    H169466   1.088   4.943  16.965 -0.8796  1.3541 -1.2243
16017TIP3    H269467   1.207   4.991  16.885  0.6384 -0.5277 -0.1751
16018TIP3   OH269468   2.468   3.163  16.578  0.1462  0.0560 -0.5533
16018TIP3    H169469   2.491   3.119  16.659  1.3506  0.1464 -0.8263
16018TIP3    H269470   2.414   3.237  16.605 -0.6353 -0.6975  0.0273
16019TIP3   OH269471   4.735   5.569  15.380 -0.4747 -0.2785  0.1671
16019TIP3    H169472   4.663   5.584  15.441 -0.2007 -0.8424  0.6399
16019TIP3    H269473   4.782   5.653  15.377 -0.9907  0.0131  0.0522
16020TIP3   OH269474   4.724   6.273  12.334  0.2417 -0.1527  0.1237
16020TIP3    H169475   4.728   6.257  12.428 -0.0203  0.6126  0.2698
16020TIP3    H269476   4.806   6.236  12.300  0.8957  0.6388  0.8184
16021TIP3   OH269477   0.959   1.602  11.034  0.2720 -0.3325 -0.4757
16021TIP3    H169478   0.928   1.513  11.022  1.8770 -0.8638 -1.0223
16021TIP3    H269479   0.947   1.644  10.949 -2.4796  0.6983  0.3340
16022TIP3   OH269480   3.269   5.234  15.261  0.6217 -0.0258  0.2212
16022TIP3    H169481   3.281   5.153  15.310 -3.1352 -0.8153  0.1181
16022TIP3    H269482   3.290   5.303  15.324  1.9082 -1.0152  0.9306
16023TIP3   OH269483   4.871   5.989  12.043  0.0328  0.6033  0.4285
16023TIP3    H169484   4.868   6.054  11.973 -0.0885 -0.6155 -0.7443
16023TIP3    H269485   4.814   5.918  12.013 -0.0185  0.0397  1.7653
16024TIP3   OH269486   5.578   4.147  16.278 -0.5553 -0.1917  0.2340
16024TIP3    H169487   5.577   4.177  16.188  0.7922  1.8652  0.8505
16024TIP3    H269488   5.532   4.063  16.276 -0.5943 -0.1636 -2.3256
16025TIP3   OH269489   0.543   5.988   0.920  0.5402 -0.5407  0.6693
16025TIP3    H169490   0.539   6.082   0.939  1.0745 -0.7395  1.8268
16025TIP3    H269491   0.462   5.953   0.958  0.4475 -0.5854  0.4316
16026TIP3   OH269492   3.802   0.626  16.866  0.1350  0.5974 -0.3426
16026TIP3    H169493   3.778   0.631  16.774  0.4532  1.8954 -0.3757
16026TIP3    H269494   3.763   0.704  16.905 -0.9569 -0.5082  0.8729
16027TIP3   OH269495   5.768   4.371   0.662 -0.0591  0.0120  0.3748
16027TIP3    H169496   5.851   4.393   0.704  0.2602 -1.2311  0.4503
16027TIP3    H269497   5.743   4.451   0.616  0.7754  0.6579  0.9962
16028TIP3   OH269498   3.198   3.510   5.331 -0.3331 -0.4496  0.3109
16028TIP3    H169499   3.245   3.527   5.249 -0.2372 -0.4438  0.3666
16028TIP3    H269500   3.120   3.565   5.326  0.3482  0.6088  0.8281
16029TIP3   OH269501   4.421   3.259  12.062 -0.4141  0.0493  0.3095
16029TIP3    H169502   4.350   3.194  12.060 -0.5121  0.1508  0.4771
16029TIP3    H269503   4.420   3.293  12.151  0.0124 -0.1291  0.3829
16030TIP3   OH269504   2.588   1.285   0.954 -0.1250 -0.3620  0.0642
16030TIP3    H169505   2.598   1.363   1.008  1.1808 -0.2523 -0.3122
16030TIP3    H269506   2.652   1.222   0.988 -0.0876 -0.7047 -0.6054
16031TIP3   OH269507   4.781   0.339  13.449 -0.2522  0.2617  0.5476
16031TIP3    H169508   4.718   0.267  13.436  1.7638 -1.4179 -0.5896
16031TIP3    H269509   4.738   0.396  13.513 -3.2724 -0.3144 -0.7611
16032TIP3   OH269510   2.798   2.335  14.956 -0.3774 -0.0041  0.0108
16032TIP3    H169511   2.789   2.366  15.046 -3.0288 -2.5305  0.7913
16032TIP3    H269512   2.892   2.328  14.942  0.1234  1.1008  2.3317
16033TIP3   OH269513   6.140   5.815   6.272 -0.3837  0.2714  0.2483
16033TIP3    H169514   6.183   5.730   6.278  1.1561  1.0137  0.2122
16033TIP3    H269515   6.062   5.806   6.326 -1.6388 -1.9390 -1.7187
16034TIP3   OH269516   2.249   0.132  10.461  0.2600  0.0308  0.2549
16034TIP3    H169517   2.253   0.048  10.507 -2.1911  1.0722  2.7028
16034TIP3    H269518   2.163   0.133  10.420  0.0692  1.4611  0.6202
16035TIP3   OH269519   6.076   5.016  13.122  0.1254  0.2239 -0.2820
16035TIP3    H169520   6.002   5.069  13.092 -0.4026  0.0375  0.6457
16035TIP3    H269521   6.046   4.978  13.205  0.4211 -1.6639 -0.9997
16036TIP3   OH269522   4.642   5.346   2.810  0.6363  0.2408  0.0363
16036TIP3    H169523   4.694   5.266   2.818  0.1752  0.0169  1.0070
16036TIP3    H269524   4.671   5.386   2.728  1.7521 -0.2883  0.1526
16037TIP3   OH269525   4.831   4.455   4.265  0.1861 -0.2107 -0.6782
16037TIP3    H169526   4.834   4.361   4.279  1.0187 -0.0967  0.0003
16037TIP3    H269527   4.832   4.493   4.353  2.9223  0.4707 -0.8987
16038TIP3   OH269528   6.787   1.318  12.840  0.2357  0.3135  0.0631
16038TIP3    H169529   6.793   1.283  12.751 -1.0104 -0.2734  0.1888
16038TIP3    H269530   6.877   1.315  12.873  0.5410 -0.4558 -0.8012
16039TIP3   OH269531   2.933   2.945   3.872 -0.0201  0.8279 -0.3052
16039TIP3    H169532   2.899   2.953   3.961  2.1587  0.3741  0.6488
16039TIP3    H269533   2.896   2.864   3.839 -1.0967  1.1574  0.0582
16040TIP3   OH269534   4.154   1.300  16.357 -0.6399 -1.0508 -0.2079
16040TIP3    H169535   4.060   1.306  16.373 -0.3226  0.0766  1.5259
16040TIP3    H269536   4.181   1.220  16.402 -0.6993 -1.1147 -0.2868
16041TIP3   OH269537   0.316   5.818  16.326 -0.3584 -0.1356  0.2215
16041TIP3    H169538   0.254   5.831  16.397  0.3208 -0.4616  0.8875
16041TIP3    H269539   0.373   5.747  16.356  0.4069  0.2312 -0.3171
16042TIP3   OH269540   3.689   0.178   0.698 -0.2465 -0.0448  0.0322
16042TIP3    H169541   3.607   0.131   0.712 -0.6460  1.0089  1.5224
16042TIP3    H269542   3.728   0.182   0.785  2.1138 -1.7296 -0.8392
16043TIP3   OH269543   4.631   1.558   2.871 -0.3910  0.4499  0.1545
16043TIP3    H169544   4.582   1.493   2.820  1.2702  0.5356 -1.6464
16043TIP3    H269545   4.640   1.518   2.957 -1.1423 -0.8066 -0.3188
16044TIP3   OH269546   0.492   0.794  11.369 -0.2421  0.3391 -0.0928
16044TIP3    H169547   0.568   0.758  11.324  0.1250 -0.6022  1.2026
16044TIP3    H269548   0.430   0.721  11.373 -0.7079  0.7332 -0.0461
16045TIP3   OH269549   6.146   1.491   0.043  0.1154  0.1386  0.2970
16045TIP3    H169550   6.107   1.446  -0.031  0.6915  1.0621 -0.6003
16045TIP3    H269551   6.234   1.454   0.050 -0.0614 -0.2029  0.7579
16046TIP3   OH269552   6.507   0.255   0.617  0.1814  0.9319 -0.3878
16046TIP3    H169553   6.553   0.300   0.547 -0.0314 -0.4278 -1.4496
16046TIP3    H269554   6.483   0.170   0.580 -0.5102  0.4175  1.1243
16047TIP3   OH269555   2.687   6.740  14.138 -0.4062 -0.8435  0.3037
16047TIP3    H169556   2.595   6.757  14.157 -0.5784 -0.6698 -0.6248
16047TIP3    H269557   2.688   6.650  14.105 -0.1314 -1.1035  1.0066
16048TIP3   OH269558   5.243   3.380   4.089 -0.8463 -0.2249  0.2346
16048TIP3    H169559   5.245   3.285   4.078 -0.8287 -0.0973 -1.0644
16048TIP3    H269560   5.310   3.399   4.155  1.8733 -0.8154 -2.1746
16049TIP3   OH269561   4.031   3.966  17.061 -0.0775  0.5111  0.2141
16049TIP3    H169562   4.061   3.877  17.075 -0.0011  0.3164 -1.0770
16049TIP3    H269563   4.110   4.020  17.071  0.4458  0.1490 -1.6651
16050TIP3   OH269564   3.856   3.969   4.117 -0.0989 -0.2390 -0.3265
16050TIP3    H169565   3.855   3.970   4.021 -1.5845  0.3777 -0.3202
16050TIP3    H269566   3.828   3.881   4.141 -0.5105 -0.1445 -0.4586
16051TIP3   OH269567   1.341   2.200   5.180  0.0322  0.3374 -0.4458
16051TIP3    H169568   1.326   2.275   5.122  1.3862 -1.0814 -2.7906
16051TIP3    H269569   1.255   2.177   5.213 -0.7728  1.3161 -1.7716
16052TIP3   OH269570   2.206   1.192   3.085  0.1068  0.3698  0.4323
16052TIP3    H169571   2.113   1.170   3.091  0.6826 -1.8666  2.6115
16052TIP3    H269572   2.243   1.127   3.025  0.5835  0.0514  1.0616
16053TIP3   OH269573   2.772   1.951  14.990 -0.3138 -0.6024  0.4091
16053TIP3    H169574   2.744   2.027  14.937  0.9894 -0.5633 -0.2533
16053TIP3    H269575   2.702   1.941  15.055 -0.1849  1.6285  0.9930
16054TIP3   OH269576   2.530   5.858   3.211 -0.0962 -0.5040 -0.1114
16054TIP3    H169577   2.558   5.907   3.288  0.8910 -0.8699 -0.2194
16054TIP3    H269578   2.568   5.771   3.223  3.6627  0.4945 -2.8933
16055TIP3   OH269579   3.315   5.773  11.421  0.5035 -0.0497  0.0142
16055TIP3    H169580   3.395   5.743  11.463  1.3497  2.0844  0.0232
16055TIP3    H269581   3.343   5.802  11.334 -0.3889  0.0544 -0.2479
16056TIP3   OH269582   2.320   5.209  11.062  1.1576  0.5635  0.0269
16056TIP3    H169583   2.302   5.119  11.036  1.6083  0.5440 -0.2298
16056TIP3    H269584   2.265   5.263  11.006  0.7675  0.4445  0.2906
16057TIP3   OH269585   1.606   5.608   0.983 -0.2432  0.2181  0.3633
16057TIP3    H169586   1.686   5.557   0.968 -0.8351 -0.4668 -0.5531
16057TIP3    H269587   1.638   5.696   1.004  0.7427  0.0013 -0.1619
16058TIP3   OH269588   3.125   5.923  10.525  0.4212  0.2239 -0.0177
16058TIP3    H169589   3.197   5.877  10.482 -0.4822 -1.0391 -0.2652
16058TIP3    H269590   3.113   5.875  10.607 -0.2402  0.3090 -0.0606
16059TIP3   OH269591   0.750   5.508   4.232  0.3010  0.3596  0.2954
16059TIP3    H169592   0.786   5.422   4.211  0.4189  0.4047  0.3105
16059TIP3    H269593   0.793   5.533   4.314 -0.6033 -0.0761  0.9171
16060TIP3   OH269594   3.238   2.456   5.310 -0.0518  0.2241  0.3206
16060TIP3    H169595   3.162   2.416   5.353 -0.7695  0.2388 -0.8985
16060TIP3    H269596   3.313   2.429   5.364 -0.8190 -0.5273  1.0388
16061TIP3   OH269597   4.069   6.294   2.776 -0.0043 -1.1228  0.5471
16061TIP3    H169598   4.110   6.371   2.815 -0.6791 -1.3818  1.8154
16061TIP3    H269599   4.132   6.265   2.710  0.5253  0.1611  0.4594
16062TIP3   OH269600   4.574   0.966  14.089  0.4202  0.1187  0.2514
16062TIP3    H169601   4.626   0.905  14.141 -1.3709 -2.3067 -0.5978
16062TIP3    H269602   4.547   0.915  14.012  1.5011  2.9939 -2.2456
16063TIP3   OH269603   2.411   5.982  16.786  0.3808 -0.2546  0.4670
16063TIP3    H169604   2.434   5.957  16.697 -1.3516 -2.2539  0.5021
16063TIP3    H269605   2.461   6.062  16.802  2.1452 -0.8354 -1.6176
16064TIP3   OH269606   3.020   5.480  10.788  0.0493  0.1706 -0.5202
16064TIP3    H169607   2.989   5.397  10.824 -0.5877 -0.2419 -1.9812
16064TIP3    H269608   3.096   5.457  10.736  0.2398  0.5992 -0.4398
16065TIP3   OH269609   3.818   5.613   5.407  0.1052  0.4504 -0.4703
16065TIP3    H169610   3.891   5.661   5.369 -0.1986 -0.1303 -1.8286
16065TIP3    H269611   3.743   5.633   5.351 -0.1311 -1.2015 -0.7922
16066TIP3   OH269612   1.567   1.835  11.374  0.3753  0.7304 -0.8233
16066TIP3    H169613   1.546   1.854  11.465  1.3892 -1.8887  0.0826
16066TIP3    H269614   1.565   1.919  11.330 -1.6276  1.8876  1.2939
16067TIP3   OH269615   0.220   0.395  15.568 -0.4593 -0.1374  0.3752
16067TIP3    H169616   0.206   0.468  15.628 -1.0038  0.0782 -0.0006
16067TIP3    H269617   0.146   0.400  15.507  0.1437 -0.2736 -0.3876
16068TIP3   OH269618   0.731   2.306   3.225  0.6327  0.2544  0.2425
16068TIP3    H169619   0.713   2.398   3.206  2.3182  0.7892  1.0425
16068TIP3    H269620   0.799   2.308   3.292 -0.0294 -1.5925  1.0269
16069TIP3   OH269621   6.401   0.180   1.639  0.6217 -0.4273 -0.3168
16069TIP3    H169622   6.399   0.241   1.713 -0.6835 -1.6722  0.7395
16069TIP3    H269623   6.412   0.236   1.562  1.3619  0.9605  0.7466
16070TIP3   OH269624   4.733   0.996   4.491 -0.6310 -0.7834 -0.3299
16070TIP3    H169625   4.696   0.963   4.409 -2.8638  0.1371  0.2278
16070TIP3    H269626   4.750   1.088   4.473  1.1202 -1.0966 -0.4391
16071TIP3   OH269627   3.191   5.346  14.921  0.0665  0.4368  0.1691
16071TIP3    H169628   3.123   5.375  14.981 -0.6257 -1.5036  0.3969
16071TIP3    H269629   3.197   5.251  14.935  0.0219 -0.0804 -2.6572
16072TIP3   OH269630   4.707   1.101  15.451  0.0209 -0.6573  0.4418
16072TIP3    H169631   4.776   1.164  15.430 -0.0940 -0.5590  0.3566
16072TIP3    H269632   4.748   1.040  15.512 -0.0550 -0.1254  1.0287
16073TIP3   OH269633   1.418   0.921   0.131 -0.1019 -0.1890 -0.2695
16073TIP3    H169634   1.455   1.007   0.112  2.2001 -1.1060 -0.2163
16073TIP3    H269635   1.409   0.919   0.226 -2.3518  0.7619 -0.3792
16074TIP3   OH269636   0.640   0.357  15.674 -0.0355 -0.4360 -0.3507
16074TIP3    H169637   0.725   0.334  15.636 -0.8062 -0.5763 -2.0893
16074TIP3    H269638   0.600   0.417  15.611 -0.3887  1.3395  1.4527
16075TIP3   OH269639   1.621   6.383  13.450  0.5863 -0.5189 -0.7500
16075TIP3    H169640   1.640   6.446  13.519  0.2231 -0.4933 -0.6750
16075TIP3    H269641   1.591   6.436  13.376  1.4978 -0.4953 -1.1226
16076TIP3   OH269642   3.713   0.997  15.352 -0.2856 -0.2327 -0.2295
16076TIP3    H169643   3.687   0.956  15.269 -0.9720  1.2788 -0.7965
16076TIP3    H269644   3.638   1.050  15.377  0.3566  0.2336  0.7652
16077TIP3   OH269645   5.175   3.931   5.228  0.0214  0.4465  0.5499
16077TIP3    H169646   5.224   3.862   5.274  0.2591  2.0305  2.8100
16077TIP3    H269647   5.220   3.940   5.144  0.1624 -1.9062  0.3091
16078TIP3   OH269648   3.160   1.715  14.114 -0.4265 -0.1521 -0.3552
16078TIP3    H169649   3.100   1.768  14.166  0.3642 -0.1010  0.5105
16078TIP3    H269650   3.160   1.630  14.157 -0.6250 -0.4534 -0.9378
16079TIP3   OH269651   3.082   2.021   0.322 -0.0596  0.2774 -0.0156
16079TIP3    H169652   3.078   1.999   0.229 -1.0486 -0.9042  0.2794
16079TIP3    H269653   3.082   2.116   0.324  1.0707  0.3311 -1.2555
16080TIP3   OH269654   4.105   0.175  15.810  0.1444  0.4288  0.0283
16080TIP3    H169655   4.082   0.213  15.894 -0.9401 -1.7294  0.7780
16080TIP3    H269656   4.182   0.120  15.828 -0.7069 -0.8604 -0.1178
16081TIP3   OH269657   2.653   3.287  15.678  0.3921 -0.2136  0.0166
16081TIP3    H169658   2.674   3.207  15.629  2.0427 -1.2831  2.2769
16081TIP3    H269659   2.690   3.358  15.625 -0.2220 -1.0110 -1.5484
16082TIP3   OH269660   5.729   4.685   0.187  0.0278  0.2902 -0.3752
16082TIP3    H169661   5.815   4.644   0.181 -0.3997 -0.6865 -0.1302
16082TIP3    H269662   5.747   4.778   0.195  1.2995 -0.0905  3.6616
16083TIP3   OH269663   0.107   2.520   5.395 -0.3825 -0.1288  0.1318
16083TIP3    H169664   0.062   2.593   5.352 -1.4612 -1.0166 -0.3143
16083TIP3    H269665   0.147   2.559   5.473 -4.1020  0.3539  2.0342
16084TIP3   OH269666   2.635   6.456  15.374 -0.3638  0.0339  0.1415
16084TIP3    H169667   2.595   6.542  15.361 -2.9544 -1.3195 -1.6056
16084TIP3    H269668   2.684   6.440  15.293 -0.6945 -0.5459  0.0577
16085TIP3   OH269669   0.247   4.603   3.987  0.0085  0.2477 -0.6939
16085TIP3    H169670   0.331   4.646   4.005  0.0021  0.3748 -0.9513
16085TIP3    H269671   0.219   4.641   3.903 -0.7441  0.8636 -0.1751
16086TIP3   OH269672   1.129   3.264   2.096 -0.3219  0.8994  0.5837
16086TIP3    H169673   1.086   3.234   2.016 -0.8886  2.1280  0.3962
16086TIP3    H269674   1.058   3.269   2.160 -0.4675  2.7126  0.3398
16087TIP3   OH269675   5.493   1.872  16.693  0.4456 -0.0498  0.1855
16087TIP3    H169676   5.424   1.929  16.727  0.4310 -0.4136  0.7812
16087TIP3    H269677   5.540   1.926  16.630  0.8076  0.8061  1.1788
16088TIP3   OH269678   2.037   2.085  11.534  0.3703  0.3486 -0.1913
16088TIP3    H169679   2.052   2.003  11.487 -1.3101 -0.2619  0.2629
16088TIP3    H269680   2.047   2.063  11.626  0.1804  0.7087 -0.0818
16089TIP3   OH269681   5.272   1.953  11.076 -0.5482  0.3541  0.1455
16089TIP3    H169682   5.249   1.917  11.162  2.0754  0.3713  0.9557
16089TIP3    H269683   5.220   2.033  11.068 -2.8141 -0.9922  0.4817
16090TIP3   OH269684   2.920   5.079  14.970  0.0703  0.4396  0.0782
16090TIP3    H169685   3.015   5.069  14.967 -0.0138 -0.8236  0.7557
16090TIP3    H269686   2.905   5.171  14.950  1.4054  0.5709 -0.4497
16091TIP3   OH269687   2.512   6.584   2.394  0.3883  0.2147 -0.5346
16091TIP3    H169688   2.524   6.651   2.461 -0.3621  0.2607 -0.4380
16091TIP3    H269689   2.580   6.602   2.329 -0.7019  1.9828 -1.2434
16092TIP3   OH269690   3.187   4.841  16.206  0.7589 -0.5763  0.0956
16092TIP3    H169691   3.151   4.791  16.133  3.1434 -1.5176 -0.5447
16092TIP3    H269692   3.240   4.778  16.255  1.3234  0.6316  1.1109
16093TIP3   OH269693   6.513   4.098   5.350  0.7115 -0.3145 -0.0680
16093TIP3    H169694   6.430   4.145   5.350  0.3802 -0.8433  1.6882
16093TIP3    H269695   6.520   4.062   5.261  0.5513  2.2086 -1.1732
16094TIP3   OH269696   1.561   0.932  16.290  0.0448 -0.0376  0.5656
16094TIP3    H169697   1.639   0.952  16.342  0.5316  0.3096 -0.2897
16094TIP3    H269698   1.563   0.996  16.219 -0.9303 -0.1383  0.4398
16095TIP3   OH269699   4.130   0.347  13.029  0.1489  0.1311 -0.1692
16095TIP3    H169700   4.218   0.357  12.992  0.0068  0.0381 -0.5333
16095TIP3    H269701   4.145   0.309  13.115  0.7220  3.1823  1.2220
16096TIP3   OH269702   2.902   4.705   5.456  0.4582 -0.4825 -0.3337
16096TIP3    H169703   2.898   4.645   5.530 -0.3901 -1.6394 -1.2697
16096TIP3    H269704   2.821   4.756   5.462 -0.1904 -1.3748 -1.0640
16097TIP3   OH269705   2.880   1.907   5.237  0.8070  0.0477 -0.3575
16097TIP3    H169706   2.853   1.819   5.213  0.3447  0.1406 -0.1828
16097TIP3    H269707   2.820   1.933   5.308  0.0111  1.0354 -1.3532
16098TIP3   OH269708   4.378   6.621  12.379 -0.2754  0.2696 -0.8150
16098TIP3    H169709   4.357   6.660  12.294 -0.4334 -1.1785 -1.4767
16098TIP3    H269710   4.329   6.539  12.380  1.0181 -0.5294 -0.0313
16099TIP3   OH269711   1.973   3.839   1.617 -0.0526 -0.2097 -0.5733
16099TIP3    H169712   1.946   3.908   1.556  1.2363  0.1441 -0.7823
16099TIP3    H269713   2.041   3.791   1.570  0.2746 -0.5388  0.2218
16100TIP3   OH269714   2.794   6.142  12.256  0.1466  0.1082 -0.0907
16100TIP3    H169715   2.782   6.125  12.349 -0.2273 -0.8438 -0.3017
16100TIP3    H269716   2.748   6.225  12.241  0.6720  0.5538  0.6605
16101TIP3   OH269717   1.747   6.634   5.574  0.0959 -0.0796  0.6211
16101TIP3    H169718   1.739   6.548   5.616 -1.8506  0.0131  0.5322
16101TIP3    H269719   1.724   6.618   5.482  1.7786  0.1853  0.1264
16102TIP3   OH269720   6.465   0.025  16.105  0.1606 -0.0414 -0.2749
16102TIP3    H169721   6.529  -0.040  16.075 -0.2422 -0.6614  0.2082
16102TIP3    H269722   6.502   0.059  16.186  1.0475  1.3453 -1.2039
16103TIP3   OH269723   4.133   0.451   4.819  0.0618 -0.4781 -0.2476
16103TIP3    H169724   4.126   0.434   4.913  3.9488  0.1236  0.3287
16103TIP3    H269725   4.089   0.535   4.807  1.8249  0.8321  1.6837
16104TIP3   OH269726   3.658   0.179   4.144  0.4625 -0.3505 -0.2840
16104TIP3    H169727   3.702   0.096   4.163  0.2866 -0.0020  1.8654
16104TIP3    H269728   3.572   0.154   4.110  0.2628 -1.0569  0.7180
16105TIP3   OH269729   5.025   4.375   0.495 -0.5200 -0.2364  0.4454
16105TIP3    H169730   5.120   4.381   0.487 -0.2386 -1.7426  2.0908
16105TIP3    H269731   4.992   4.403   0.409  1.3530  0.9144  0.0492
16106TIP3   OH269732   4.523   3.307   5.226  0.0938 -0.3438  0.2622
16106TIP3    H169733   4.452   3.367   5.201 -0.4557 -1.2626 -0.4798
16106TIP3    H269734   4.583   3.309   5.151  1.8059  1.7546  1.5989
16107TIP3   OH269735   5.922   2.073  16.399  0.1491 -1.0002  0.0124
16107TIP3    H169736   5.980   2.095  16.472 -0.7274 -0.1411  0.4688
16107TIP3    H269737   5.947   1.984  16.375  0.5419 -1.2581  1.2817
16108TIP3   OH269738   4.794   0.392  16.677 -0.1031 -0.2625  0.4379
16108TIP3    H169739   4.761   0.477  16.647  0.9100  0.2514  0.7205
16108TIP3    H269740   4.731   0.328  16.643 -1.2227  0.6431  0.7463
16109TIP3   OH269741   1.496   3.021   5.680 -0.3046 -0.1850  0.2380
16109TIP3    H169742   1.509   3.113   5.661 -0.4700 -0.4051 -0.9776
16109TIP3    H269743   1.448   3.020   5.763 -0.8891  0.8196 -0.0797
16110TIP3   OH269744   0.700   4.164   4.352 -0.3637 -0.3065 -0.5234
16110TIP3    H169745   0.789   4.128   4.356 -0.7544 -1.2330 -0.0395
16110TIP3    H269746   0.695   4.203   4.264  0.0901 -1.3912 -1.0501
16111TIP3   OH269747   5.990   5.171  10.707  0.0438  0.0553 -0.6453
16111TIP3    H169748   5.988   5.101  10.641  0.2014  0.3667 -0.9835
16111TIP3    H269749   6.077   5.164  10.746  0.3415  0.5386 -1.2042
16112TIP3   OH269750   4.325   5.807  16.069  0.2712 -0.0936  0.1703
16112TIP3    H169751   4.364   5.766  15.991 -1.3111 -0.9588 -0.2140
16112TIP3    H269752   4.353   5.750  16.141 -0.3182 -0.7585 -0.1109
16113TIP3   OH269753   3.833   1.356  11.786 -0.0062 -0.6859  0.4762
16113TIP3    H169754   3.762   1.353  11.850 -0.2462  0.2904  0.2758
16113TIP3    H269755   3.910   1.328  11.835 -0.2404 -0.2343  1.1206
16114TIP3   OH269756   1.842   3.877   4.519 -0.1914  0.4387  0.2456
16114TIP3    H169757   1.909   3.872   4.587 -0.3789 -0.2909  0.3798
16114TIP3    H269758   1.769   3.825   4.553 -0.3602  0.2290 -0.4276
16115TIP3   OH269759   3.948   3.177  15.012 -0.0970 -0.1596  0.1230
16115TIP3    H169760   3.964   3.205  15.103  1.1677  0.5013 -0.2860
16115TIP3    H269761   3.853   3.180  15.003 -0.1481  1.7278  0.8300
16116TIP3   OH269762   1.487   1.696  13.573  1.3119 -0.4289  0.0424
16116TIP3    H169763   1.468   1.706  13.480  0.2486 -1.7600  0.0731
16116TIP3    H269764   1.572   1.737  13.585  2.1219 -1.4558 -1.8001
16117TIP3   OH269765   5.928   5.940  11.451 -0.3365  0.0765 -0.3515
16117TIP3    H169766   5.915   6.034  11.436  0.6019 -0.0601 -2.2887
16117TIP3    H269767   5.842   5.901  11.432 -0.8878  0.5680  1.0133
16118TIP3   OH269768   5.924   5.640  16.510  0.2805 -0.4188 -1.0279
16118TIP3    H169769   6.015   5.625  16.485  0.5022 -0.6878 -0.0973
16118TIP3    H269770   5.919   5.733  16.530  1.3673 -0.9875  2.6607
16119TIP3   OH269771   1.114   2.266  11.312  0.2878  0.5217  0.2634
16119TIP3    H169772   1.165   2.221  11.380 -1.7154  0.7867  2.0314
16119TIP3    H269773   1.124   2.210  11.235  1.7918 -0.3661  1.0493
16120TIP3   OH269774   0.201   6.777   0.132 -0.5773 -0.5683 -0.4512
16120TIP3    H169775   0.292   6.805   0.132  0.3356 -3.2382 -0.5074
16120TIP3    H269776   0.168   6.802   0.045 -0.6259  2.2846  0.2923
16121TIP3   OH269777   2.687   4.788   4.369 -0.3051 -0.3350  0.7757
16121TIP3    H169778   2.650   4.832   4.293  0.0611 -2.1776 -0.5501
16121TIP3    H269779   2.666   4.844   4.443 -1.4898  1.0523 -0.5651
16122TIP3   OH269780   5.650   0.173  15.253 -0.3834  0.5162 -0.4611
16122TIP3    H169781   5.727   0.196  15.305 -0.3018 -1.4226  0.3827
16122TIP3    H269782   5.671   0.202  15.164 -0.8648  4.6804  0.6035
16123TIP3   OH269783   3.125   4.699   3.569  0.2408  0.4622  0.3774
16123TIP3    H169784   3.149   4.613   3.604  2.1692  1.2810  1.2153
16123TIP3    H269785   3.208   4.747   3.565 -0.7710  2.2486 -0.1745
16124TIP3   OH269786   2.272   4.012   4.673  0.4003  0.1983 -0.2757
16124TIP3    H169787   2.279   4.104   4.700 -0.7287 -0.0075  0.8397
16124TIP3    H269788   2.269   4.016   4.578 -0.8113  1.4487 -0.2296
16125TIP3   OH269789   2.212   1.168   0.271  0.4799 -0.0462 -0.4121
16125TIP3    H169790   2.267   1.241   0.300 -1.3869  1.2408  0.0510
16125TIP3    H269791   2.147   1.208   0.213  0.9892 -1.7850 -2.2972
16126TIP3   OH269792   2.405   5.634   1.075  0.3448  0.1667 -0.5002
16126TIP3    H169793   2.403   5.579   0.997 -1.8591 -0.0593 -0.3234
16126TIP3    H269794   2.465   5.588   1.134 -0.7996 -1.6581 -0.6632
16127TIP3   OH269795   1.810   0.206   4.345  0.3503  0.0148  0.6735
16127TIP3    H169796   1.717   0.184   4.331  0.3713 -0.5878  1.3791
16127TIP3    H269797   1.854   0.121   4.341  0.9710  0.3664 -0.2873
16128TIP3   OH269798   6.013   3.870   2.772 -0.1864 -0.2152  0.3248
16128TIP3    H169799   6.066   3.929   2.825 -0.6112  1.0444 -0.6246
16128TIP3    H269800   6.064   3.789   2.768  0.5923  0.2027  1.3089
16129TIP3   OH269801   2.769   5.015   3.522  0.1027  0.1882 -0.4946
16129TIP3    H169802   2.843   5.040   3.467  1.8146 -0.1467  1.5319
16129TIP3    H269803   2.718   4.954   3.469  0.6915  1.1926 -2.2993
16130TIP3   OH269804   0.083   3.526   4.182  0.1453 -0.1091  0.1441
16130TIP3    H169805   0.065   3.613   4.218  0.2799  0.7270 -1.7048
16130TIP3    H269806   0.173   3.507   4.209 -0.0234  0.1123  0.9021
16131TIP3   OH269807   2.700   3.213  13.850 -0.1233 -0.7166 -0.3364
16131TIP3    H169808   2.605   3.202  13.861  0.0050 -0.2231  1.8983
16131TIP3    H269809   2.738   3.140  13.898  0.6100 -0.2779 -0.2412
16132TIP3   OH269810   5.858   1.455   4.227 -0.1516 -0.1270 -0.5080
16132TIP3    H169811   5.836   1.369   4.192 -1.2811  0.4451 -1.2708
16132TIP3    H269812   5.817   1.457   4.314  1.4906 -1.0389  0.3226
16133TIP3   OH269813   2.534   6.146  10.532 -0.0863 -0.2006 -0.3974
16133TIP3    H169814   2.461   6.086  10.513  0.0175 -0.0927 -1.1952
16133TIP3    H269815   2.611   6.102  10.496 -0.0926  0.6393 -1.5041
16134TIP3   OH269816   2.547   3.812  15.477 -0.0255 -0.4456 -1.2290
16134TIP3    H169817   2.488   3.809  15.553 -0.8817  0.1071 -1.8606
16134TIP3    H269818   2.634   3.822  15.516 -0.5722  1.2295 -0.3442
16135TIP3   OH269819   2.962   4.130  17.125 -0.0300 -0.3648  0.0903
16135TIP3    H169820   3.004   4.155  17.207  0.6983  2.0243 -0.9240
16135TIP3    H269821   2.968   4.208  17.070  0.0255 -2.0444 -2.4667
16136TIP3   OH269822   5.574   2.549   5.795  0.1349  0.1906 -0.2765
16136TIP3    H169823   5.605   2.580   5.710  1.6378  0.1802  0.2307
16136TIP3    H269824   5.493   2.597   5.810 -1.0049 -0.9322 -2.3762
16137TIP3   OH269825   6.048   1.390  13.398  0.9023 -0.0962  0.1108
16137TIP3    H169826   6.056   1.440  13.317  1.5590  1.4525  1.1059
16137TIP3    H269827   6.109   1.431  13.458 -0.1110 -0.7568  1.6430
16138TIP3   OH269828   4.785   6.668   5.826  0.4326  0.1886 -0.1160
16138TIP3    H169829   4.810   6.756   5.855 -0.3061  0.0320  1.0888
16138TIP3    H269830   4.783   6.617   5.907  2.3864 -1.3549 -0.9701
16139TIP3   OH269831   0.905   1.685  14.669 -0.1210 -0.2488  0.4247
16139TIP3    H169832   0.924   1.591  14.679 -1.7212 -0.6717 -0.2175
16139TIP3    H269833   0.818   1.696  14.709  0.9932  1.4456  2.5976
16140TIP3   OH269834   4.889   5.118  15.320 -0.1531  0.0283  0.8689
16140TIP3    H169835   4.905   5.059  15.247 -3.1596 -2.3467  1.9297
16140TIP3    H269836   4.810   5.166  15.295 -0.7101 -0.1801  2.1596
16141TIP3   OH269837   6.054   6.473   1.892  0.2787  0.4381  0.5981
16141TIP3    H169838   6.082   6.474   1.984  0.1897  1.0846  0.6249
16141TIP3    H269839   6.110   6.539   1.850 -1.2026  1.8073  0.6699
16142TIP3   OH269840   3.437   6.600   3.567 -0.3440 -0.2431  0.0589
16142TIP3    H169841   3.355   6.619   3.523  0.7445  0.3929 -1.8283
16142TIP3    H269842   3.471   6.522   3.523  1.3667  1.1250 -1.1780
16143TIP3   OH269843   2.032   2.028  16.796  0.3358 -0.2232  0.5845
16143TIP3    H169844   1.939   2.032  16.820  0.1818 -0.1489  0.0005
16143TIP3    H269845   2.074   2.089  16.855 -0.5890  2.9861 -1.7803
16144TIP3   OH269846   4.338   3.781  13.107  0.0995 -0.0224 -0.4221
16144TIP3    H169847   4.284   3.778  13.028  0.1741  0.4500 -0.4915
16144TIP3    H269848   4.285   3.737  13.174 -1.3006  2.2162  0.0566
16145TIP3   OH269849   3.377   3.045   5.575  0.0549  0.2104 -0.1871
16145TIP3    H169850   3.455   3.081   5.619  0.4553 -0.8463 -0.0111
16145TIP3    H269851   3.406   2.960   5.541 -0.9498 -0.0600 -0.3819
16146TIP3   OH269852   4.403   6.669   3.864  0.2174  0.1185  0.0087
16146TIP3    H169853   4.443   6.620   3.935  0.4467 -2.9987 -2.0672
16146TIP3    H269854   4.314   6.635   3.857 -0.5557  1.9560  0.1123
16147TIP3   OH269855   0.489   2.119   5.122 -0.2038 -0.0540 -0.2436
16147TIP3    H169856   0.546   2.145   5.049 -0.9127 -1.2559 -1.2900
16147TIP3    H269857   0.474   2.025   5.107 -0.2242 -0.3806  1.5887
16148TIP3   OH269858   0.114   3.663  12.092 -0.4781 -0.2063 -0.4500
16148TIP3    H169859   0.196   3.617  12.073  0.1971 -0.1454  1.9624
16148TIP3    H269860   0.077   3.615  12.166 -0.5646  2.1041  1.0997
16149TIP3   OH269861   6.547   4.593  13.367 -0.6362 -0.1519  0.6857
16149TIP3    H169862   6.593   4.509  13.362  0.2967  0.3401  0.9039
16149TIP3    H269863   6.591   4.641  13.436 -0.3416  1.0065 -0.2749
16150TIP3   OH269864   4.995   6.265  12.718  0.1257  0.5493 -0.6275
16150TIP3    H169865   4.977   6.358  12.735 -0.7862  0.6977 -2.2444
16150TIP3    H269866   4.913   6.221  12.740  0.9695 -0.1078  1.4674
16151TIP3   OH269867   3.966   4.147  13.259 -0.3600 -0.3003  0.5599
16151TIP3    H169868   3.939   4.091  13.186 -0.1064  1.8518 -1.3040
16151TIP3    H269869   3.988   4.231  13.218 -0.0709  0.9780  3.1179
16152TIP3   OH269870   4.690   0.810  14.790  0.0349 -0.6679 -0.4435
16152TIP3    H169871   4.692   0.794  14.696  2.9160 -0.0240 -0.5675
16152TIP3    H269872   4.765   0.866  14.807 -0.1704 -1.0774  2.3146
16153TIP3   OH269873   1.175   4.325   5.806  0.2929  0.3835 -0.5168
16153TIP3    H169874   1.171   4.309   5.900  2.7120  0.0799 -0.4105
16153TIP3    H269875   1.134   4.248   5.767 -5.9318  2.7476  0.1445
16154TIP3   OH269876   5.941   4.790  15.303 -0.1629  0.0906  0.0640
16154TIP3    H169877   5.963   4.730  15.232 -1.0743  0.8947 -0.9361
16154TIP3    H269878   6.000   4.864  15.290 -1.1434  0.7794 -0.6217
16155TIP3   OH269879   0.990   1.520  15.278  0.0268 -0.5854 -0.4243
16155TIP3    H169880   1.070   1.549  15.320 -0.8748  0.8028  0.4113
16155TIP3    H269881   0.984   1.427  15.300  1.5637 -0.7981 -0.8088
16156TIP3   OH269882   0.730   4.551  11.085  0.8516 -0.3369 -0.4358
16156TIP3    H169883   0.822   4.560  11.110  0.8498 -2.3137  0.5248
16156TIP3    H269884   0.731   4.494  11.008  0.3908 -2.5316  1.0681
16157TIP3   OH269885   5.544   2.337   4.751 -0.0040  0.7888  0.0283
16157TIP3    H169886   5.639   2.339   4.755  0.0231  1.6641 -0.7598
16157TIP3    H269887   5.515   2.333   4.842  0.8048 -1.6670  0.2554
16158TIP3   OH269888   4.250   1.304   4.908 -0.7094 -0.2610  0.4059
16158TIP3    H169889   4.321   1.243   4.929  1.1880  2.2713  1.8749
16158TIP3    H269890   4.236   1.292   4.814  1.3716 -1.1901  0.1538
16159TIP3   OH269891   4.843   5.299   5.477  0.1598  0.3504 -0.0266
16159TIP3    H169892   4.782   5.370   5.499 -2.1483 -1.4432 -0.2842
16159TIP3    H269893   4.883   5.327   5.395 -2.7598  0.2199 -1.6099
16160TIP3   OH269894   3.974   1.280  16.959  0.0174 -0.3085 -0.2510
16160TIP3    H169895   4.059   1.238  16.948 -0.1055 -0.8191  0.6923
16160TIP3    H269896   3.992   1.374  16.949  0.5915 -0.4526 -0.6020
16161TIP3   OH269897   6.040   3.806  11.504 -0.0721  0.0596  0.9691
16161TIP3    H169898   6.116   3.861  11.524 -0.5366  1.2719 -0.4579
16161TIP3    H269899   6.016   3.830  11.415 -1.3960 -1.2028  0.9505
16162TIP3   OH269900   5.830   0.059   3.593  0.0406 -0.1171  0.1384
16162TIP3    H169901   5.772   0.126   3.557  0.9505  1.0189  0.7249
16162TIP3    H269902   5.778   0.018   3.663 -0.4927  0.0236 -0.1666
16163TIP3   OH269903   4.296   5.984   1.766 -0.1211  0.3738 -0.0264
16163TIP3    H169904   4.379   5.956   1.803 -0.0993  1.0485  0.4555
16163TIP3    H269905   4.265   6.052   1.826 -0.0199  1.5913 -1.3003
16164TIP3   OH269906   4.846   5.027   2.471 -0.4989  0.2099  0.1196
16164TIP3    H169907   4.933   4.995   2.495 -0.5041  0.1817  0.1009
16164TIP3    H269908   4.789   4.951   2.480 -0.5284  0.2377  0.1686
16165TIP3   OH269909   1.629   3.661  12.133 -0.1928  0.8584 -0.0202
16165TIP3    H169910   1.561   3.683  12.196 -0.6255 -1.0422  0.2202
16165TIP3    H269911   1.653   3.571  12.154  1.3012  0.9682 -1.1063
16166TIP3   OH269912   2.121   2.908  14.080  0.2714 -0.1159 -0.0175
16166TIP3    H169913   2.193   2.874  14.026  2.6470  1.6121  1.8040
16166TIP3    H269914   2.148   2.889  14.170 -1.3254  1.0333  0.7545
16167TIP3   OH269915   0.479   2.815   5.400  0.5476  0.3682 -0.1580
16167TIP3    H169916   0.561   2.844   5.361 -0.1136  0.3956 -1.6241
16167TIP3    H269917   0.439   2.895   5.435  1.3351  0.2826  0.9913
16168TIP3   OH269918   4.471   2.789  12.227  0.2495  0.0671 -0.3907
16168TIP3    H169919   4.456   2.777  12.133  0.4337  1.1589 -0.5754
16168TIP3    H269920   4.511   2.876  12.234  0.0861  0.0701  0.7144
16169TIP3   OH269921   0.417   2.846   3.342  0.3430 -0.5236  0.4037
16169TIP3    H169922   0.406   2.751   3.347  3.5671 -1.1774 -1.9042
16169TIP3    H269923   0.460   2.870   3.424 -1.2696 -0.8308  1.3866
16170TIP3   OH269924   5.288   6.543   2.728  0.1398  0.8466 -0.4261
16170TIP3    H169925   5.214   6.487   2.752  0.3058  1.3947  1.5105
16170TIP3    H269926   5.268   6.574   2.640 -0.9749 -0.5589 -0.6959
16171TIP3   OH269927   4.080   0.311  13.680 -0.3412 -0.0931 -0.2677
16171TIP3    H169928   4.086   0.403  13.707  1.2217 -0.3499  0.3178
16171TIP3    H269929   4.000   0.308  13.627 -0.8028  1.4490  0.2733
16172TIP3   OH269930   4.857   2.234  11.116  0.5330  0.5301  0.0664
16172TIP3    H169931   4.854   2.164  11.051  1.3570 -0.4484  1.0367
16172TIP3    H269932   4.841   2.314  11.066  2.2490 -0.0589 -1.5394
16173TIP3   OH269933   0.693   2.339  12.946  0.0294 -0.0835  0.3398
16173TIP3    H169934   0.620   2.362  13.003 -1.4662 -0.6395 -1.2658
16173TIP3    H269935   0.728   2.423  12.916  1.8120  0.3026  3.0969
16174TIP3   OH269936   4.635   3.206   5.628  0.4408  0.1112  0.3098
16174TIP3    H169937   4.582   3.162   5.561 -0.8459 -0.2499  1.5185
16174TIP3    H269938   4.571   3.246   5.686  1.3139 -2.2228  3.1358
16175TIP3   OH269939   3.887   5.985   5.590 -0.1856  0.3171 -0.2201
16175TIP3    H169940   3.933   6.012   5.510 -0.5058 -0.3491 -0.6447
16175TIP3    H269941   3.902   5.891   5.596  0.9479  0.5607  1.2581
16176TIP3   OH269942   0.027   1.370  15.903 -0.4589  0.1596 -0.1790
16176TIP3    H169943   0.118   1.356  15.875 -0.0222 -0.4405  1.4286
16176TIP3    H269944   0.031   1.369  15.998 -1.8629  2.1761 -0.0304
16177TIP3   OH269945   4.804   6.442  10.889  0.2275  0.1425 -0.4626
16177TIP3    H169946   4.748   6.411  10.817  0.7540  1.0924 -1.3124
16177TIP3    H269947   4.786   6.535  10.895  2.3323  0.6746 -1.3701
16178TIP3   OH269948   5.994   0.822  15.917  0.6129  0.3578  0.0187
16178TIP3    H169949   6.016   0.914  15.932 -0.5546  0.6407  0.0293
16178TIP3    H269950   6.044   0.797  15.840 -1.2040  1.8227 -1.7118
16179TIP3   OH269951   6.698   4.575   0.912  0.1783  0.0306  0.2893
16179TIP3    H169952   6.738   4.655   0.948  2.9556 -0.8242 -0.6033
16179TIP3    H269953   6.646   4.539   0.984  1.1247  1.2060  1.6144
16180TIP3   OH269954   1.499   4.456   0.730  0.1668 -0.1653  0.5991
16180TIP3    H169955   1.500   4.474   0.824  1.8899  0.0761  0.5658
16180TIP3    H269956   1.526   4.538   0.689  0.9659 -0.7114 -0.0013
16181TIP3   OH269957   4.641   2.095  13.631  0.5513  0.4035 -0.1181
16181TIP3    H169958   4.605   2.013  13.597  2.6036 -0.4227 -0.4550
16181TIP3    H269959   4.659   2.148  13.554  1.2308  0.2679 -0.0618
16182TIP3   OH269960   5.602   4.596   4.237 -0.1746 -1.0698 -0.1341
16182TIP3    H169961   5.688   4.564   4.209 -0.0803 -2.4665  1.5644
16182TIP3    H269962   5.614   4.619   4.330 -0.8420  1.8510 -0.6602
16183TIP3   OH269963   1.374   2.223  13.241 -0.2883 -0.5357 -0.1212
16183TIP3    H169964   1.436   2.152  13.225  0.7803  0.0482  1.2265
16183TIP3    H269965   1.322   2.194  13.316  1.8372  1.0398  2.1261
16184TIP3   OH269966   4.321   5.943   4.472  0.4574 -0.4631  0.1020
16184TIP3    H169967   4.368   5.890   4.536 -0.8845  0.8218  2.2915
16184TIP3    H269968   4.373   6.023   4.463  0.8234 -0.7798 -0.7313
16185TIP3   OH269969   3.363   4.138  11.550 -0.0292 -0.4139  0.1115
16185TIP3    H169970   3.442   4.145  11.604 -1.4805 -1.2239  2.5225
16185TIP3    H269971   3.312   4.215  11.573 -1.3024 -1.4957  1.0971
16186TIP3   OH269972   3.973   6.566  12.648 -0.0951 -0.6799  0.3076
16186TIP3    H169973   3.883   6.579  12.678 -0.5040 -0.1404 -1.0687
16186TIP3    H269974   4.027   6.601  12.719 -0.8853 -2.4765  1.8790
16187TIP3   OH269975   6.316   1.087   4.086  0.0948  0.0696  0.4992
16187TIP3    H169976   6.409   1.105   4.099 -0.0598  1.3979 -0.0359
16187TIP3    H269977   6.286   1.156   4.027 -1.2545 -0.2813  0.7295
16188TIP3   OH269978   2.461   3.287  12.322 -0.4572 -0.2893  0.1111
16188TIP3    H169979   2.461   3.293  12.226 -0.3067  1.1082  0.1775
16188TIP3    H269980   2.376   3.251  12.344 -0.2976 -1.1133 -0.5708
16189TIP3   OH269981   0.196   6.528   6.313  0.1236  0.4702 -0.0034
16189TIP3    H169982   0.219   6.615   6.346  0.1696  0.0348  1.1739
16189TIP3    H269983   0.276   6.495   6.274 -0.2980  1.5504 -1.8709
16190TIP3   OH269984   0.314   5.956  13.992 -0.3763  0.3471 -0.1737
16190TIP3    H169985   0.237   5.996  13.952 -0.8358  0.2224  0.5852
16190TIP3    H269986   0.296   5.862  13.991 -0.6054  0.3691  0.7422
16191TIP3   OH269987   5.411   6.523   4.895  0.4425  0.3667  0.3055
16191TIP3    H169988   5.373   6.460   4.956  1.1900  0.0412  0.4568
16191TIP3    H269989   5.358   6.601   4.904  0.6468  0.3868  1.5229
16192TIP3   OH269990   6.051   4.209  12.187  0.0594  0.3755  0.2637
16192TIP3    H169991   6.041   4.302  12.207 -0.0758  0.8722 -1.8044
16192TIP3    H269992   5.962   4.176  12.180  0.0920 -0.3151  2.4361
16193TIP3   OH269993   0.255   0.999   3.872 -0.3577 -0.5496 -0.4565
16193TIP3    H169994   0.228   1.033   3.957 -2.7308 -2.0549 -0.5429
16193TIP3    H269995   0.217   1.060   3.809  0.2382 -0.2128 -0.5022
16194TIP3   OH269996   0.773   3.180  11.969 -0.3447  0.3837 -0.5790
16194TIP3    H169997   0.793   3.097  12.012  1.9334  0.8125 -0.6672
16194TIP3    H269998   0.712   3.157  11.899  1.0042 -1.4003 -1.2424
16195TIP3   OH269999   1.482   6.160   1.408  0.7334 -0.5480 -0.1907
16195TIP3    H170000   1.481   6.074   1.365 -0.7102 -0.4637 -0.3919
16195TIP3    H270001   1.492   6.222   1.336 -1.9028 -0.3953 -0.5193
16196TIP3   OH270002   5.474   2.584   3.269  0.0311 -0.5889  0.5874
16196TIP3    H170003   5.546   2.588   3.206 -0.0450 -0.5982  0.4992
16196TIP3    H270004   5.510   2.623   3.349 -0.1337  0.2003  0.2874
16197TIP3   OH270005   3.470   5.477  13.484  0.2073 -0.5500 -0.4406
16197TIP3    H170006   3.491   5.536  13.412 -0.8785  1.7023  0.9942
16197TIP3    H270007   3.551   5.470  13.535  0.4232 -0.5676 -0.7862
16198TIP3   OH270008   4.588   4.790  15.415  0.4585 -0.4971  0.2443
16198TIP3    H170009   4.617   4.809  15.326 -0.0294  0.1265  0.2102
16198TIP3    H270010   4.537   4.867  15.440  1.2897 -0.2925  1.3721
16199TIP3   OH270011   2.441   1.179  12.262  0.5023 -0.3388  0.1070
16199TIP3    H170012   2.526   1.209  12.231 -0.2309  0.2643 -1.4382
16199TIP3    H270013   2.424   1.099  12.212 -0.5098  0.4059 -0.7905
16200TIP3   OH270014   3.401   3.345   3.292  0.1499 -0.3775  0.0652
16200TIP3    H170015   3.405   3.333   3.197  1.3372 -1.3251  0.2111
16200TIP3    H270016   3.492   3.340   3.321 -0.1968 -0.1021  1.2654
16201TIP3   OH270017   3.132   0.813  14.960  0.4824  0.2358  0.0249
16201TIP3    H170018   3.123   0.773  15.046  0.7356  2.1136  0.9888
16201TIP3    H270019   3.218   0.785  14.929  0.5206 -0.2075  0.5312
16202TIP3   OH270020   2.011   0.899   2.319  0.5427  0.1073  0.4726
16202TIP3    H170021   2.007   0.928   2.409  0.5333 -1.8314  1.1571
16202TIP3    H270022   1.969   0.812   2.320 -1.5660  0.9738 -1.8229
16203TIP3   OH270023   2.198   1.023   1.341  0.3982  0.0110  0.2150
16203TIP3    H170024   2.231   0.946   1.294  0.4994  0.4813 -0.5105
16203TIP3    H270025   2.106   1.003   1.358  0.6575 -0.6679  0.8934
16204TIP3   OH270026   5.261   1.384   0.463  0.7164 -0.9020 -0.3277
16204TIP3    H170027   5.192   1.318   0.472  0.8654 -1.1821 -1.1673
16204TIP3    H270028   5.225   1.462   0.506 -1.1107 -0.3297 -2.6987
16205TIP3   OH270029   0.537   5.132   4.084 -0.0467 -0.0899 -0.6771
16205TIP3    H170030   0.538   5.065   4.152 -1.0337  0.4964 -0.0531
16205TIP3    H270031   0.591   5.203   4.119 -0.3134  0.0911 -0.6285
16206TIP3   OH270032   4.305   6.414  13.174 -0.2359 -0.1707 -0.0813
16206TIP3    H170033   4.246   6.350  13.214 -0.2586  0.3919  0.8319
16206TIP3    H270034   4.390   6.398  13.215 -0.0085 -0.2535 -0.5762
16207TIP3   OH270035   6.227   2.740   1.218 -0.2090 -0.3609 -0.1463
16207TIP3    H170036   6.275   2.764   1.297 -1.6365 -0.9897  0.9514
16207TIP3    H270037   6.188   2.822   1.187 -0.0176 -0.1945  0.0494
16208TIP3   OH270038   0.793   2.512   1.075  0.1129 -1.1740  0.0112
16208TIP3    H170039   0.870   2.456   1.081  1.4618  0.5800 -0.0922
16208TIP3    H270040   0.784   2.551   1.162 -1.1433 -1.9301  0.2457
16209TIP3   OH270041   0.833   3.233   4.536 -0.4106 -0.7327  0.2847
16209TIP3    H170042   0.769   3.164   4.551  0.0186 -1.3865 -0.7997
16209TIP3    H270043   0.795   3.286   4.467  0.8092 -1.9685 -1.4187
16210TIP3   OH270044   1.086   1.445  11.665  0.0722  0.7463  0.4498
16210TIP3    H170045   1.061   1.453  11.573  1.3671 -2.1215 -0.2993
16210TIP3    H270046   1.019   1.388  11.703  0.5792  0.3155  0.7240
16211TIP3   OH270047   3.408   6.299  13.321 -0.4616  0.3233  0.1060
16211TIP3    H170048   3.414   6.333  13.231 -3.4171  0.2958 -0.1814
16211TIP3    H270049   3.414   6.204  13.310 -1.5544  0.2728 -0.1939
16212TIP3   OH270050   5.726   4.554  12.245  0.1058  0.1288 -0.0926
16212TIP3    H170051   5.774   4.538  12.163  0.2373 -0.7259  0.1421
16212TIP3    H270052   5.653   4.609  12.219  1.1426  1.3839 -0.4740
16213TIP3   OH270053   3.411   2.297   1.809  0.0383  0.0317  0.3543
16213TIP3    H170054   3.368   2.357   1.748 -0.0775  0.2942  0.6893
16213TIP3    H270055   3.485   2.347   1.844  1.2730 -0.7675 -1.0024
16214TIP3   OH270056   2.843   2.995  13.943  0.4224 -0.2570  0.1713
16214TIP3    H170057   2.881   2.915  13.909  0.4069 -0.3905  0.4644
16214TIP3    H270058   2.847   2.985  14.038 -1.2339 -0.7182  0.2330
16215TIP3   OH270059   0.571   5.760  16.725  0.0032  0.4947  0.4339
16215TIP3    H170060   0.519   5.712  16.660  0.0984 -0.1331  0.8126
16215TIP3    H270061   0.646   5.703  16.742 -1.5933 -0.9600  3.4827
16216TIP3   OH270062   2.775   6.310   1.227  0.4932  0.4014  0.5783
16216TIP3    H170063   2.855   6.261   1.247  1.3450  1.2627 -0.5259
16216TIP3    H270064   2.807   6.398   1.208 -0.8077  0.9126  0.6980
16217TIP3   OH270065   4.022   2.979   4.499  0.1268 -0.3371  0.3123
16217TIP3    H170066   3.942   2.952   4.544  0.6112  0.1848  1.5297
16217TIP3    H270067   4.068   2.897   4.481  0.1105 -0.5406  1.1431
16218TIP3   OH270068   4.112   5.418  15.220 -0.5211  0.1169  0.7001
16218TIP3    H170069   4.033   5.393  15.173  0.4529 -0.5231 -0.6732
16218TIP3    H270070   4.119   5.356  15.292 -2.3795  1.4994  2.1887
16219TIP3   OH270071   5.215   4.747   2.369  0.1432 -0.1805 -0.0267
16219TIP3    H170072   5.230   4.652   2.367  0.7119 -0.1861  1.9285
16219TIP3    H270073   5.293   4.785   2.329 -0.9566 -0.5226 -2.7046
16220TIP3   OH270074   5.308   3.593   0.928 -0.2637 -0.3166  0.0956
16220TIP3    H170075   5.402   3.603   0.915 -0.5046  0.8662 -0.8568
16220TIP3    H270076   5.289   3.504   0.900  0.5392 -0.5115  0.1504
16221TIP3   OH270077   3.172   2.448  16.002  0.1120 -0.1729  0.1379
16221TIP3    H170078   3.087   2.437  16.045  0.7284  0.5125  1.6143
16221TIP3    H270079   3.233   2.465  16.074  1.5578 -0.9355 -0.8676
16222TIP3   OH270080   1.105   4.482  15.665 -0.3487  0.3649 -0.1984
16222TIP3    H170081   1.033   4.420  15.653 -0.6919  1.0006 -1.7207
16222TIP3    H270082   1.151   4.451  15.742 -0.8474 -1.4583 -0.5817
16223TIP3   OH270083   5.914   4.506  16.717  0.0203 -0.0474 -0.2346
16223TIP3    H170084   6.000   4.481  16.752 -1.0880 -1.1855  1.8476
16223TIP3    H270085   5.853   4.443  16.756 -1.7328  0.4863 -1.9782
16224TIP3   OH270086   0.755   2.513  16.612 -0.1218 -0.1099 -0.6030
16224TIP3    H170087   0.722   2.423  16.614 -0.9560  0.1924  1.0600
16224TIP3    H270088   0.849   2.504  16.594 -0.3122 -1.2561 -1.1012
16225TIP3   OH270089   4.775   5.225  13.136  0.0455 -0.1922  0.0903
16225TIP3    H170090   4.738   5.313  13.132 -1.9156 -0.8108  2.4248
16225TIP3    H270091   4.863   5.235  13.099 -0.4352  2.5294 -0.5643
16226TIP3   OH270092   6.027   6.555  15.706  0.3426 -0.2595 -0.1266
16226TIP3    H170093   6.036   6.470  15.665  1.9579 -0.2389  0.1202
16226TIP3    H270094   6.082   6.550  15.784 -1.7584  0.0793  1.4659
16227TIP3   OH270095   5.138   2.930   2.515  0.1307  0.2288 -0.0942
16227TIP3    H170096   5.164   3.004   2.460  1.0646 -0.7783 -1.0510
16227TIP3    H270097   5.058   2.960   2.559  0.9840  2.1287  0.2446
16228TIP3   OH270098   5.406   3.184  11.989  0.1114  0.2315 -0.1487
16228TIP3    H170099   5.411   3.096  12.025 -0.6795  0.1146 -0.3014
16228TIP3    H270100   5.413   3.242  12.065 -0.7457  0.0040  0.1201
16229TIP3   OH270101   5.376   2.056  14.321 -0.6268  0.3561  0.0833
16229TIP3    H170102   5.321   2.085  14.249 -1.5820 -3.3233 -0.8820
16229TIP3    H270103   5.319   2.001  14.375  0.7715  0.7996  2.1531
16230TIP3   OH270104   3.550   5.399  12.185  0.5810 -0.1529 -0.2375
16230TIP3    H170105   3.512   5.315  12.161  0.7589 -0.7435  1.4416
16230TIP3    H270106   3.493   5.464  12.143 -1.0661 -1.0543  0.5322
16231TIP3   OH270107   1.254   6.378  11.397 -0.7351 -0.2475 -0.3285
16231TIP3    H170108   1.271   6.398  11.489  0.4343 -1.0160 -0.3546
16231TIP3    H270109   1.158   6.376  11.390 -0.8416 -0.0349  0.8314
16232TIP3   OH270110   6.497   0.558  14.341 -0.0127 -0.6423 -0.6413
16232TIP3    H170111   6.586   0.593  14.347 -0.1810 -0.3387  0.2700
16232TIP3    H270112   6.445   0.632  14.309 -0.4595  0.1754  1.7742
16233TIP3   OH270113   5.507   6.277  14.619 -0.4357 -0.2036  0.2208
16233TIP3    H170114   5.504   6.251  14.712 -0.8493 -0.0346  0.2584
16233TIP3    H270115   5.427   6.239  14.582 -1.3207  1.4225  0.3916
16234TIP3   OH270116   0.553   1.304   3.724  0.2697 -0.3348 -0.7701
16234TIP3    H170117   0.525   1.360   3.796 -0.4701  0.8910 -1.9594
16234TIP3    H270118   0.642   1.332   3.704  0.3633 -0.4646 -0.5352
16235TIP3   OH270119   1.159   3.117   2.717  0.5164 -0.0634 -0.5696
16235TIP3    H170120   1.246   3.076   2.724  0.4935  0.1431  1.1792
16235TIP3    H270121   1.163   3.166   2.634  1.9279 -0.3778 -0.7155
16236TIP3   OH270122   0.332   0.588  14.985  0.0536 -0.2318  0.5601
16236TIP3    H170123   0.237   0.575  14.995  0.0166 -0.6384 -0.2530
16236TIP3    H270124   0.369   0.554  15.067 -0.4971 -0.0887  0.8772
16237TIP3   OH270125   0.772   5.492   5.257  0.2020 -0.1753  0.0027
16237TIP3    H170126   0.750   5.404   5.289 -1.7146 -0.2213 -1.2584
16237TIP3    H270127   0.780   5.545   5.336 -1.6728 -0.8489  0.6906
16238TIP3   OH270128   0.180   3.931   4.785 -0.3009 -0.3278  0.4515
16238TIP3    H170129   0.112   3.997   4.799 -1.4364 -1.4785  0.5631
16238TIP3    H270130   0.231   3.932   4.866 -0.0839  0.6581  0.3073
16239TIP3   OH270131   5.689   1.219  16.944  0.9083  0.3390 -0.3549
16239TIP3    H170132   5.650   1.299  16.979  0.4510 -0.7576  1.8317
16239TIP3    H270133   5.614   1.166  16.916  0.8435 -0.9492  2.0106
16240TIP3   OH270134   5.223   6.563   3.916 -0.4375 -0.1748 -0.4047
16240TIP3    H170135   5.295   6.600   3.866  0.5939 -0.2235  0.9652
16240TIP3    H270136   5.144   6.599   3.876  0.2251 -1.2862 -2.8978
16241TIP3   OH270137   4.568   2.274   2.946 -0.0425  0.2077 -0.2060
16241TIP3    H170138   4.529   2.220   2.878 -2.2534 -0.1363  1.2205
16241TIP3    H270139   4.595   2.354   2.901  0.3856 -0.7888 -1.7985
16242TIP3   OH270140   5.612   2.581  16.890 -0.1021  0.2319  0.3772
16242TIP3    H170141   5.671   2.555  16.961 -0.5790 -1.5539  0.1593
16242TIP3    H270142   5.608   2.676  16.896 -1.0675  0.1194  3.5275
16243TIP3   OH270143   0.595   3.127   0.068  0.2027 -0.3933  0.1105
16243TIP3    H170144   0.594   3.051   0.127 -0.6017 -0.6698 -0.2409
16243TIP3    H270145   0.583   3.090  -0.019 -1.6905  0.2107  0.0565
16244TIP3   OH270146   2.005   2.862  15.784  0.5963 -0.6209 -0.3964
16244TIP3    H170147   1.955   2.925  15.835  1.3086  0.4918 -1.0316
16244TIP3    H270148   1.944   2.790  15.767 -0.2981 -0.0043  0.1475
16245TIP3   OH270149   2.540   4.042  13.517  0.1843 -0.3650  0.8547
16245TIP3    H170150   2.495   3.992  13.448  2.4625 -2.8359  1.0287
16245TIP3    H270151   2.631   4.047  13.487  1.1212 -1.0386  3.3813
16246TIP3   OH270152   2.192   2.486   3.853 -0.6983  0.0876  0.0738
16246TIP3    H170153   2.208   2.496   3.759 -1.9283  1.4265 -0.0239
16246TIP3    H270154   2.218   2.396   3.872 -0.3337 -0.1799 -1.5289
16247TIP3   OH270155   5.734   2.309   1.317  0.3285  0.2008 -0.1446
16247TIP3    H170156   5.805   2.341   1.372 -0.9515  1.5638  0.7839
16247TIP3    H270157   5.731   2.371   1.244  1.1697 -0.8494 -1.1148
16248TIP3   OH270158   0.103   4.145   5.466  0.2698 -0.1220  0.1730
16248TIP3    H170159   0.198   4.149   5.459  0.2729 -0.1821  0.1828
16248TIP3    H270160   0.085   4.158   5.559  0.3499 -1.7102  0.4293
16249TIP3   OH270161   0.785   3.801  10.798 -0.4304 -0.0112 -0.3079
16249TIP3    H170162   0.815   3.711  10.780  0.4712  0.1307  0.3889
16249TIP3    H270163   0.841   3.856  10.744  1.7939  0.3666  2.1636
16250TIP3   OH270164   1.206   2.635  17.052 -0.1202 -0.1554  0.2608
16250TIP3    H170165   1.206   2.725  17.018 -0.9234 -0.7563 -1.4376
16250TIP3    H270166   1.290   2.599  17.024  0.5074  0.2490  1.5469
16251TIP3   OH270167   3.037   4.926   0.040  0.0502 -0.0949  0.3100
16251TIP3    H170168   2.982   4.998   0.070  2.3373  1.9785 -0.0754
16251TIP3    H270169   3.031   4.930  -0.056 -0.7458 -1.2586  0.2902
16252TIP3   OH270170   1.938   6.411  16.896  0.0393  0.4419  0.0636
16252TIP3    H170171   2.027   6.414  16.931 -0.3278 -0.2718  1.1043
16252TIP3    H270172   1.943   6.350  16.822  0.6598  1.3703 -0.6843
16253TIP3   OH270173   1.653   0.119   0.611 -0.4440  0.1273  0.3671
16253TIP3    H170174   1.713   0.168   0.555 -0.8372  1.0722  0.7468
16253TIP3    H270175   1.573   0.171   0.613 -0.7292 -0.3085  1.1308
16254TIP3   OH270176   0.134   0.881  15.164 -0.3277 -0.1087  0.1210
16254TIP3    H170177   0.057   0.851  15.211 -0.2284  0.4915  0.6865
16254TIP3    H270178   0.114   0.971  15.139 -0.7349 -0.6840 -1.7967
16255TIP3   OH270179   0.250   3.138   4.483  0.0771 -0.3015 -0.4948
16255TIP3    H170180   0.271   3.216   4.536  1.3569  0.3906 -1.9611
16255TIP3    H270181   0.281   3.065   4.537  1.9934  0.4245 -0.5144
16256TIP3   OH270182   3.577   5.432  15.375  0.6102 -0.7694  0.2331
16256TIP3    H170183   3.497   5.457  15.420  0.3718  3.0850 -1.9067
16256TIP3    H270184   3.570   5.337  15.364 -1.9406 -1.0526  3.0804
16257TIP3   OH270185   0.088   5.499  16.311 -0.1264  0.7872 -0.4901
16257TIP3    H170186   0.156   5.534  16.254 -0.1702 -0.0727 -1.0926
16257TIP3    H270187   0.112   5.407  16.322 -1.2536  0.4404 -0.8199
16258TIP3   OH270188   0.551   6.714   3.661 -0.2870 -0.9329  0.0323
16258TIP3    H170189   0.510   6.685   3.580  0.9504 -2.2964 -0.1451
16258TIP3    H270190   0.596   6.795   3.638 -0.1304 -1.1946 -0.5767
16259TIP3   OH270191   1.547   6.086   4.668  0.1778 -0.3272  0.2070
16259TIP3    H170192   1.605   6.113   4.740  0.9832 -0.0605 -0.5238
16259TIP3    H270193   1.463   6.128   4.689  0.7091  0.6845  0.4134
16260TIP3   OH270194   5.640   4.504   5.688  0.5486  0.3242  0.5307
16260TIP3    H170195   5.598   4.418   5.695  0.7938  0.1512 -0.0653
16260TIP3    H270196   5.570   4.563   5.661  0.6823  0.0284 -0.4969
16261TIP3   OH270197   1.801   1.371  15.263 -0.3297 -0.0428  0.4283
16261TIP3    H170198   1.859   1.395  15.192 -1.3078  3.3573  0.6295
16261TIP3    H270199   1.755   1.293  15.231  0.5611  0.3061 -1.8651
16262TIP3   OH270200   2.701   1.930   0.226 -0.3377 -0.8980 -0.2055
16262TIP3    H170201   2.752   1.974   0.158 -1.9754  0.1422 -0.8227
16262TIP3    H270202   2.697   1.993   0.298  0.1768 -1.4245  0.2910
16263TIP3   OH270203   1.868   5.372  11.113  0.5081 -0.1075  0.3802
16263TIP3    H170204   1.932   5.349  11.180  0.9946 -1.1181 -0.3943
16263TIP3    H270205   1.911   5.347  11.030 -0.4111  0.3240 -0.2412
16264TIP3   OH270206   5.805   1.286   2.103 -0.0157 -0.7042 -0.0349
16264TIP3    H170207   5.720   1.243   2.092 -0.4122 -0.0636  0.4429
16264TIP3    H270208   5.791   1.348   2.175  0.4739  0.3870 -0.8530
16265TIP3   OH270209   5.742   5.753   1.265 -0.1624  0.2635 -0.1479
16265TIP3    H170210   5.809   5.743   1.197  0.2361 -0.3204  0.3233
16265TIP3    H270211   5.660   5.733   1.221  0.1792 -0.9503 -0.2596
16266TIP3   OH270212   2.401   3.294  16.156  0.2350 -0.2406  0.1478
16266TIP3    H170213   2.483   3.251  16.182  0.0748 -0.4590  0.2942
16266TIP3    H270214   2.349   3.296  16.236  0.9903  1.9862  0.6526
16267TIP3   OH270215   0.074   6.129  15.373  0.0311 -0.2713 -0.2306
16267TIP3    H170216   0.092   6.200  15.434 -2.3855  1.1911 -1.0803
16267TIP3    H270217  -0.017   6.105  15.390  1.1165 -4.2139  0.9692
16268TIP3   OH270218   3.072   4.072  11.557 -1.0273  0.0279 -0.1747
16268TIP3    H170219   3.060   4.059  11.651  1.8286  0.0752  0.2647
16268TIP3    H270220   3.163   4.097  11.547 -0.3813 -2.7591 -3.1929
16269TIP3   OH270221   3.922   1.398  11.105 -0.0911  0.0496  0.1998
16269TIP3    H170222   3.869   1.343  11.048 -0.9718  0.0443  0.9868
16269TIP3    H270223   3.987   1.339  11.143  0.5679  0.0787 -0.8637
16270TIP3   OH270224   6.139   3.942  11.853 -0.0879  0.4404  0.1358
16270TIP3    H170225   6.125   3.861  11.804 -0.0773  0.6301 -0.1889
16270TIP3    H270226   6.065   3.998  11.829  0.3848  0.8676 -0.3663
16271TIP3   OH270227   3.861   0.372   3.000  0.6507  0.4080 -0.5192
16271TIP3    H170228   3.772   0.372   3.037  1.2031 -0.5401  0.8978
16271TIP3    H270229   3.890   0.282   3.007  1.4649  0.5536 -1.7026
16272TIP3   OH270230   4.366   0.946  15.093 -0.1817  0.7296 -0.1835
16272TIP3    H170231   4.355   1.037  15.121  2.4227  1.3740 -0.9041
16272TIP3    H270232   4.455   0.923  15.120 -0.7442 -1.6136 -0.0870
16273TIP3   OH270233   4.387   3.930   5.208 -0.7681  0.1770  0.5405
16273TIP3    H170234   4.308   3.965   5.165  0.4663  1.4719 -0.7675
16273TIP3    H270235   4.394   3.981   5.288 -1.8005 -0.6637  1.2031
16274TIP3   OH270236   1.376   6.272  15.080  0.1609  0.1882 -0.1338
16274TIP3    H170237   1.315   6.255  15.008  1.5099  1.3465 -1.6229
16274TIP3    H270238   1.343   6.219  15.153 -1.0182 -1.3675 -1.7203
16275TIP3   OH270239   3.688   6.407   4.793  0.6928 -0.0989  0.2541
16275TIP3    H170240   3.651   6.337   4.847 -2.3926  1.0829 -0.1114
16275TIP3    H270241   3.743   6.361   4.729 -1.0909 -2.2134  0.1084
16276TIP3   OH270242   6.568   6.138   4.420 -0.1869  0.2688 -0.2679
16276TIP3    H170243   6.614   6.093   4.349  0.2347 -1.6233  1.1362
16276TIP3    H270244   6.500   6.189   4.375  0.6290 -0.1474 -2.0825
16277TIP3   OH270245   2.282   4.953  11.837 -0.5033 -0.2373 -0.3603
16277TIP3    H170246   2.284   4.929  11.744  0.1192 -1.9040  0.0439
16277TIP3    H270247   2.374   4.961  11.862 -0.6688  1.7926 -0.2223
16278TIP3   OH270248   3.865   1.942   2.172  0.1932 -0.4537  0.4590
16278TIP3    H170249   3.797   1.878   2.152 -1.4652  1.3209  0.2274
16278TIP3    H270250   3.907   1.960   2.088  0.6200 -1.1485  0.5139
16279TIP3   OH270251   1.581   1.891  12.362  0.5307 -0.4615  0.4142
16279TIP3    H170252   1.647   1.960  12.358  1.8121 -1.6166  0.7252
16279TIP3    H270253   1.619   1.826  12.421 -1.1857 -0.8703  1.0943
16280TIP3   OH270254   0.739   5.152  11.783  0.6770  0.0364 -0.4315
16280TIP3    H170255   0.738   5.059  11.805 -0.3800  0.6169  2.4029
16280TIP3    H270256   0.709   5.155  11.692 -0.2557 -2.3347 -0.2867
16281TIP3   OH270257   5.673   3.306   3.702  0.8988  0.0628 -0.7585
16281TIP3    H170258   5.628   3.259   3.632 -0.3453  0.5013 -0.2870
16281TIP3    H270259   5.616   3.380   3.722  0.9897 -0.2918  1.0124
16282TIP3   OH270260   3.546   5.553  11.243  0.2241 -0.1343  0.0341
16282TIP3    H170261   3.490   5.523  11.315 -0.3763  0.0354 -0.3478
16282TIP3    H270262   3.501   5.630  11.209 -0.2652 -1.0224 -1.4257
16283TIP3   OH270263   3.623   4.384   1.756  0.1338 -0.1005 -0.5301
16283TIP3    H170264   3.570   4.304   1.766  1.2189 -1.1519 -2.5315
16283TIP3    H270265   3.713   4.355   1.769  0.4297  1.1654  0.3873
16284TIP3   OH270266   6.412   3.851   5.539  0.3281  0.5845 -0.1071
16284TIP3    H170267   6.432   3.834   5.447  0.2823 -0.0141 -0.0108
16284TIP3    H270268   6.338   3.912   5.536 -0.3710 -0.2505 -0.4858
16285TIP3   OH270269   5.204   4.769  10.962  0.1110 -0.2703  0.3981
16285TIP3    H170270   5.157   4.695  11.001 -0.9479  0.7399  1.1290
16285TIP3    H270271   5.163   4.782  10.877  0.6796 -0.8584  0.0241
16286TIP3   OH270272   4.159   6.562   2.054 -0.0884  0.4009  0.0505
16286TIP3    H170273   4.101   6.488   2.074 -1.3481  1.8565  2.3881
16286TIP3    H270274   4.139   6.585   1.963 -1.2413 -0.8046 -0.0300
16287TIP3   OH270275   1.590   6.322  16.089 -0.0615 -0.3991 -0.4460
16287TIP3    H170276   1.513   6.276  16.056 -0.6407 -1.3407  2.0627
16287TIP3    H270277   1.650   6.252  16.116  0.1333  0.2975  1.0102
16288TIP3   OH270278   2.202   4.368  12.347 -0.4176 -0.4220 -0.5519
16288TIP3    H170279   2.243   4.282  12.336  0.1089 -0.4752  1.5699
16288TIP3    H270280   2.112   4.348  12.374 -0.1904 -0.3199  0.2945
16289TIP3   OH270281   2.059   1.477  13.282  0.1250  0.4817 -0.1556
16289TIP3    H170282   2.071   1.505  13.192 -0.8988  2.5128  0.2768
16289TIP3    H270283   1.991   1.410  13.278  0.9402 -0.3077 -0.9957
16290TIP3   OH270284   3.389   5.349   4.358 -0.3094 -0.0676 -0.3175
16290TIP3    H170285   3.440   5.423   4.391  2.3015 -2.0991  0.6160
16290TIP3    H270286   3.385   5.364   4.263  0.5058  1.0916 -0.1938
16291TIP3   OH270287   2.206   1.122   3.479 -0.1874  0.0475  0.3106
16291TIP3    H170288   2.166   1.205   3.504  1.8986  0.9280  1.0232
16291TIP3    H270289   2.181   1.061   3.549  0.2872  0.7743  1.1352
16292TIP3   OH270290   1.924   3.325   4.996  0.4192  0.2338 -0.0527
16292TIP3    H170291   1.864   3.398   5.009  0.5318  0.5037 -0.9952
16292TIP3    H270292   1.906   3.295   4.907  0.8036 -0.4926  0.1081
16293TIP3   OH270293   4.441   5.771  14.144  0.1785  0.7410  0.3759
16293TIP3    H170294   4.378   5.763  14.072  2.2238  1.2872 -1.5975
16293TIP3    H270295   4.514   5.713  14.118  0.8670  0.7335  2.1694
16294TIP3   OH270296   5.134   6.018  12.707 -0.7585  0.2657 -0.6326
16294TIP3    H170297   5.119   6.109  12.734 -0.7982 -0.0957  0.6804
16294TIP3    H270298   5.100   5.967  12.781 -1.2488 -0.8315 -1.5971
16295TIP3   OH270299   1.492   1.076  12.017  0.6272 -0.1253  0.0898
16295TIP3    H170300   1.533   1.061  12.102  1.1866 -0.8971 -0.3051
16295TIP3    H270301   1.545   1.146  11.978 -0.7578  1.5890  1.1035
16296TIP3   OH270302   0.306   5.993   2.868  0.4052  0.1152  0.3474
16296TIP3    H170303   0.284   6.084   2.885 -2.0286 -0.2870 -0.2421
16296TIP3    H270304   0.266   5.944   2.940  0.1672 -0.6033 -0.2550
16297TIP3   OH270305   3.717   4.653   0.784 -0.1982 -0.1814 -0.3581
16297TIP3    H170306   3.668   4.583   0.827 -0.7397 -0.0028 -0.6752
16297TIP3    H270307   3.691   4.733   0.830 -0.1916 -0.0909 -0.5095
16298TIP3   OH270308   3.930   6.201  11.790  0.1016  0.3522 -1.0267
16298TIP3    H170309   3.850   6.156  11.761  0.7425 -0.1734 -2.0350
16298TIP3    H270310   3.991   6.130  11.811  0.3694  0.7487 -0.4443
16299TIP3   OH270311   6.293   4.625  16.492 -0.8263 -0.0294 -0.8867
16299TIP3    H170312   6.263   4.650  16.580  2.3594 -1.2140  0.7146
16299TIP3    H270313   6.244   4.545  16.473 -0.0752 -0.9662  0.8360
16300TIP3   OH270314   3.977   1.074   2.633 -0.4487  1.2394 -0.0314
16300TIP3    H170315   3.907   1.033   2.582 -1.4746  0.3644  1.9615
16300TIP3    H270316   4.057   1.058   2.582 -1.1192 -1.4358 -0.4062
16301TIP3   OH270317   1.846   1.385   3.375 -0.2669 -0.3829 -0.4905
16301TIP3    H170318   1.809   1.462   3.332 -2.0149 -0.6323  0.4745
16301TIP3    H270319   1.928   1.370   3.330  0.2996  2.2331 -0.5008
16302TIP3   OH270320   4.202   5.384  13.402  0.1502  0.1346  0.0845
16302TIP3    H170321   4.217   5.290  13.391  1.2381  0.1587  1.1574
16302TIP3    H270322   4.144   5.407  13.329  0.3091 -1.2492 -0.5263
16303TIP3   OH270323   2.644   2.492   1.081  0.1881 -0.4978  0.5298
16303TIP3    H170324   2.734   2.487   1.051  0.8322 -0.6336  2.3694
16303TIP3    H270325   2.601   2.417   1.039  1.0734 -0.7857  0.1089
16304TIP3   OH270326   5.263   4.974  15.129  0.2076  0.7260  0.4207
16304TIP3    H170327   5.287   4.951  15.218  0.9950 -1.3125 -0.2779
16304TIP3    H270328   5.302   4.906  15.074 -1.4351  1.1142 -1.3649
16305TIP3   OH270329   5.323   6.600  16.389  0.0268  0.2808 -0.3227
16305TIP3    H170330   5.286   6.651  16.461  0.4138  1.9735 -1.2719
16305TIP3    H270331   5.248   6.576  16.335 -0.2450 -0.8559  0.5207
16306TIP3   OH270332   6.384   3.375   5.459  0.0676  0.5664  0.1602
16306TIP3    H170333   6.433   3.381   5.378 -1.3689  0.9663 -0.7262
16306TIP3    H270334   6.306   3.429   5.444 -0.8055 -0.2898  1.3736
16307TIP3   OH270335   2.996   4.650   6.295 -0.0985  0.3278  0.1348
16307TIP3    H170336   3.020   4.734   6.335 -0.8694  1.0331 -0.8221
16307TIP3    H270337   2.903   4.639   6.316  0.7941 -2.2185  3.5356
16308TIP3   OH270338   4.106   0.837   3.109 -0.2501 -0.2539 -0.3301
16308TIP3    H170339   4.083   0.756   3.063  0.5744 -0.1800 -0.8859
16308TIP3    H270340   4.111   0.903   3.041 -0.0913  0.0933  0.0158
16309TIP3   OH270341   4.288   1.435  13.649  0.6494  0.1246 -0.5440
16309TIP3    H170342   4.303   1.530  13.643  1.8335  0.1269  1.5062
16309TIP3    H270343   4.193   1.426  13.644  0.4436  1.5495  0.1909
16310TIP3   OH270344   5.254   1.716  15.129 -0.1213 -0.1468 -0.2812
16310TIP3    H170345   5.192   1.690  15.061 -1.8350 -0.1134  1.1898
16310TIP3    H270346   5.201   1.720  15.209  0.7624  4.1808  0.3104
16311TIP3   OH270347   1.926   0.210  15.350 -0.0939  0.2739  0.1871
16311TIP3    H170348   1.880   0.294  15.355 -1.4066 -0.3828 -0.2210
16311TIP3    H270349   1.944   0.188  15.441  0.9227  1.3267  0.2591
16312TIP3   OH270350   2.496   4.763  15.314  0.0338  0.2637  0.4833
16312TIP3    H170351   2.485   4.741  15.407  0.5940 -0.4615  0.3884
16312TIP3    H270352   2.547   4.843  15.315  0.8994 -0.2703  0.8069
16313TIP3   OH270353   2.605   2.534  16.432 -0.7291  0.1985 -0.1595
16313TIP3    H170354   2.667   2.496  16.370  1.7418 -0.0473  2.2506
16313TIP3    H270355   2.555   2.597  16.380  1.2686  0.1181 -2.3688
16314TIP3   OH270356   4.917   3.748  13.716  0.2252  0.1326  0.5963
16314TIP3    H170357   4.862   3.704  13.652  2.1579 -0.0873 -0.9903
16314TIP3    H270358   4.943   3.679  13.777  2.7124 -0.9500 -1.5073
16315TIP3   OH270359   5.890   1.970   3.131  0.3488  0.5583  0.2412
16315TIP3    H170360   5.919   1.918   3.056  0.2273  1.7385 -0.6452
16315TIP3    H270361   5.968   1.983   3.184  0.2295 -1.1868  0.9150
16316TIP3   OH270362   2.214   2.678  11.890 -0.6901 -0.1096  0.2847
16316TIP3    H170363   2.223   2.745  11.823 -0.4292 -1.4349 -1.0566
16316TIP3    H270364   2.132   2.698  11.934  0.1832  2.0366  1.0414
16317TIP3   OH270365   2.094   0.116  13.868 -0.1401  0.0706  0.1962
16317TIP3    H170366   2.117   0.086  13.781  1.8521  1.0412  0.3205
16317TIP3    H270367   2.143   0.198  13.879  1.7552 -1.2745  3.1280
16318TIP3   OH270368   6.310   5.956   0.925 -0.4875  0.5344  0.0171
16318TIP3    H170369   6.348   6.044   0.919  0.0167  0.2998 -0.2651
16318TIP3    H270370   6.364   5.903   0.866 -0.7988  0.0395  0.1787
16319TIP3   OH270371   2.317   4.029  15.203  0.4974 -0.0346  0.4653
16319TIP3    H170372   2.307   4.030  15.108  1.4267 -0.3396  0.3554
16319TIP3    H270373   2.397   3.977  15.218  0.7470  0.5978  1.3720
16320TIP3   OH270374   2.682   2.338   0.512  0.3955 -0.4500 -0.0355
16320TIP3    H170375   2.665   2.392   0.435  0.3153 -0.0686  0.2468
16320TIP3    H270376   2.713   2.400   0.579  0.2803 -0.7475  0.2981
16321TIP3   OH270377   5.939   1.021   5.085  0.2206 -0.1746 -0.2498
16321TIP3    H170378   5.907   1.096   5.035  0.5015  0.1192  0.0019
16321TIP3    H270379   5.889   0.947   5.052 -0.3030  0.1805 -0.2641
16322TIP3   OH270380   5.247   0.868  11.020  0.1830  0.4220  0.6574
16322TIP3    H170381   5.268   0.835  10.933  0.0753  2.0475 -0.0036
16322TIP3    H270382   5.181   0.806  11.053  0.5079 -0.4308 -0.2348
16323TIP3   OH270383   2.319   3.618  13.901  0.6877 -0.2961  0.2561
16323TIP3    H170384   2.311   3.534  13.856  0.8708  0.1774 -0.6670
16323TIP3    H270385   2.269   3.679  13.847  2.2402  0.6222 -0.2119
16324TIP3   OH270386   3.630   1.918  14.734 -0.4249 -0.7429  0.0712
16324TIP3    H170387   3.681   1.888  14.658  1.8949  0.8974  0.8355
16324TIP3    H270388   3.674   1.877  14.809  1.2273  2.2695  0.9169
16325TIP3   OH270389   1.201   4.174  15.466  0.5549 -0.0972 -0.2136
16325TIP3    H170390   1.196   4.239  15.396 -2.5313  0.8551  0.7036
16325TIP3    H270391   1.109   4.152  15.485  1.2345 -0.6823  3.1198
16326TIP3   OH270392   3.673   6.734   3.739 -0.5760 -0.6470 -0.4649
16326TIP3    H170393   3.670   6.678   3.817 -0.7241  0.2989  0.2188
16326TIP3    H270394   3.583   6.761   3.726 -0.8040 -1.9540 -1.8437
16327TIP3   OH270395   5.138   2.839  14.247 -0.0949  0.3836  0.2621
16327TIP3    H170396   5.217   2.893  14.245  0.5229 -0.5084  0.2866
16327TIP3    H270397   5.140   2.790  14.165 -0.7484  0.5216  0.1540
16328TIP3   OH270398   5.822   4.449   4.655  0.6030  0.1140 -0.4267
16328TIP3    H170399   5.862   4.510   4.718 -0.9486  0.8129 -0.0817
16328TIP3    H270400   5.746   4.414   4.701  0.0664 -0.1981 -1.5297
16329TIP3   OH270401   1.134   4.533  13.559  0.0677  0.1944  0.1419
16329TIP3    H170402   1.043   4.506  13.570 -0.3166  1.2356 -0.3190
16329TIP3    H270403   1.184   4.451  13.556 -1.0866 -0.4969 -1.5041
16330TIP3   OH270404   4.237   0.285   5.385 -0.1880  0.1832  0.0684
16330TIP3    H170405   4.240   0.262   5.477 -0.8012  2.6226  0.7736
16330TIP3    H270406   4.328   0.277   5.355  0.9334  3.3518  2.0730
16331TIP3   OH270407   5.291   5.653   3.044 -0.0398 -0.7740  0.1138
16331TIP3    H170408   5.327   5.583   2.990  1.3750 -1.2409  1.5727
16331TIP3    H270409   5.365   5.680   3.100 -0.2882  2.4019 -0.8990
16332TIP3   OH270410   0.780   4.723  12.119 -0.4096  0.5296 -0.3629
16332TIP3    H170411   0.746   4.768  12.197  1.2830 -0.8865  1.2856
16332TIP3    H270412   0.766   4.630  12.136 -1.9821  0.2386 -2.7921
16333TIP3   OH270413   1.351   1.512  14.449 -0.1724  0.0712  0.4363
16333TIP3    H170414   1.347   1.420  14.477 -0.1804 -0.2573 -0.6021
16333TIP3    H270415   1.427   1.547  14.495  1.5931 -1.2459 -1.2970
16334TIP3   OH270416   2.854   0.547   2.170  0.1974 -0.1752 -0.3279
16334TIP3    H170417   2.867   0.456   2.144  1.4057 -0.4951  1.1980
16334TIP3    H270418   2.761   0.554   2.190  0.3990 -1.6638  1.4145
16335TIP3   OH270419   6.499   4.013   5.102 -0.4636 -0.4950 -0.3928
16335TIP3    H170420   6.412   3.983   5.126 -0.8501 -0.1644 -1.3253
16335TIP3    H270421   6.500   4.009   5.006 -0.0084  0.9727 -0.4782
16336TIP3   OH270422   0.384   0.171  12.970  0.0122  0.4696  0.1572
16336TIP3    H170423   0.292   0.177  12.996 -0.1182 -0.5170 -0.0306
16336TIP3    H270424   0.381   0.143  12.878  0.4924 -1.2362  0.6324
16337TIP3   OH270425   0.477   1.600  12.282 -0.4071  0.3547 -0.3762
16337TIP3    H170426   0.492   1.656  12.358  2.7414 -0.1719 -0.4993
16337TIP3    H270427   0.508   1.513  12.308 -4.0669 -1.2393 -0.5986
16338TIP3   OH270428   3.683   5.135  16.199 -0.1366  0.6788 -0.2399
16338TIP3    H170429   3.734   5.056  16.217  0.4770  0.5983 -2.0802
16338TIP3    H270430   3.746   5.196  16.161 -0.8734  1.5687 -0.0568
16339TIP3   OH270431   0.905   2.818  14.577 -0.1042 -0.0400  0.7861
16339TIP3    H170432   0.923   2.724  14.565  2.7462  0.4067  0.7162
16339TIP3    H270433   0.844   2.839  14.506  1.1605 -1.3986 -0.8261
16340TIP3   OH270434   2.103   4.596   6.454 -0.1484 -0.8604 -0.6821
16340TIP3    H170435   2.088   4.688   6.477 -0.2486 -0.9662 -0.3210
16340TIP3    H270436   2.105   4.595   6.359  1.7765 -0.1602 -0.7038
16341TIP3   OH270437   2.826   2.555  13.199  0.6292 -0.4133  0.1134
16341TIP3    H170438   2.740   2.578  13.234  0.4101 -2.4316  1.0752
16341TIP3    H270439   2.858   2.486  13.258  2.5115 -0.3364 -0.7509
16342TIP3   OH270440   6.407   6.474   2.142  0.0168 -0.3733  0.0073
16342TIP3    H170441   6.468   6.544   2.161  1.8421 -2.4023  2.2015
16342TIP3    H270442   6.345   6.475   2.215 -0.7631 -0.2497 -0.6352
16343TIP3   OH270443   6.135   3.828   4.940  0.3226  0.3042  0.3311
16343TIP3    H170444   6.149   3.822   5.035 -0.2501  0.8412  0.4602
16343TIP3    H270445   6.114   3.920   4.925  2.1037  0.6212 -0.5679
16344TIP3   OH270446   6.705   2.449  12.433 -0.2168 -0.3247  0.0680
16344TIP3    H170447   6.694   2.512  12.361 -0.9112 -0.3494  0.1405
16344TIP3    H270448   6.724   2.367  12.389  0.1686 -0.1712 -0.0520
16345TIP3   OH270449   4.253   2.109   4.439 -0.2280  0.0975  0.1626
16345TIP3    H170450   4.206   2.084   4.519 -0.6001 -2.1109 -0.6501
16345TIP3    H270451   4.190   2.092   4.369  0.9511 -0.5911 -0.7753
16346TIP3   OH270452   0.639   1.439   5.144  0.0985  0.1394  0.3868
16346TIP3    H170453   0.664   1.437   5.051 -1.1002  0.1431  0.0377
16346TIP3    H270454   0.543   1.434   5.142  0.1086 -3.1238  1.6906
16347TIP3   OH270455   6.324   3.458   1.883  0.2742  0.0237  0.2513
16347TIP3    H170456   6.376   3.386   1.920  2.6257  0.7060 -1.5389
16347TIP3    H270457   6.326   3.444   1.789  1.2406  2.6822 -0.2079
16348TIP3   OH270458   3.254   3.507  16.982  0.0059  0.2119  0.1407
16348TIP3    H170459   3.322   3.566  17.015  0.7908 -0.1043 -0.8515
16348TIP3    H270460   3.176   3.529  17.033  0.3410  1.9258 -0.0335
16349TIP3   OH270461   0.145   5.124  15.624  0.9373  0.2063  0.3861
16349TIP3    H170462   0.121   5.072  15.701  0.2359 -0.5706 -0.3321
16349TIP3    H270463   0.095   5.205  15.632 -0.4669 -0.5758 -0.0864
16350TIP3   OH270464   6.595   4.264   0.837 -0.5171 -0.5364 -0.1775
16350TIP3    H170465   6.657   4.302   0.775  0.1670 -0.3472  0.6057
16350TIP3    H270466   6.514   4.253   0.787 -0.0727 -0.0869 -1.0068
16351TIP3   OH270467   1.938   2.880   1.206 -0.0488 -0.0285 -0.6784
16351TIP3    H170468   1.985   2.802   1.174 -0.2488  0.3617 -1.9772
16351TIP3    H270469   1.846   2.854   1.207 -0.0279 -0.0901 -0.2507
16352TIP3   OH270470   0.704   5.657   1.899  0.0039 -0.2308  0.6040
16352TIP3    H170471   0.625   5.661   1.953 -0.2712  0.6827  0.1381
16352TIP3    H270472   0.725   5.563   1.897 -2.9715 -1.0359 -1.9678
16353TIP3   OH270473   1.943   6.036   5.444 -0.2856 -0.1007 -0.1766
16353TIP3    H170474   1.910   5.954   5.480 -1.8108 -0.3870 -2.0565
16353TIP3    H270475   1.916   6.103   5.507  0.4600 -0.9392  1.0828
16354TIP3   OH270476   5.546   6.581  12.162 -0.6573  0.5028 -0.6089
16354TIP3    H170477   5.483   6.639  12.121 -0.3548  1.2883  0.0007
16354TIP3    H270478   5.554   6.614  12.252  0.1218  0.0144 -0.4852
16355TIP3   OH270479   2.169   2.472  12.454 -0.1495 -0.2567 -0.0713
16355TIP3    H170480   2.074   2.459  12.461 -0.0100 -1.2412  0.1810
16355TIP3    H270481   2.183   2.561  12.486 -1.0072 -0.0379 -0.2725
16356TIP3   OH270482   5.129   4.931   2.547  0.3329 -0.0460  0.0045
16356TIP3    H170483   5.148   4.863   2.482  0.9385  1.0068 -0.9591
16356TIP3    H270484   5.213   4.975   2.560 -0.3201  1.3586 -0.3942
16357TIP3   OH270485   6.343   3.836  12.058  0.3622 -0.0363 -0.3381
16357TIP3    H170486   6.431   3.867  12.038  0.6563 -0.8994 -0.4130
16357TIP3    H270487   6.287   3.884  11.997  0.8953 -0.2076 -0.9780
16358TIP3   OH270488   0.054   0.030   5.278 -0.0624 -0.3356 -0.4602
16358TIP3    H170489   0.033   0.014   5.370 -1.0213  2.4571 -0.1013
16358TIP3    H270490   0.148   0.010   5.272 -0.2648 -1.8349  0.7738
16359TIP3   OH270491   6.268   1.047  15.739  0.1406  0.0551 -0.3168
16359TIP3    H170492   6.352   1.086  15.763  0.6744 -0.9556 -0.4847
16359TIP3    H270493   6.225   1.030  15.823 -0.8691  2.5488 -0.2589
16360TIP3   OH270494   6.225   0.046   4.179 -0.4779  0.1057  0.2028
16360TIP3    H170495   6.165   0.066   4.251  0.2955  1.0975  0.5896
16360TIP3    H270496   6.216   0.120   4.119 -1.1708 -0.7485 -0.7822
16361TIP3   OH270497   6.124   1.141   5.496 -0.0958  0.4254 -0.4921
16361TIP3    H170498   6.038   1.126   5.456  0.6079  0.4816 -2.0783
16361TIP3    H270499   6.125   1.085   5.573 -1.2221 -0.2307 -0.9383
16362TIP3   OH270500   5.210   4.746   3.327 -0.1049 -0.5032 -0.1989
16362TIP3    H170501   5.165   4.821   3.288 -1.8756 -1.5103 -0.1847
16362TIP3    H270502   5.192   4.754   3.421 -0.4184 -1.0141 -0.2134
16363TIP3   OH270503   1.155   4.592  13.087  0.0568 -0.0885  0.0314
16363TIP3    H170504   1.195   4.600  13.174  0.4068 -0.0537 -0.1301
16363TIP3    H270505   1.100   4.670  13.078  0.8729  0.4683 -0.2131
16364TIP3   OH270506   1.904   5.068  12.862 -0.0822 -0.1203  0.2911
16364TIP3    H170507   1.888   5.161  12.849 -1.3903 -0.4830 -0.9390
16364TIP3    H270508   1.995   5.063  12.891  0.0203  1.5272  0.3474
16365TIP3   OH270509   1.356   1.436   2.753 -0.5698  0.1009 -0.2173
16365TIP3    H170510   1.387   1.520   2.718 -0.1539 -0.5662 -1.5003
16365TIP3    H270511   1.299   1.401   2.684  0.8875 -1.6096 -0.6251
16366TIP3   OH270512   4.378   5.972  10.740  0.3885 -0.5575 -0.0281
16366TIP3    H170513   4.375   6.042  10.805 -1.2352 -1.8465  1.4020
16366TIP3    H270514   4.308   5.912  10.767 -1.1744 -0.6060 -3.6540
16367TIP3   OH270515   4.366   4.958   5.487 -0.0151 -0.1115  0.1746
16367TIP3    H170516   4.314   4.924   5.559  0.2822 -1.2101 -0.1153
16367TIP3    H270517   4.454   4.925   5.503  0.4433  1.0660  0.2267
16368TIP3   OH270518   4.623   1.668  13.105  0.3021 -0.4107 -0.3998
16368TIP3    H170519   4.655   1.658  13.015 -0.7822  1.3445 -1.0421
16368TIP3    H270520   4.528   1.661  13.097  0.2323 -1.0738  0.7696
16369TIP3   OH270521   5.036   2.299  13.467  0.1307  0.0890 -0.2958
16369TIP3    H170522   4.974   2.230  13.492  0.6572 -0.3584 -0.1948
16369TIP3    H270523   5.121   2.257  13.473  0.6299  1.2728  1.5809
16370TIP3   OH270524   4.990   5.899   1.854 -0.3498  0.2061 -0.5145
16370TIP3    H170525   4.956   5.876   1.767  1.3315 -0.6182 -0.9923
16370TIP3    H270526   5.082   5.922   1.839  0.0570 -0.2364  1.0709
16371TIP3   OH270527   5.421   2.340  14.533  0.3718  0.2896  0.5439
16371TIP3    H170528   5.485   2.274  14.506 -1.0841 -1.2136  0.5937
16371TIP3    H270529   5.402   2.389  14.453  0.4972 -0.2262  0.1955
16372TIP3   OH270530   3.038   4.067  14.034  0.1627 -0.2893  0.7037
16372TIP3    H170531   3.110   4.095  13.977 -1.6355  1.9512 -0.6074
16372TIP3    H270532   3.071   4.078  14.122  1.4226  0.7116  0.1298
16373TIP3   OH270533   6.091   3.177  14.559  0.0166  0.5302  0.4003
16373TIP3    H170534   6.053   3.254  14.600 -0.0134  0.3986  0.6240
16373TIP3    H270535   6.184   3.181  14.582 -0.1766 -0.0657  1.3160
16374TIP3   OH270536   0.983   1.444  14.069 -0.1002 -0.8271  0.0330
16374TIP3    H170537   1.039   1.385  14.020 -1.1240 -1.7960  0.0031
16374TIP3    H270538   0.962   1.514  14.007 -0.7188 -1.6127 -0.6639
16375TIP3   OH270539   2.075   3.122  14.397  0.1396 -0.0753  0.4897
16375TIP3    H170540   2.106   3.037  14.430 -0.7503  0.1152  1.9393
16375TIP3    H270541   2.029   3.101  14.316 -0.6798 -1.1086  1.1834
16376TIP3   OH270542   0.871   3.153  14.284  0.8012  0.5522 -0.0350
16376TIP3    H170543   0.957   3.190  14.268  0.3315  1.1878 -1.1974
16376TIP3    H270544   0.817   3.183  14.211 -0.5933  0.7610  1.0133
16377TIP3   OH270545   5.456   5.590  15.523 -0.4578 -0.3598  1.0012
16377TIP3    H170546   5.425   5.680  15.511  0.8264  0.0582  0.7415
16377TIP3    H270547   5.408   5.558  15.599 -1.5740  0.2388  0.5737
16378TIP3   OH270548   2.352   5.452   1.513 -0.7010 -0.0072  0.0160
16378TIP3    H170549   2.371   5.447   1.607 -1.0220  0.0389  0.0882
16378TIP3    H270550   2.270   5.502   1.509 -2.0070 -2.0228 -0.1100
16379TIP3   OH270551   2.292   5.946   3.178 -0.0898  0.2507 -1.1084
16379TIP3    H170552   2.286   6.022   3.236 -0.4794 -0.6342  0.0358
16379TIP3    H270553   2.386   5.930   3.169 -0.0391 -0.6653  0.7270
16380TIP3   OH270554   4.911   4.797  11.761  0.0053 -0.7825  0.6631
16380TIP3    H170555   4.930   4.737  11.689 -1.0830  0.1678 -0.4725
16380TIP3    H270556   4.995   4.811  11.805  0.9985 -0.3203 -1.2806
16381TIP3   OH270557   2.210   3.459  12.181  0.4637  0.1876  0.2006
16381TIP3    H170558   2.271   3.525  12.214 -2.1910  2.5218  0.7084
16381TIP3    H270559   2.201   3.478  12.088 -0.7968  1.0218  0.4719
16382TIP3   OH270560   0.269   2.023  15.322  0.7864 -0.2870 -0.2854
16382TIP3    H170561   0.215   1.954  15.362  1.7541 -0.6490  0.4324
16382TIP3    H270562   0.359   1.993  15.335  1.1915  0.6524 -0.8441
16383TIP3   OH270563   1.364   5.183  12.533 -0.4578  0.2420  0.2573
16383TIP3    H170564   1.406   5.187  12.619 -1.0429  0.3759  0.5428
16383TIP3    H270565   1.270   5.192  12.551 -0.6083  0.0406 -0.3759
16384TIP3   OH270566   5.550   2.766   0.646 -0.0656  0.4911 -0.0528
16384TIP3    H170567   5.552   2.707   0.721 -1.7724 -1.0366 -1.1291
16384TIP3    H270568   5.642   2.785   0.628  0.4353 -0.3699  1.4395
16385TIP3   OH270569   3.711   1.761   2.023  0.1209  0.3196  0.3955
16385TIP3    H170570   3.615   1.766   2.024  0.1129  0.1305  1.0752
16385TIP3    H270571   3.736   1.809   1.944 -0.5524 -0.0172 -0.0338
16386TIP3   OH270572   1.015   4.819  16.583 -0.0726  0.1292  0.0648
16386TIP3    H170573   1.011   4.782  16.671  0.1995 -0.4402 -0.1597
16386TIP3    H270574   1.084   4.769  16.539  0.7382  1.2961 -0.0539
16387TIP3   OH270575   6.226   0.655   2.445 -0.5290  0.2366 -0.1834
16387TIP3    H170576   6.276   0.623   2.520  1.6728 -0.3616 -1.8192
16387TIP3    H270577   6.182   0.577   2.410  1.4245 -0.2844 -1.6396
16388TIP3   OH270578   5.877   4.439  14.016 -0.1807  0.2228 -0.9217
16388TIP3    H170579   5.943   4.456  13.948 -0.6901  1.1699 -1.1950
16388TIP3    H270580   5.827   4.520  14.021  0.3868  0.4909  1.2036
16389TIP3   OH270581   0.838   5.685   3.478  0.5791  0.3008 -0.1476
16389TIP3    H170582   0.849   5.600   3.436  2.6815  0.6297 -0.3287
16389TIP3    H270583   0.871   5.672   3.567  2.0861  1.2013 -0.5397
16390TIP3   OH270584   6.325   1.569   3.058  0.3037 -0.1610 -0.3653
16390TIP3    H170585   6.273   1.647   3.072 -1.8379 -1.4195 -0.7923
16390TIP3    H270586   6.416   1.600   3.053 -0.3038  2.0358  1.1269
16391TIP3   OH270587   1.068   6.486  15.575  0.4075  0.1169  0.1828
16391TIP3    H170588   0.990   6.478  15.630  0.9671 -0.6244  0.9015
16391TIP3    H270589   1.116   6.560  15.611 -0.7630  1.6754 -1.3254
16392TIP3   OH270590   5.966   5.448  14.248 -0.3379 -0.1923  0.2816
16392TIP3    H170591   5.871   5.446  14.236 -0.4938 -1.9488  1.3779
16392TIP3    H270592   6.002   5.421  14.163 -0.8729 -0.5173  0.1545
16393TIP3   OH270593   5.553   5.126   1.581  0.0581  0.1655  0.3554
16393TIP3    H170594   5.549   5.044   1.532 -2.7328  0.3092  0.1440
16393TIP3    H270595   5.505   5.188   1.526 -0.1854  1.2357  1.7222
16394TIP3   OH270596   3.959   4.122  13.961 -0.4248 -0.3805  0.1495
16394TIP3    H170597   3.954   4.102  14.054 -1.1008 -0.8164  0.0300
16394TIP3    H270598   3.965   4.218  13.957 -1.6237 -0.2671  0.6134
16395TIP3   OH270599   4.083   2.980  11.809  0.1974  0.0940  0.2244
16395TIP3    H170600   4.046   2.892  11.810  0.0089  0.0822 -2.2482
16395TIP3    H270601   4.177   2.967  11.820 -0.0290 -0.1652  2.3682
16396TIP3   OH270602   0.226   6.634  12.021  0.0400  0.0680 -0.1441
16396TIP3    H170603   0.226   6.594  12.108  1.8888  1.8720  0.7423
16396TIP3    H270604   0.218   6.559  11.961 -0.7357 -1.2571  1.5214
16397TIP3   OH270605   6.159   2.469   5.171  0.2513 -0.0969 -0.0925
16397TIP3    H170606   6.234   2.515   5.209  0.5599 -1.1913  0.6493
16397TIP3    H270607   6.194   2.386   5.141 -0.2773  0.1793 -1.5739
16398TIP3   OH270608   6.028   1.381  16.961  0.4042  0.3216 -0.5534
16398TIP3    H170609   5.989   1.424  16.885  3.1560 -0.3372 -2.4919
16398TIP3    H270610   6.014   1.288  16.946  2.1656  0.0965 -1.0838
16399TIP3   OH270611   2.309   1.526   0.129  0.0072 -0.1032  0.0294
16399TIP3    H170612   2.367   1.479   0.189 -1.1547  0.6364  1.8175
16399TIP3    H270613   2.365   1.592   0.088  0.5527  0.3482  1.4365
16400TIP3   OH270614   0.794   6.362   5.323  0.2374 -0.0753  0.3631
16400TIP3    H170615   0.770   6.406   5.404 -0.3929  0.0939  0.0869
16400TIP3    H270616   0.745   6.279   5.325  1.0055 -0.5328  0.6299
16401TIP3   OH270617   2.575   2.207   4.409  0.4979  0.1342  0.3650
16401TIP3    H170618   2.518   2.231   4.482 -1.1592  0.9005 -1.1108
16401TIP3    H270619   2.565   2.113   4.400  1.2485 -0.0710  1.5356
16402TIP3   OH270620   5.051   3.926   4.011  0.5699 -0.4990  0.2950
16402TIP3    H170621   5.092   3.963   4.088  1.0508 -0.9192  0.2488
16402TIP3    H270622   4.958   3.922   4.032  0.2563  2.1330 -0.2770
16403TIP3   OH270623   4.582   2.559  15.744 -0.4047 -0.2205 -0.5188
16403TIP3    H170624   4.538   2.515  15.671 -0.9715  0.1607 -0.4106
16403TIP3    H270625   4.529   2.636  15.761  0.7912  0.7332 -0.9658
16404TIP3   OH270626   5.200   6.290   0.556  0.5546  0.4134 -0.0149
16404TIP3    H170627   5.173   6.235   0.483 -0.2143  0.5891  0.1211
16404TIP3    H270628   5.139   6.364   0.554 -0.5211 -0.3633  1.7286
16405TIP3   OH270629   4.031   4.871   5.485 -0.1651 -0.2381  0.0702
16405TIP3    H170630   3.967   4.850   5.553 -0.3318  1.1507  0.3710
16405TIP3    H270631   3.986   4.934   5.428  0.3708 -0.5088 -0.6664
16406TIP3   OH270632   3.210   4.969  15.618 -0.1473  0.5505 -0.2529
16406TIP3    H170633   3.176   4.900  15.561  0.8490  2.2972 -3.1604
16406TIP3    H270634   3.160   4.960  15.699 -0.4501 -3.1778 -0.6705
16407TIP3   OH270635   0.338   3.744   0.224 -0.3743 -0.2819 -0.1639
16407TIP3    H170636   0.288   3.797   0.286  0.7906  0.6624  0.0069
16407TIP3    H270637   0.353   3.661   0.269  1.7076  0.8847  1.5203
16408TIP3   OH270638   5.297   6.215  16.753 -0.2380  1.0093  0.3394
16408TIP3    H170639   5.390   6.207  16.775 -0.1756 -2.3288 -0.5163
16408TIP3    H270640   5.297   6.242  16.661 -0.0624  0.2953  0.1232
16409TIP3   OH270641   2.283   4.309   4.741  0.3194 -0.2809 -0.3174
16409TIP3    H170642   2.264   4.359   4.663 -0.3534  0.9871  0.6229
16409TIP3    H270643   2.211   4.330   4.801  1.8485  0.3727  1.3762
16410TIP3   OH270644   2.140   0.276  17.021  0.6067  0.3066 -0.2889
16410TIP3    H170645   2.066   0.265  17.081  0.0809  1.1862 -0.7430
16410TIP3    H270646   2.099   0.302  16.938  1.4517  1.3739 -0.3951
16411TIP3   OH270647   6.286   5.415   1.916 -0.7209  0.4447  0.0871
16411TIP3    H170648   6.359   5.471   1.888 -0.1208 -0.5114 -0.2960
16411TIP3    H270649   6.274   5.436   2.009  1.4220 -0.8654  0.7138
16412TIP3   OH270650   0.607   3.637   3.356 -0.3666 -0.4526  0.2463
16412TIP3    H170651   0.694   3.670   3.334 -0.3272  0.1209  1.1978
16412TIP3    H270652   0.564   3.622   3.271  0.7825 -1.1077 -0.2345
16413TIP3   OH270653   2.381   2.340  14.626 -0.0632 -0.2582  0.0681
16413TIP3    H170654   2.299   2.370  14.585 -0.2739  0.1108  0.7491
16413TIP3    H270655   2.383   2.383  14.711  1.3483  0.5375 -0.3380
16414TIP3   OH270656   5.935   2.275  12.452  0.7171 -0.1116 -0.4396
16414TIP3    H170657   6.011   2.317  12.492  1.5224  0.3200 -2.3159
16414TIP3    H270658   5.861   2.332  12.474  0.9581 -0.3240  1.0623
16415TIP3   OH270659   3.402   0.253  11.910  0.4103 -0.1425 -0.3682
16415TIP3    H170660   3.350   0.293  11.841  0.6787 -0.4493 -0.7541
16415TIP3    H270661   3.407   0.160  11.886 -0.0773 -0.3842  0.4280
16416TIP3   OH270662   1.760   4.082  16.719 -0.5966 -0.7909 -0.3502
16416TIP3    H170663   1.694   4.029  16.675 -0.4140 -0.8199 -0.5925
16416TIP3    H270664   1.711   4.136  16.781 -1.0789  0.5976 -1.8571
16417TIP3   OH270665   0.793   5.371  10.826  0.0067  0.4033 -0.7282
16417TIP3    H170666   0.792   5.457  10.869 -2.7224 -0.7369  1.8485
16417TIP3    H270667   0.707   5.362  10.786  0.9214 -0.4403 -2.6592
16418TIP3   OH270668   4.599   2.740   6.317 -0.2186  0.2352 -0.7028
16418TIP3    H170669   4.655   2.710   6.389  0.1436  0.3006 -0.9548
16418TIP3    H270670   4.536   2.669   6.304 -0.6132  0.4356  0.0124
16419TIP3   OH270671   0.131   6.031   1.950 -0.3148 -0.2553  0.1888
16419TIP3    H170672   0.179   5.979   2.015  0.6177  1.5283  1.0117
16419TIP3    H270673   0.168   6.119   1.959 -1.5378  0.4624 -1.4328
16420TIP3   OH270674   5.058   3.985  16.425 -0.2933 -0.2403  0.0926
16420TIP3    H170675   4.966   4.003  16.406 -0.2632 -0.7287 -0.5345
16420TIP3    H270676   5.054   3.917  16.493 -0.3933  0.2481  0.5825
16421TIP3   OH270677   1.208   2.764   0.472  0.8832  0.1435  0.3475
16421TIP3    H170678   1.226   2.670   0.464  1.4945  0.3986 -1.7245
16421TIP3    H270679   1.113   2.770   0.475  0.8470 -0.5891  1.6503
16422TIP3   OH270680   3.193   1.454   1.109 -0.0112 -0.3521 -0.4311
16422TIP3    H170681   3.224   1.389   1.046 -1.1139 -1.0875 -0.2467
16422TIP3    H270682   3.157   1.402   1.181  0.6777  0.4744  0.5385
16423TIP3   OH270683   5.128   2.933  10.569 -0.5853 -0.3924 -0.4110
16423TIP3    H170684   5.219   2.918  10.545 -0.0423  1.2964  0.4489
16423TIP3    H270685   5.081   2.858  10.533  0.3850  0.9389 -5.0146
16424TIP3   OH270686   0.764   4.794  16.456 -0.0907 -0.3888 -0.2973
16424TIP3    H170687   0.845   4.845  16.460 -0.5853  0.5277 -1.4253
16424TIP3    H270688   0.778   4.722  16.518  0.5193  1.2742  1.6089
16425TIP3   OH270689   0.370   3.722  16.213 -0.0236 -0.4451 -0.2408
16425TIP3    H170690   0.380   3.633  16.179 -0.8772 -1.3266  1.6744
16425TIP3    H270691   0.277   3.742  16.202 -0.1705 -0.4670  0.8530
16426TIP3   OH270692   1.597   2.119  13.760  0.1560 -0.0119  0.5834
16426TIP3    H170693   1.580   2.063  13.684 -1.1938 -0.9885  1.5477
16426TIP3    H270694   1.574   2.207  13.731 -0.1456 -0.3445 -0.2092
16427TIP3   OH270695   3.998   4.959   2.401  0.1462  0.3281  0.1121
16427TIP3    H170696   3.967   4.874   2.369  0.5085  0.2175  0.0462
16427TIP3    H270697   4.048   4.938   2.480 -0.8008  0.6074  0.8017
16428TIP3   OH270698   2.072   5.228   1.506  0.0439  0.4784  0.2205
16428TIP3    H170699   2.015   5.297   1.473  1.8728  1.3269 -1.3726
16428TIP3    H270700   2.103   5.183   1.428  3.1124  1.3762  0.7733
16429TIP3   OH270701   4.217   0.123  12.701  0.1439  0.1614  0.0490
16429TIP3    H170702   4.216   0.033  12.732 -0.0155  0.3320  0.5404
16429TIP3    H270703   4.124   0.147  12.693  0.1855  0.3052 -0.0098
16430TIP3   OH270704   4.508   1.227   3.063 -0.2638 -0.1490 -0.2803
16430TIP3    H170705   4.528   1.161   3.129 -2.1040 -0.3010  0.1724
16430TIP3    H270706   4.549   1.307   3.096 -1.9034 -0.0046  1.5886
16431TIP3   OH270707   3.028   5.910  13.596  0.3692  0.1176  0.0827
16431TIP3    H170708   3.068   5.884  13.679 -0.6791 -3.4420 -0.3385
16431TIP3    H270709   3.097   5.959  13.550  2.4381 -1.3553  1.4280
16432TIP3   OH270710   2.874   1.340   3.296  0.2121 -0.5155  0.2544
16432TIP3    H170711   2.937   1.409   3.317  1.1622 -1.9868  2.7692
16432TIP3    H270712   2.927   1.262   3.282 -0.8206 -0.7860 -2.7437
16433TIP3   OH270713   4.978   0.642   5.256  0.2864  0.2815  0.0210
16433TIP3    H170714   4.985   0.660   5.162  0.7439  0.5790  0.1079
16433TIP3    H270715   4.954   0.549   5.261  0.0698  0.3140 -0.3936
16434TIP3   OH270716   5.158   1.503  13.220 -0.0129  0.0046  0.0788
16434TIP3    H170717   5.093   1.451  13.173  1.8223 -1.0897 -1.4150
16434TIP3    H270718   5.172   1.580  13.164  0.6980 -0.2943 -0.1744
16435TIP3   OH270719   4.485   0.397  10.619 -0.0678 -0.0547 -0.6883
16435TIP3    H170720   4.423   0.469  10.605 -0.9045 -0.8924 -1.4818
16435TIP3    H270721   4.434   0.331  10.666  0.8119  0.0237  0.3986
16436TIP3   OH270722   4.450   0.008   1.665  0.1501  0.1677 -0.3195
16436TIP3    H170723   4.512  -0.049   1.709 -0.7392 -2.1274 -1.8348
16436TIP3    H270724   4.500   0.046   1.592  0.0656 -0.8617 -0.9271
16437TIP3   OH270725   6.054   2.028  12.427 -0.0391 -0.1039  0.1450
16437TIP3    H170726   5.999   2.089  12.476 -0.0590 -0.6899  0.8712
16437TIP3    H270727   6.136   2.074  12.414 -0.1773  0.2082  0.3793
16438TIP3   OH270728   4.278   2.228   0.864 -0.0534  0.0208  0.2972
16438TIP3    H170729   4.218   2.255   0.795 -0.3450 -1.4270 -0.0375
16438TIP3    H270730   4.258   2.287   0.938 -1.2216  0.1723 -0.1216
16439TIP3   OH270731   6.574   5.359  16.789 -0.2278  0.8072  0.4469
16439TIP3    H170732   6.573   5.272  16.749  0.6300  0.9240  0.1503
16439TIP3    H270733   6.559   5.344  16.882 -0.0511  0.3413  0.4014
16440TIP3   OH270734   1.798   6.578  12.348  0.1257 -0.2126  0.3306
16440TIP3    H170735   1.778   6.656  12.294  1.5596 -0.0693 -0.0397
16440TIP3    H270736   1.746   6.590  12.428 -1.7151 -0.2048 -0.7930
16441TIP3   OH270737   5.167   4.472  15.978  0.1137 -0.0057 -0.1472
16441TIP3    H170738   5.183   4.563  16.003  0.4977  0.6181 -2.4072
16441TIP3    H270739   5.223   4.420  16.035  0.4138  1.2186  0.7005
16442TIP3   OH270740   5.612   3.880   4.667 -0.2883  0.3596 -0.7580
16442TIP3    H170741   5.583   3.945   4.731 -0.6340 -0.2305 -0.3001
16442TIP3    H270742   5.538   3.820   4.659  0.4079 -0.5654 -0.3936
16443TIP3   OH270743   4.875   5.785   6.410 -0.2650 -0.4868  0.2911
16443TIP3    H170744   4.831   5.845   6.470 -2.1954 -0.8380 -0.6989
16443TIP3    H270745   4.923   5.843   6.351 -2.3570  0.1918 -0.8536
16444TIP3   OH270746   0.158   5.812  13.760  0.4227  0.0165  0.1060
16444TIP3    H170747   0.106   5.888  13.785  0.2212 -0.5572  1.5442
16444TIP3    H270748   0.247   5.845  13.752  0.9924 -0.1148  4.0849
16445TIP3   OH270749   2.238   6.032  17.063  0.8463 -0.3468 -0.4661
16445TIP3    H170750   2.280   6.052  16.979 -0.3440 -2.1669 -1.5586
16445TIP3    H270751   2.219   5.939  17.058 -1.1270 -0.0738  0.9962
16446TIP3   OH270752   6.635   5.836  13.614 -0.0967 -0.0095  0.4346
16446TIP3    H170753   6.589   5.894  13.674 -2.3920 -1.5292  0.2537
16446TIP3    H270754   6.607   5.864  13.527 -0.9953 -1.1782  0.3347
16447TIP3   OH270755   5.694   3.368  15.320 -0.3506  0.2001  0.2710
16447TIP3    H170756   5.727   3.449  15.358  2.1529  0.4703 -2.1703
16447TIP3    H270757   5.599   3.382  15.314 -0.0739  2.7020  0.5049
16448TIP3   OH270758   3.318   5.589   1.710  0.1639  0.5468 -0.4706
16448TIP3    H170759   3.406   5.611   1.741 -0.4545  1.3586  0.8236
16448TIP3    H270760   3.273   5.674   1.704 -0.6858  0.0996 -0.6210
16449TIP3   OH270761   0.123   5.443   0.304  0.1118 -0.0216 -0.0380
16449TIP3    H170762   0.033   5.435   0.274 -0.2144  0.9135  0.6641
16449TIP3    H270763   0.175   5.446   0.224 -0.5556  0.3647 -0.4633
16450TIP3   OH270764   1.920   3.384  15.954 -0.0530  0.0590  0.0702
16450TIP3    H170765   1.908   3.423  16.041 -0.0153  2.3893 -0.9065
16450TIP3    H270766   1.944   3.293  15.972 -1.3523  0.1103  2.4567
16451TIP3   OH270767   3.748   0.418  11.023  0.1844 -0.2084 -0.1255
16451TIP3    H170768   3.818   0.463  11.070 -1.5779  1.4946  1.0372
16451TIP3    H270769   3.724   0.345  11.080 -1.8083  1.7299  1.7240
16452TIP3   OH270770   1.192   3.306   2.528  0.2696  0.2265 -0.4876
16452TIP3    H170771   1.134   3.318   2.453  0.1243  0.1881 -0.3814
16452TIP3    H270772   1.271   3.355   2.505  0.1084  0.4632 -0.5335
16453TIP3   OH270773   3.519   5.368   6.545  0.6667 -0.6879  0.2678
16453TIP3    H170774   3.435   5.381   6.500  1.0888  1.4225 -0.0370
16453TIP3    H270775   3.576   5.436   6.509  1.5191  0.0455  2.7841
16454TIP3   OH270776   3.015   0.842   2.787  0.6592 -0.4200  0.2137
16454TIP3    H170777   3.087   0.903   2.770  0.8911 -0.8550 -0.4524
16454TIP3    H270778   3.010   0.789   2.707  0.1979 -0.9983  0.6172
16455TIP3   OH270779   4.299   6.422  15.524 -0.0058 -0.0001 -0.2499
16455TIP3    H170780   4.240   6.445  15.596  2.0555 -3.0486  2.7825
16455TIP3    H270781   4.274   6.333  15.500  1.2671 -0.1276 -1.2105
16456TIP3   OH270782   1.192   1.880  12.517  0.3726 -0.1376  0.3067
16456TIP3    H170783   1.096   1.873  12.513  0.3079  0.9444 -0.7624
16456TIP3    H270784   1.224   1.797  12.483 -0.1811 -0.6611  1.0415
16457TIP3   OH270785   3.465   5.053   1.070 -0.0818  0.4379  0.0046
16457TIP3    H170786   3.490   5.036   0.979  1.9294  1.1452  0.3896
16457TIP3    H270787   3.413   5.133   1.066  2.0275  1.8511 -0.3042
16458TIP3   OH270788   2.404   1.442  12.962 -0.6479  0.5289  0.2557
16458TIP3    H170789   2.496   1.468  12.948  0.1504 -2.1832 -0.0109
16458TIP3    H270790   2.408   1.372  13.027 -2.6954  1.1568  1.1331
16459TIP3   OH270791   5.860   6.477   1.664  0.7055 -0.8062 -0.8885
16459TIP3    H170792   5.903   6.552   1.625 -1.2528  1.1715  0.4675
16459TIP3    H270793   5.925   6.440   1.723  1.4708  0.3434 -0.9738
16460TIP3   OH270794   1.560   4.851  12.155  0.3752 -0.0875 -0.1906
16460TIP3    H170795   1.586   4.808  12.237  1.9397  0.4597 -0.3721
16460TIP3    H270796   1.591   4.792  12.086 -0.5041 -0.3040 -0.4180
16461TIP3   OH270797   1.675   4.142   0.670  0.4397  0.4179 -0.0755
16461TIP3    H170798   1.601   4.194   0.639 -0.0118 -0.6452 -0.8194
16461TIP3    H270799   1.655   4.053   0.643  1.9935  0.1089 -0.2991
16462TIP3   OH270800   3.032   0.767   3.345  0.4236  0.0407 -0.4379
16462TIP3    H170801   2.939   0.787   3.357  0.4022 -0.0030 -0.5226
16462TIP3    H270802   3.055   0.713   3.420  0.3671  0.0094 -0.4430
16463TIP3   OH270803   5.250   5.049  10.958  0.2487  0.9652  0.0647
16463TIP3    H170804   5.333   5.031  10.914  0.0803  1.0653 -0.2962
16463TIP3    H270805   5.225   4.965  10.997 -0.6978  0.2490 -1.8966
16464TIP3   OH270806   1.577   6.260  14.663 -0.0154  0.0954  0.1223
16464TIP3    H170807   1.521   6.182  14.668 -0.5042  0.3867 -0.6077
16464TIP3    H270808   1.557   6.298  14.577 -0.9733  1.9020  1.0694
16465TIP3   OH270809   2.983   5.824  13.342 -0.5649 -0.1561 -0.6366
16465TIP3    H170810   2.954   5.835  13.432  0.2670  0.7796 -0.4654
16465TIP3    H270811   3.054   5.760  13.347 -1.1455 -0.8207 -0.7657
16466TIP3   OH270812   6.507   2.243  11.464 -0.8100  0.1369  0.4352
16466TIP3    H170813   6.531   2.303  11.394  0.2151 -0.1586  0.5201
16466TIP3    H270814   6.459   2.173  11.419 -0.1847 -0.0378  0.0131
16467TIP3   OH270815   1.421   4.638  11.310 -0.4808 -0.7808 -0.3897
16467TIP3    H170816   1.493   4.624  11.249 -0.2235  0.5852 -0.4299
16467TIP3    H270817   1.451   4.710  11.366 -1.2301 -1.1670  0.5306
16468TIP3   OH270818   6.315   4.511  17.068  0.5152 -0.2886 -0.5130
16468TIP3    H170819   6.406   4.542  17.065  0.0466  1.2053 -0.1377
16468TIP3    H270820   6.262   4.591  17.065 -0.7571 -0.9782  1.3638
16469TIP3   OH270821   0.793   0.411   3.327  0.3916 -0.5001 -0.2906
16469TIP3    H170822   0.876   0.458   3.316 -0.6847  1.2747 -1.2321
16469TIP3    H270823   0.736   0.473   3.372 -0.7535 -1.2979 -0.6019
16470TIP3   OH270824   2.346   4.651   4.873  0.5377  0.3857 -0.4076
16470TIP3    H170825   2.380   4.623   4.958  0.3428 -1.2570 -0.8404
16470TIP3    H270826   2.251   4.639   4.879  0.5327  0.1585 -0.8896
16471TIP3   OH270827   3.861   0.785  16.089  0.1217 -0.5855  0.7027
16471TIP3    H170828   3.779   0.817  16.053  0.4788 -1.0309 -0.5716
16471TIP3    H270829   3.868   0.827  16.175 -0.4778  1.0255  0.0128
16472TIP3   OH270830   0.367   4.454   0.018  0.3284 -0.4103 -0.2358
16472TIP3    H170831   0.338   4.364   0.026 -0.0342 -0.4015 -1.2303
16472TIP3    H270832   0.333   4.482  -0.067  1.6176  0.2138 -0.5675
16473TIP3   OH270833   2.305   4.202  14.216  0.1610  0.8578  0.4026
16473TIP3    H170834   2.305   4.145  14.293  0.1059 -1.0626 -0.9384
16473TIP3    H270835   2.395   4.198  14.183 -0.5741 -1.5349 -1.7429
16474TIP3   OH270836   0.840   2.273  16.746  0.1129  0.0366 -0.2998
16474TIP3    H170837   0.756   2.250  16.784  0.3173 -1.0037 -0.4419
16474TIP3    H270838   0.854   2.365  16.771 -1.7581  0.7188 -1.5791
16475TIP3   OH270839   1.881   5.901   5.912  0.3325 -0.4724  0.6195
16475TIP3    H170840   1.946   5.962   5.948 -0.6637  1.7521 -1.1417
16475TIP3    H270841   1.797   5.938   5.937 -0.3174 -0.3755 -1.5146
16476TIP3   OH270842   3.350   0.162  11.309  0.4005 -0.1152  0.3681
16476TIP3    H170843   3.299   0.109  11.370  0.3373 -0.4128  0.0604
16476TIP3    H270844   3.415   0.102  11.274 -0.3311 -0.2794 -0.7661
16477TIP3   OH270845   6.013   4.155  13.737  0.1240  0.1045  0.3805
16477TIP3    H170846   6.046   4.088  13.798 -1.1595 -2.0559 -1.1896
16477TIP3    H270847   6.092   4.186  13.692  0.5260 -2.4349 -0.8431
16478TIP3   OH270848   2.524   5.429  11.743 -0.1006 -0.6155 -0.5423
16478TIP3    H170849   2.592   5.395  11.685 -0.9031 -1.9185 -0.7769
16478TIP3    H270850   2.447   5.376  11.722 -0.5707 -0.7364  1.3159
16479TIP3   OH270851   1.143   0.920  12.968 -0.2622 -0.6545  0.3263
16479TIP3    H170852   1.110   0.843  12.921 -1.4330 -0.7804  1.2903
16479TIP3    H270853   1.064   0.961  13.004  0.3952  0.7039  0.2836
16480TIP3   OH270854   5.061   0.125   3.420 -0.0280  0.4764  0.1975
16480TIP3    H170855   5.000   0.134   3.494  1.3932  0.4439  1.4359
16480TIP3    H270856   5.141   0.090   3.460  0.4935 -0.3992 -1.5356
16481TIP3   OH270857   4.825   3.528  13.244 -0.3281 -0.2590  0.0469
16481TIP3    H170858   4.845   3.520  13.151 -1.6810  0.4901 -0.3265
16481TIP3    H270859   4.744   3.578  13.247 -0.6986 -0.9047  1.6010
16482TIP3   OH270860   6.412   5.538   5.231 -0.4057  0.5469  0.3171
16482TIP3    H170861   6.465   5.592   5.173  0.4718 -0.7062 -0.0897
16482TIP3    H270862   6.365   5.479   5.173 -0.1733 -0.1472  0.8281
16483TIP3   OH270863   0.420   0.183   3.295  0.4965  0.5208  0.5847
16483TIP3    H170864   0.410   0.254   3.359  0.3211  0.0478  1.0847
16483TIP3    H270865   0.342   0.129   3.307 -0.1574  1.0951 -0.8830
16484TIP3   OH270866   1.938   6.792  11.691 -0.6697  0.0656 -0.3734
16484TIP3    H170867   2.016   6.751  11.728 -2.4403 -1.9933  1.3590
16484TIP3    H270868   1.963   6.815  11.602  2.0468  0.0078  0.2878
16485TIP3   OH270869   6.729   3.736   2.410  0.4130  0.8798 -0.1729
16485TIP3    H170870   6.802   3.675   2.399  0.9153  1.0264  1.8878
16485TIP3    H270871   6.772   3.820   2.429 -0.2930  1.4333 -0.9487
16486TIP3   OH270872   4.715   3.295  15.132 -0.1386  0.6579  0.3318
16486TIP3    H170873   4.647   3.321  15.070  0.4827  1.2891 -0.0939
16486TIP3    H270874   4.704   3.354  15.206  0.1367  0.9639  0.1313
16487TIP3   OH270875   1.851   4.920   3.515 -0.5525 -0.2696  0.8870
16487TIP3    H170876   1.765   4.960   3.522  0.1229  1.2035  1.0180
16487TIP3    H270877   1.872   4.893   3.605 -0.6286 -0.0959  0.9573
16488TIP3   OH270878   0.611   4.263   3.709 -0.2386  0.2106  0.0867
16488TIP3    H170879   0.533   4.213   3.731 -0.0005 -0.3712 -0.3632
16488TIP3    H270880   0.582   4.327   3.645 -0.0458 -1.0788 -1.3410
16489TIP3   OH270881   1.490   4.540  15.799  0.0397  0.7755  0.2149
16489TIP3    H170882   1.490   4.614  15.738 -2.2457  0.5132 -0.2245
16489TIP3    H270883   1.526   4.467  15.749  0.5291  1.1540  0.0132
16490TIP3   OH270884   6.244   5.195  17.091  0.2489 -0.5917 -0.1959
16490TIP3    H170885   6.242   5.280  17.136  0.8526 -0.0911 -1.0973
16490TIP3    H270886   6.244   5.217  16.998  1.1097 -1.5631 -0.4366
16491TIP3   OH270887   3.358   2.575  11.531 -0.9138 -0.9956  0.2197
16491TIP3    H170888   3.415   2.639  11.487 -0.4450 -1.6473 -0.1283
16491TIP3    H270889   3.397   2.490  11.511 -1.7292 -1.4181  0.4047
16492TIP3   OH270890   6.101   3.521   0.796 -0.0419 -0.0246 -0.0337
16492TIP3    H170891   6.093   3.616   0.785 -0.9379 -0.1184 -0.3002
16492TIP3    H270892   6.147   3.510   0.879  0.5496  0.6476 -0.2660
16493TIP3   OH270893   3.856   6.185  15.517  0.2164 -0.3201  0.1411
16493TIP3    H170894   3.865   6.279  15.499  1.1048 -0.3851  0.1709
16493TIP3    H270895   3.856   6.179  15.613 -1.3663 -0.2354  0.1691
16494TIP3   OH270896   4.255   4.495   5.702 -0.1165 -0.0768  0.0617
16494TIP3    H170897   4.336   4.487   5.652 -1.0799 -0.5843 -1.5152
16494TIP3    H270898   4.241   4.408   5.739  0.5843  0.2927  1.2270
16495TIP3   OH270899   2.235   4.248   1.587 -0.5190 -0.3817  0.9010
16495TIP3    H170900   2.204   4.326   1.631 -2.7598 -0.8850  0.3291
16495TIP3    H270901   2.158   4.214   1.541  0.7914 -1.9996 -0.2177
16496TIP3   OH270902   1.437   4.262  15.055  0.2397 -0.1075  0.1229
16496TIP3    H170903   1.500   4.296  14.991 -1.8171  0.7056 -1.5606
16496TIP3    H270904   1.455   4.313  15.135  1.5991  0.2017 -0.3433
16497TIP3   OH270905   2.934   4.911  12.783  0.1751 -0.0015  0.0007
16497TIP3    H170906   3.025   4.931  12.805  0.2053 -0.5342  0.3651
16497TIP3    H270907   2.933   4.817  12.766 -0.0562  0.2190 -1.2673
16498TIP3   OH270908   1.388   0.191   3.803  0.0401  0.5312 -0.1611
16498TIP3    H170909   1.327   0.117   3.805  1.2557 -0.7154  5.0115
16498TIP3    H270910   1.332   0.268   3.816 -0.7880 -0.4796  3.2856
16499TIP3   OH270911   2.409   1.784   2.443 -0.3613  1.1324 -0.1748
16499TIP3    H170912   2.473   1.814   2.508  0.4065  2.0129 -1.3040
16499TIP3    H270913   2.335   1.754   2.495  0.9675  0.0392  1.1816
16500TIP3   OH270914   0.343   2.891   2.575  0.3851  0.0827  0.1589
16500TIP3    H170915   0.428   2.857   2.602 -0.3287  0.2855  3.0489
16500TIP3    H270916   0.336   2.869   2.482  3.6800  0.3631 -0.2574
16501TIP3   OH270917   3.163   4.578  15.767  0.0074 -0.1827 -0.6767
16501TIP3    H170918   3.163   4.500  15.824 -0.2015 -0.2925 -0.8210
16501TIP3    H270919   3.075   4.614  15.777  0.0321 -0.0930 -0.7812
16502TIP3   OH270920   0.570   6.068   4.703 -0.0975  0.1372 -0.1318
16502TIP3    H170921   0.606   6.147   4.662  0.9799 -0.1970  0.1298
16502TIP3    H270922   0.611   6.065   4.789 -1.7665  0.4275  0.7209
16503TIP3   OH270923   5.678   1.947   4.433  0.2122 -0.1443 -0.5534
16503TIP3    H170924   5.616   2.008   4.392 -1.9010 -2.0954 -0.4235
16503TIP3    H270925   5.624   1.890   4.486  1.9000 -2.9754 -1.6502
16504TIP3   OH270926   6.331   6.229  12.089  0.7469 -0.0106 -0.0228
16504TIP3    H170927   6.346   6.143  12.129 -1.3302 -0.5804 -0.3572
16504TIP3    H270928   6.239   6.227  12.063  0.8637  2.0547 -0.7167
16505TIP3   OH270929   6.306   0.771  14.252  0.5002  0.5714  0.2506
16505TIP3    H170930   6.242   0.824  14.300  0.9795  1.9232 -0.5626
16505TIP3    H270931   6.352   0.833  14.196  0.1261 -0.9122 -1.8197
16506TIP3   OH270932   0.272   4.545  12.072 -0.1743  0.0815  0.5398
16506TIP3    H170933   0.247   4.460  12.109 -2.1678  0.2676 -0.2429
16506TIP3    H270934   0.346   4.525  12.015  2.3734 -0.3760  3.6746
16507TIP3   OH270935   5.623   1.657   1.164 -1.1655 -0.7213 -0.3841
16507TIP3    H170936   5.674   1.738   1.152  1.9948 -2.6513 -1.1585
16507TIP3    H270937   5.610   1.651   1.258  2.7597 -1.4731  0.3004
16508TIP3   OH270938   1.067   0.119  15.547  0.2258 -0.0809 -0.4929
16508TIP3    H170939   1.128   0.160  15.609 -0.8425  2.6871 -1.1156
16508TIP3    H270940   1.005   0.072  15.603  1.0054 -0.1505  0.3402
16509TIP3   OH270941   5.514   1.089  14.196  0.1983  0.4638  0.1068
16509TIP3    H170942   5.605   1.078  14.225  0.4850  0.0895 -0.8640
16509TIP3    H270943   5.521   1.147  14.120 -0.2061 -0.6014 -0.7746
16510TIP3   OH270944   3.784   1.210   3.674  0.3659 -0.2254 -0.2670
16510TIP3    H170945   3.726   1.250   3.609  0.4845 -0.6413 -0.6397
16510TIP3    H270946   3.844   1.280   3.700 -0.2624  0.1888  0.0732
16511TIP3   OH270947   1.941   2.337   3.311 -0.0644  0.0460 -0.3829
16511TIP3    H170948   1.975   2.386   3.386  2.3836 -1.9773 -0.0607
16511TIP3    H270949   2.005   2.350   3.242 -0.3519 -1.1371 -0.9010
16512TIP3   OH270950   4.178   5.748  16.879 -0.3240 -0.0001  0.3262
16512TIP3    H170951   4.244   5.691  16.920 -0.6289  0.4909  1.5419
16512TIP3    H270952   4.216   5.836  16.884 -0.8987  0.2341  0.6987
16513TIP3   OH270953   1.200   4.009  15.811  0.2992  0.0204  0.5352
16513TIP3    H170954   1.171   3.964  15.890  0.5282 -1.4612 -0.1848
16513TIP3    H270955   1.153   3.965  15.740  1.1995  0.3474 -0.2870
16514TIP3   OH270956   5.574   6.325   3.235 -0.0918 -0.2021 -0.2490
16514TIP3    H170957   5.480   6.320   3.253 -0.2151  0.7071 -0.5946
16514TIP3    H270958   5.608   6.387   3.298  0.3340 -0.7234  0.0435
16515TIP3   OH270959   1.980   3.623  14.013 -0.2923  0.8587  0.4195
16515TIP3    H170960   2.027   3.696  14.052  1.1528 -0.0019  0.3539
16515TIP3    H270961   2.020   3.545  14.052  0.1126  0.0231 -1.5482
16516TIP3   OH270962   5.356   0.688   3.292 -0.2213  0.0799 -0.5424
16516TIP3    H170963   5.332   0.758   3.232 -0.4842  0.2646 -0.2213
16516TIP3    H270964   5.365   0.610   3.237 -0.5619  0.2286 -0.8031
16517TIP3   OH270965   2.884   5.051   1.938  0.7443 -0.8347  0.1354
16517TIP3    H170966   2.960   5.035   1.882  0.1897 -0.0957 -0.8645
16517TIP3    H270967   2.899   5.137   1.976  0.0707 -0.3337 -0.6810
16518TIP3   OH270968   3.190   6.112   2.687 -0.8457 -0.4510 -0.5315
16518TIP3    H170969   3.251   6.187   2.689 -1.2081 -0.1531 -0.4535
16518TIP3    H270970   3.107   6.151   2.661 -1.3743 -0.5765  0.8859
16519TIP3   OH270971   4.963   0.486  11.021  0.6863  0.4085  0.3847
16519TIP3    H170972   4.993   0.442  11.100  3.5170  0.7476 -0.4244
16519TIP3    H270973   5.026   0.463  10.954 -0.7124  1.4754 -1.4030
16520TIP3   OH270974   4.375   4.334  15.129  0.0455 -0.1116  0.4314
16520TIP3    H170975   4.359   4.309  15.220 -0.9356  1.7286  0.8120
16520TIP3    H270976   4.422   4.417  15.134  0.5682 -0.3203 -0.7458
16521TIP3   OH270977   4.339   0.091   0.350 -0.4509  0.4702 -0.0079
16521TIP3    H170978   4.276   0.159   0.374 -2.5735 -1.2464 -0.3990
16521TIP3    H270979   4.316   0.068   0.260 -1.1097 -2.0510  0.7248
16522TIP3   OH270980   0.548   2.669   2.433  0.6678  0.5286  0.0522
16522TIP3    H170981   0.544   2.700   2.342 -1.3469 -0.3334 -0.2131
16522TIP3    H270982   0.504   2.585   2.431  2.5678 -0.5835  1.4659
16523TIP3   OH270983   6.107   2.375  12.846 -1.0123 -0.4091 -0.1640
16523TIP3    H170984   6.081   2.462  12.877 -2.2682 -1.0019  0.4975
16523TIP3    H270985   6.165   2.342  12.914  0.0401  0.1502 -0.7436
16524TIP3   OH270986   2.328   1.714  15.706 -0.2139 -0.5743 -0.0427
16524TIP3    H170987   2.283   1.641  15.663  0.2329 -0.8271 -0.0932
16524TIP3    H270988   2.382   1.752  15.637  0.4959 -0.9721  0.2833
16525TIP3   OH270989   3.052   1.149  13.409  0.1634  0.3779  0.0656
16525TIP3    H170990   2.989   1.204  13.456  0.4654  0.2058  0.6873
16525TIP3    H270991   3.065   1.074  13.467  0.3012  0.0022 -0.4471
16526TIP3   OH270992   3.110   2.396  11.997  0.3194 -0.2498 -0.1281
16526TIP3    H170993   3.177   2.458  12.026 -1.7800  2.2158 -0.2124
16526TIP3    H270994   3.102   2.411  11.903 -0.3990 -0.4519 -0.1046
16527TIP3   OH270995   4.225   6.149  15.522 -0.1271  0.2150 -0.0034
16527TIP3    H170996   4.169   6.150  15.444 -0.2145  2.1515  0.0174
16527TIP3    H270997   4.194   6.075  15.574 -1.3517  0.0623 -0.9100
16528TIP3   OH270998   3.133   3.089   4.229 -0.4368 -0.0131 -0.5805
16528TIP3    H170999   3.093   3.110   4.314 -0.1200 -2.0202  0.1138
16528TIP3    H271000   3.074   3.128   4.165 -0.5193  1.8251  0.5265
16529TIP3   OH271001   1.662   2.074   6.136 -0.0562 -1.1095 -0.5860
16529TIP3    H171002   1.591   2.042   6.080 -0.0678 -1.2990 -0.4639
16529TIP3    H271003   1.626   2.072   6.224  0.1419 -1.3244 -0.5094
16530TIP3   OH271004   2.118   4.364   4.963  0.3806 -0.4541  0.1367
16530TIP3    H171005   2.106   4.349   5.057  1.5489  0.6477  0.4913
16530TIP3    H271006   2.100   4.458   4.952 -0.3207 -0.6925 -0.8535
16531TIP3   OH271007   6.651   6.629   3.311 -0.0187 -0.8018  0.2281
16531TIP3    H171008   6.577   6.685   3.336  1.5730  1.0405  1.1267
16531TIP3    H271009   6.712   6.636   3.384  1.4396 -1.5247 -0.8717
16532TIP3   OH271010   0.139   4.663  13.136 -0.2024  0.5446  0.3935
16532TIP3    H171011   0.144   4.573  13.102  0.1288  1.1409 -1.2211
16532TIP3    H271012   0.209   4.710  13.090 -0.2320  1.5898  1.3736
16533TIP3   OH271013   5.551   4.755  16.285  0.1974  0.4072 -0.1096
16533TIP3    H171014   5.546   4.700  16.363 -0.1275 -0.0942 -0.4820
16533TIP3    H271015   5.587   4.698  16.217  2.3196  1.3632  0.1259
16534TIP3   OH271016   0.857   6.108  12.504  0.3612 -0.3653 -0.1020
16534TIP3    H171017   0.934   6.126  12.449  0.9273 -1.1078  0.4142
16534TIP3    H271018   0.783   6.140  12.453  1.0325  0.6287 -0.4933
16535TIP3   OH271019   4.512   2.998  14.654  0.0702 -0.5689 -0.2786
16535TIP3    H171020   4.520   3.000  14.750  0.4856 -1.5998 -0.2817
16535TIP3    H271021   4.584   3.052  14.623  1.2898 -1.9704 -0.0377
16536TIP3   OH271022   0.060   5.122   5.876  0.4444  0.5545 -0.1483
16536TIP3    H171023  -0.019   5.111   5.930 -0.4783  0.4527 -1.4693
16536TIP3    H271024   0.027   5.144   5.789  1.9255  1.6104 -0.4865
16537TIP3   OH271025   1.112   3.601  11.942  0.7179 -0.4206 -0.1925
16537TIP3    H171026   1.101   3.674  11.882 -4.8509 -0.5887  0.0447
16537TIP3    H271027   1.150   3.640  12.021 -0.9316  2.0919 -0.5086
16538TIP3   OH271028   6.415   2.253  16.229  0.1167 -0.5792  0.0294
16538TIP3    H171029   6.398   2.161  16.208  1.1849 -0.5395 -1.1223
16538TIP3    H271030   6.380   2.264  16.318  0.9447 -2.3702  0.6284
16539TIP3   OH271031   4.062   5.967   4.482 -0.9880 -0.2096  0.1727
16539TIP3    H171032   4.156   5.973   4.493 -0.8667 -1.5717 -0.0129
16539TIP3    H271033   4.044   6.017   4.402 -0.4870  0.4132  0.4447
16540TIP3   OH271034   0.468   2.496   5.868 -0.2254  0.6516 -0.1797
16540TIP3    H171035   0.434   2.568   5.921 -0.3209 -0.5226  1.4313
16540TIP3    H271036   0.560   2.488   5.894 -0.1627  0.3265 -0.4853
16541TIP3   OH271037   0.411   3.786  15.190 -0.2580  0.1031 -0.0290
16541TIP3    H171038   0.406   3.856  15.126 -0.2200  0.7057  0.6068
16541TIP3    H271039   0.341   3.726  15.167 -1.0241  0.9348  0.0817
16542TIP3   OH271040   1.244   0.846   2.498  0.4252 -0.6119 -0.3684
16542TIP3    H171041   1.329   0.839   2.454  2.5677 -2.5216  3.5218
16542TIP3    H271042   1.243   0.934   2.536  0.3976 -0.3928 -0.8718
16543TIP3   OH271043   4.241   1.567   0.613  1.0537  0.0950  0.1865
16543TIP3    H171044   4.171   1.610   0.662  0.7278 -1.7597  1.4721
16543TIP3    H271045   4.318   1.621   0.631  1.2097 -1.0304  3.7943
16544TIP3   OH271046   1.022   1.735  15.757  0.6687  0.2984  0.0461
16544TIP3    H171047   1.091   1.755  15.820  1.6970 -0.0182 -0.9599
16544TIP3    H271048   0.954   1.691  15.809  2.8066 -2.8367  0.4595
16545TIP3   OH271049   2.087   2.601   6.725  0.2452  0.0421 -0.6554
16545TIP3    H171050   2.171   2.626   6.687  0.5397 -0.2685 -0.2097
16545TIP3    H271051   2.107   2.526   6.781 -0.1699  0.5212  0.1538
16546TIP3   OH271052   4.843   6.377  10.612 -0.7282 -0.0472 -0.2479
16546TIP3    H171053   4.831   6.288  10.644 -2.6325  0.8763  1.9026
16546TIP3    H271054   4.768   6.393  10.556 -0.2838  0.1541 -0.7960
16547TIP3   OH271055   4.559   2.877   3.691 -0.0078  0.0798 -0.5031
16547TIP3    H171056   4.548   2.863   3.785 -3.5933 -1.9662 -1.0758
16547TIP3    H271057   4.654   2.887   3.680  0.7085 -1.1356  3.1104
16548TIP3   OH271058   2.649   1.820  14.466 -0.1283 -0.0907 -0.6387
16548TIP3    H171059   2.584   1.801  14.398 -1.3485 -0.6044  0.6425
16548TIP3    H271060   2.598   1.850  14.541  1.1110 -0.4498  0.3892
16549TIP3   OH271061   0.691   2.282  15.433 -0.2645  0.0432  0.5625
16549TIP3    H171062   0.709   2.244  15.347 -1.4491 -0.1914  0.3957
16549TIP3    H271063   0.663   2.207  15.486 -0.5508  0.3566  0.8535
16550TIP3   OH271064   0.457   2.313  12.706 -0.4721 -0.2771 -0.0907
16550TIP3    H171065   0.546   2.279  12.712  0.4655  1.4169 -2.5635
16550TIP3    H271066   0.468   2.408  12.704 -2.3770 -0.0147 -0.1250
16551TIP3   OH271067   4.495   6.194  10.829  0.1509 -0.7464 -0.5252
16551TIP3    H171068   4.527   6.277  10.795  2.1478 -1.8877 -1.5619
16551TIP3    H271069   4.412   6.217  10.872  1.1079  1.9291  0.1148
16552TIP3   OH271070   6.708   0.372  13.870 -0.4361  0.4908  0.0825
16552TIP3    H171071   6.649   0.408  13.936 -0.4706 -1.5292  1.2529
16552TIP3    H271072   6.795   0.380  13.908 -0.2418  1.0718 -0.4793
16553TIP3   OH271073   4.061   4.428   3.123  0.4241 -0.2136  0.0256
16553TIP3    H171074   4.060   4.417   3.219  1.4646 -3.1731 -0.1840
16553TIP3    H271075   4.060   4.339   3.089  0.5087  0.7476 -2.7492
16554TIP3   OH271076   1.322   3.333   3.143 -0.1012  0.1206  0.0988
16554TIP3    H171077   1.268   3.266   3.185 -0.2521 -0.4095 -0.8992
16554TIP3    H271078   1.394   3.348   3.204  0.3262 -1.4963  0.0392
16555TIP3   OH271079   4.848   0.339  15.089 -0.5048  0.7656  0.0558
16555TIP3    H171080   4.858   0.313  15.181 -0.7626  2.0051  0.4579
16555TIP3    H271081   4.929   0.311  15.047 -0.2608  0.4419  0.7195
16556TIP3   OH271082   1.491   1.809  14.980  0.4707 -0.4191  0.2628
16556TIP3    H171083   1.448   1.838  15.061 -0.5418  0.1587 -0.4539
16556TIP3    H271084   1.559   1.749  15.010  0.2828 -0.0339  1.5621
16557TIP3   OH271085   6.454   5.736   6.347  0.4738 -0.4057  0.1675
16557TIP3    H171086   6.420   5.805   6.404 -0.5130 -1.2882  0.7133
16557TIP3    H271087   6.380   5.674   6.339  1.3081 -1.3682 -0.3128
16558TIP3   OH271088   2.086   3.900  15.339  0.6390  0.5285 -0.7861
16558TIP3    H171089   2.083   3.876  15.432 -0.9067 -0.7570 -1.1247
16558TIP3    H271090   2.158   3.849  15.303  0.6503  0.3232 -0.4702
16559TIP3   OH271091   3.982   2.605  13.722 -0.2174  0.4120  0.7941
16559TIP3    H171092   3.945   2.641  13.803 -2.7514 -1.7615  0.7497
16559TIP3    H271093   3.919   2.632  13.654 -2.0005 -3.3820  0.6966
16560TIP3   OH271094   2.392   4.229   2.609  0.1742  0.3378  0.3022
16560TIP3    H171095   2.315   4.171   2.613  0.6730 -0.3675 -0.0598
16560TIP3    H271096   2.403   4.261   2.698  0.5743 -1.0573  0.7752
16561TIP3   OH271097   4.516   1.452   5.340 -0.1168 -0.6242  0.3171
16561TIP3    H171098   4.562   1.497   5.411  0.7414 -0.1025 -0.5456
16561TIP3    H271099   4.582   1.395   5.300 -0.7616 -1.4036  0.3309
16562TIP3   OH271100   4.088   3.597   5.287  0.0347 -0.1971  0.1554
16562TIP3    H171101   4.038   3.678   5.274  0.6207  0.0311 -0.7696
16562TIP3    H271102   4.173   3.627   5.318 -0.1381 -0.5404  0.9790
16563TIP3   OH271103   4.123   2.319   1.096  0.1152  0.1096  0.0368
16563TIP3    H171104   4.122   2.224   1.100  2.1043 -0.0557 -1.7518
16563TIP3    H271105   4.175   2.346   1.172  2.2053 -0.4831 -1.0940
16564TIP3   OH271106   1.345   1.069   6.388  0.6480  0.4411  0.2748
16564TIP3    H171107   1.394   1.027   6.459  1.7621  0.8599 -0.2314
16564TIP3    H271108   1.399   1.143   6.362 -0.2230  0.8690 -0.3640
16565TIP3   OH271109   6.112   2.717   5.367 -0.1290 -0.0351  0.4826
16565TIP3    H171110   6.095   2.788   5.429  0.0456 -0.4041  0.9603
16565TIP3    H271111   6.158   2.651   5.418 -1.5679 -1.1264  0.4228
16566TIP3   OH271112   2.008   6.682  12.575 -0.1936 -0.0346 -0.2208
16566TIP3    H171113   2.002   6.589  12.551 -1.9700 -0.6686  2.1920
16566TIP3    H271114   2.096   6.709  12.547 -0.2572 -1.9325 -2.5295
16567TIP3   OH271115   5.038   3.000   3.327  0.3958 -0.2796 -0.6841
16567TIP3    H171116   4.956   3.048   3.322  0.0205 -0.5699  1.6436
16567TIP3    H271117   5.012   2.908   3.338  0.9905 -0.3689  0.1304
16568TIP3   OH271118   3.839   2.086  15.637  0.1614 -0.1677 -0.1737
16568TIP3    H171119   3.860   1.993  15.647  1.2917 -0.0129 -0.8907
16568TIP3    H271120   3.792   2.092  15.554  1.3889  0.0698 -0.8737
16569TIP3   OH271121   3.024   5.166  14.102  0.1411  0.3988 -0.3218
16569TIP3    H171122   3.015   5.079  14.062 -0.8427  0.5306 -0.4240
16569TIP3    H271123   3.006   5.227  14.030 -0.1613  0.6655 -0.0241
16570TIP3   OH271124   0.198   1.007  15.597  0.0770 -0.5606  0.2212
16570TIP3    H171125   0.255   1.083  15.606 -0.7729  0.0035  1.0711
16570TIP3    H271126   0.131   1.019  15.665 -0.5724 -1.6208 -0.2044
16571TIP3   OH271127   1.000   1.017   4.093 -0.6019 -0.5744  0.4141
16571TIP3    H171128   0.955   0.935   4.117  0.8565 -1.2248  1.0275
16571TIP3    H271129   1.067   0.989   4.030 -0.9048  0.3433 -0.3225
16572TIP3   OH271130   1.840   0.518  15.079  0.2670  0.6102  0.2987
16572TIP3    H171131   1.908   0.522  15.146 -0.3962 -0.3380  1.0712
16572TIP3    H271132   1.771   0.464  15.119  0.5539 -1.4034 -1.7557
16573TIP3   OH271133   1.948   0.766   4.520  0.0628 -0.7920 -0.6916
16573TIP3    H171134   1.859   0.798   4.509  0.8767  1.9164 -0.0163
16573TIP3    H271135   1.938   0.671   4.530 -2.9014 -0.3949  1.3044
16574TIP3   OH271136   2.701   6.474   4.252  0.6636 -0.2076  0.1140
16574TIP3    H171137   2.715   6.546   4.313  1.0336 -0.4370  0.3043
16574TIP3    H271138   2.787   6.458   4.214  0.1496  0.9920 -1.6849
16575TIP3   OH271139   1.455   4.950  14.102  0.0759  0.2757 -0.6411
16575TIP3    H171140   1.545   4.968  14.075  0.2469 -1.9017 -1.7281
16575TIP3    H271141   1.437   4.863  14.068 -1.6066 -0.3963  1.7311
16576TIP3   OH271142   5.118   3.633  12.806  0.2989  0.7031  0.4812
16576TIP3    H171143   5.036   3.656  12.850  0.0432  0.1785  0.2814
16576TIP3    H271144   5.186   3.646  12.873 -0.1813 -1.0325  1.3595
16577TIP3   OH271145   3.843   5.857   1.690  0.7003  0.2045 -0.6182
16577TIP3    H171146   3.761   5.888   1.729  0.6014 -0.2641 -0.4466
16577TIP3    H271147   3.902   5.845   1.765  1.0504  0.8929 -0.7750
16578TIP3   OH271148   5.597   1.605   3.733  0.1665  0.3917  0.3125
16578TIP3    H171149   5.665   1.580   3.795 -0.5578  0.6528  1.2351
16578TIP3    H271150   5.642   1.661   3.669  0.9495  0.0141  0.5190
16579TIP3   OH271151   5.496   3.515  14.007  0.6763  0.3097 -0.2927
16579TIP3    H171152   5.569   3.520  13.945 -0.4489  1.9326 -1.5806
16579TIP3    H271153   5.453   3.600  14.000 -0.3820 -0.0145  1.6606
16580TIP3   OH271154   1.564   4.685  10.813  0.2225 -0.6560 -0.2329
16580TIP3    H171155   1.503   4.628  10.766 -2.7177  2.8789 -1.1263
16580TIP3    H271156   1.620   4.624  10.862 -0.9562 -4.3228 -2.9695
16581TIP3   OH271157   4.112   1.040  14.611  0.7329  0.1331 -0.0606
16581TIP3    H171158   4.106   0.984  14.689  1.0736  0.0297 -0.1079
16581TIP3    H271159   4.195   1.087  14.623  0.3021  0.8645  0.1381
16582TIP3   OH271160   5.474   4.573  11.032 -0.3670 -0.1703 -0.5392
16582TIP3    H171161   5.428   4.636  11.087  0.6572 -1.1383  1.5423
16582TIP3    H271162   5.406   4.513  11.003 -0.9321  0.3539 -0.3300
16583TIP3   OH271163   6.767   0.686   3.618  0.4168 -0.0125 -0.2594
16583TIP3    H171164   6.717   0.707   3.698 -0.0723 -0.7556 -0.3495
16583TIP3    H271165   6.722   0.734   3.549  2.3028  2.6134  0.2232
16584TIP3   OH271166   2.600   2.465  13.333  0.1172  0.0569  0.3310
16584TIP3    H171167   2.583   2.400  13.401  0.3953 -1.0888 -0.6440
16584TIP3    H271168   2.519   2.469  13.282  0.3507 -0.0902 -0.0583
16585TIP3   OH271169   0.522   0.643   5.694  0.3761  0.7833  0.2916
16585TIP3    H171170   0.598   0.599   5.655  1.3618  0.8006  2.0815
16585TIP3    H271171   0.487   0.581   5.758  0.5245  1.7565  1.3664
16586TIP3   OH271172   3.979   3.969   1.543  0.1219 -0.1356  0.0439
16586TIP3    H171173   3.916   4.036   1.518  0.8154  1.0338  1.3389
16586TIP3    H271174   3.986   3.913   1.465 -2.7597 -0.5427 -0.0192
16587TIP3   OH271175   0.141   1.720  12.386 -0.0718  0.0258 -0.1409
16587TIP3    H171176   0.197   1.792  12.356 -0.0803 -0.2142 -0.7452
16587TIP3    H271177   0.078   1.708  12.315  1.1912 -1.9553 -1.0246
16588TIP3   OH271178   3.593   3.827  14.526 -0.2067 -0.0931  0.1481
16588TIP3    H171179   3.636   3.865  14.449 -2.5964 -1.4315 -1.9913
16588TIP3    H271180   3.665   3.812  14.588  2.0732 -0.1517 -2.3146
16589TIP3   OH271181   6.425   0.404  15.497  0.4565 -0.0743  0.1698
16589TIP3    H171182   6.429   0.336  15.565 -0.5252 -0.4675 -0.1471
16589TIP3    H271183   6.516   0.431  15.485  0.7158 -0.4121  1.2260
16590TIP3   OH271184   4.726   5.270   2.514  0.6334  0.5303 -0.6206
16590TIP3    H171185   4.809   5.315   2.527  0.4916  0.8519 -0.8028
16590TIP3    H271186   4.748   5.177   2.517  0.9778  0.6127 -0.5381
16591TIP3   OH271187   0.196   6.604   3.955  0.6509 -0.0271 -0.0875
16591TIP3    H171188   0.271   6.661   3.971  0.7821  0.2200 -1.4931
16591TIP3    H271189   0.120   6.663   3.961  0.7248  0.1344 -0.6654
16592TIP3   OH271190   0.645   1.738  13.254  0.7402  0.2427 -0.6809
16592TIP3    H171191   0.637   1.748  13.348  2.3864 -0.8981 -0.3788
16592TIP3    H271192   0.735   1.708  13.240 -0.1535 -1.9210 -2.4200
16593TIP3   OH271193   4.340   0.967   1.077  0.0383 -0.0321 -0.0133
16593TIP3    H171194   4.361   1.028   1.147  2.3430  0.3816 -0.9547
16593TIP3    H271195   4.249   0.942   1.092 -1.1011  3.7491  0.3146
16594TIP3   OH271196   5.178   0.474   4.674  0.1345 -0.0783  0.0167
16594TIP3    H171197   5.182   0.418   4.596 -0.6328 -0.9043  0.5463
16594TIP3    H271198   5.265   0.465   4.714  0.0943 -0.7255 -0.0275
16595TIP3   OH271199   3.059   3.467   6.083  0.2711 -0.1191  1.0350
16595TIP3    H171200   3.091   3.387   6.043 -0.9571 -0.5292  0.8317
16595TIP3    H271201   3.080   3.458   6.176  4.3539  1.4218  0.4845
16596TIP3   OH271202   3.631   5.903   4.063 -0.5053  0.3755  0.2619
16596TIP3    H171203   3.697   5.973   4.064 -1.4498  1.3254 -0.4313
16596TIP3    H271204   3.661   5.840   4.127  0.7042  1.1366  0.4745
16597TIP3   OH271205   2.429   5.579  16.610  1.0320 -0.2043  0.1227
16597TIP3    H171206   2.513   5.624  16.614  1.2010 -0.5625  0.7661
16597TIP3    H271207   2.390   5.593  16.697 -0.4996  1.6877 -0.7712
16598TIP3   OH271208   2.116   0.112  11.940  0.3984  0.8153 -0.0277
16598TIP3    H171209   2.210   0.129  11.939  0.8629 -1.0234 -3.3930
16598TIP3    H271210   2.109   0.017  11.956 -0.6583  0.4882 -2.0780
16599TIP3   OH271211   0.390   6.256   5.651 -0.1951  0.6332 -0.8177
16599TIP3    H171212   0.364   6.169   5.621  0.4404  0.0522  0.2645
16599TIP3    H271213   0.364   6.314   5.579 -4.9282  0.2678  0.2580
16600TIP3   OH271214   0.245   1.926   2.126 -0.2445 -0.3449 -0.4641
16600TIP3    H171215   0.330   1.967   2.109 -1.0241  1.2146 -0.8018
16600TIP3    H271216   0.223   1.952   2.215 -1.5950  1.6697 -1.3049
16601TIP3   OH271217   6.375   3.806   0.577 -0.3647 -0.4792 -0.0600
16601TIP3    H171218   6.374   3.879   0.516  1.5924 -2.4729 -2.7266
16601TIP3    H271219   6.460   3.764   0.563 -0.4244 -1.9264  3.0762
16602TIP3   OH271220   3.674   2.502  12.938 -0.0230  0.5177 -0.5299
16602TIP3    H171221   3.628   2.447  13.002 -1.4211 -0.3187 -2.1603
16602TIP3    H271222   3.747   2.448  12.908 -0.2694  0.2939 -0.7341
16603TIP3   OH271223   4.044   2.058  13.345  0.1362 -0.3427 -0.6031
16603TIP3    H171224   4.077   1.971  13.321 -0.0882 -0.8382  0.7333
16603TIP3    H271225   3.999   2.090  13.267 -1.4680 -2.2850 -0.5489
16604TIP3   OH271226   1.023   5.373  13.731  0.4502  0.4755  0.0524
16604TIP3    H171227   0.957   5.378  13.662 -1.0962 -4.6768  0.7739
16604TIP3    H271228   1.090   5.314  13.696  0.4686 -0.9412  2.2698
16605TIP3   OH271229   0.923   0.449  14.916  0.3979  0.6531 -0.0191
16605TIP3    H171230   0.952   0.382  14.979  2.1844 -1.2307 -2.6279
16605TIP3    H271231   0.859   0.501  14.964 -0.2691 -2.2423  2.5317
16606TIP3   OH271232   5.330   1.036   4.074  0.6711 -0.4240 -0.0984
16606TIP3    H171233   5.286   1.006   4.153  0.2884  0.5023  0.0568
16606TIP3    H271234   5.356   1.126   4.094  1.4338 -0.5117 -0.6778
16607TIP3   OH271235   1.092   3.708  16.704  0.0058 -0.1100  0.0363
16607TIP3    H171236   1.013   3.703  16.758  0.9282 -2.4962  1.3080
16607TIP3    H271237   1.155   3.755  16.758  0.1020 -0.1044 -0.0791
16608TIP3   OH271238   6.754   4.481   0.661 -0.0512 -0.2446 -0.6294
16608TIP3    H171239   6.759   4.558   0.604  0.6124 -0.5676 -1.0252
16608TIP3    H271240   6.749   4.516   0.749  2.6520  0.3034 -0.6026
16609TIP3   OH271241   3.019   0.201   3.007  0.2485 -0.0337 -0.1900
16609TIP3    H171242   3.080   0.139   2.967 -0.0294  0.6310 -1.7581
16609TIP3    H271243   3.057   0.287   2.987 -0.8403  0.3635 -0.5998
16610TIP3   OH271244   2.771   5.489  15.484 -0.1428  0.3895 -0.2424
16610TIP3    H171245   2.763   5.494  15.389 -1.6454 -0.0770 -0.1696
16610TIP3    H271246   2.751   5.578  15.515  0.0362  0.4647 -0.3416
16611TIP3   OH271247   5.470   4.189  12.051 -0.0765  0.2613 -0.2394
16611TIP3    H171248   5.395   4.216  11.998 -1.2926 -1.3660  0.5995
16611TIP3    H271249   5.439   4.191  12.141  0.5989 -1.2459  0.0569
16612TIP3   OH271250   1.802   2.287   2.979 -0.4388 -0.4556 -0.1635
16612TIP3    H171251   1.810   2.381   2.995  0.4401 -0.5474  0.0276
16612TIP3    H271252   1.714   2.275   2.943 -0.3768  0.5022 -0.6558
16613TIP3   OH271253   3.297   5.821  13.434 -0.6661 -0.0097  0.1099
16613TIP3    H171254   3.314   5.896  13.490 -0.9735  1.0862 -1.2098
16613TIP3    H271255   3.272   5.751  13.494 -0.0800  0.8499  1.3866
16614TIP3   OH271256   3.905   3.042   4.860 -0.3526 -0.0690  0.2121
16614TIP3    H171257   3.906   3.029   4.955  0.6913 -1.3576  0.0587
16614TIP3    H271258   3.954   2.968   4.825 -1.6115 -0.1983 -1.4200
16615TIP3   OH271259   1.802   2.020  14.636  0.2420  0.6376  0.1308
16615TIP3    H171260   1.895   1.998  14.631  0.2037  0.6407 -0.6427
16615TIP3    H271261   1.759   1.936  14.650  0.2339  0.4132 -1.1490
16616TIP3   OH271262   5.515   6.046   1.745 -0.2085  0.6974  0.1247
16616TIP3    H171263   5.576   6.033   1.672 -1.4263  2.1712 -1.2290
16616TIP3    H271264   5.477   5.960   1.761 -0.7518  0.5437 -1.7736
16617TIP3   OH271265   3.410   6.275  15.608  0.1303 -0.0413 -0.7206
16617TIP3    H171266   3.458   6.240  15.533  0.6323  2.2961 -1.5734
16617TIP3    H271267   3.463   6.248  15.684  0.7384 -0.6915 -1.3493
16618TIP3   OH271268   4.526   1.433   5.935  0.0870 -0.3938  0.4430
16618TIP3    H171269   4.489   1.507   5.982  1.1055  0.2771  0.1997
16618TIP3    H271270   4.450   1.375   5.919 -0.7603  0.6806  0.4458
16619TIP3   OH271271   4.233   6.010   1.476 -0.1316 -0.3754  0.2082
16619TIP3    H171272   4.262   5.985   1.563 -0.6386 -0.0444  0.4778
16619TIP3    H271273   4.277   6.093   1.458  1.3892 -1.3122 -0.6026
16620TIP3   OH271274   0.775   1.703   0.344  0.2041  0.3529 -0.3530
16620TIP3    H171275   0.773   1.624   0.291 -2.6406  0.6678 -0.8486
16620TIP3    H271276   0.786   1.671   0.434 -0.7660 -0.6160 -0.5576
16621TIP3   OH271277   0.027   2.388  12.818  0.0219  0.1068  0.2135
16621TIP3    H171278   0.069   2.462  12.861  0.4749 -0.7203  1.2684
16621TIP3    H271279   0.098   2.325  12.804 -0.5257 -0.5512  0.3238
16622TIP3   OH271280   3.007   2.113   4.276  0.0929  0.3263 -0.2768
16622TIP3    H171281   3.002   2.191   4.331  2.5985  0.7769 -0.5503
16622TIP3    H271282   2.935   2.058   4.305 -0.5728  1.9116  1.2415
16623TIP3   OH271283   2.796   1.296  15.933 -0.1747 -0.1180 -0.2003
16623TIP3    H171284   2.878   1.292  15.983 -0.2036  0.9626 -0.0469
16623TIP3    H271285   2.759   1.382  15.955 -1.0184 -0.3306 -0.7815
16624TIP3   OH271286   1.664   0.713   2.332 -0.1528 -0.1948 -0.4476
16624TIP3    H171287   1.736   0.687   2.389 -0.6519 -3.1550 -1.0406
16624TIP3    H271288   1.707   0.740   2.250  0.3630  0.5712  0.0553
16625TIP3   OH271289   6.319   3.908  16.029 -0.1282  0.0848 -0.1329
16625TIP3    H171290   6.312   3.880  16.120 -0.0889  0.2861 -0.0689
16625TIP3    H271291   6.396   3.863  15.996 -0.4831 -0.4657 -0.2342
16626TIP3   OH271292   5.595   4.006   3.710 -0.5690 -0.1196  0.3022
16626TIP3    H171293   5.638   3.921   3.716  1.4191  0.9105  2.4279
16626TIP3    H271294   5.654   4.059   3.657 -2.0688 -0.1321 -1.4842
16627TIP3   OH271295   3.312   3.762   4.459 -0.0841 -0.1888 -1.2194
16627TIP3    H171296   3.261   3.735   4.383  0.2195 -0.0736 -1.4679
16627TIP3    H271297   3.301   3.857   4.463 -2.0512 -0.4126  0.3036
16628TIP3   OH271298   5.806   5.242  16.894  0.6039 -0.3209 -0.7698
16628TIP3    H171299   5.797   5.171  16.957 -0.7720  0.2901 -0.2167
16628TIP3    H271300   5.760   5.316  16.935  0.0335  0.2202 -2.2973
16629TIP3   OH271301   0.600   0.755   5.302  0.3981  0.6861 -0.0601
16629TIP3    H171302   0.533   0.695   5.338  0.1128 -0.0327 -1.6867
16629TIP3    H271303   0.587   0.836   5.351 -0.6455  0.0910  0.7263
16630TIP3   OH271304   5.817   3.786  11.977  0.0548 -0.0709 -0.1411
16630TIP3    H171305   5.783   3.698  11.957  1.0402 -0.4992 -0.0033
16630TIP3    H271306   5.853   3.816  11.894  1.2469 -0.5105  0.2054
16631TIP3   OH271307   1.966   4.767   1.529  0.6781 -0.3776  0.5602
16631TIP3    H171308   1.970   4.806   1.616 -1.4819  1.5144 -0.0538
16631TIP3    H271309   1.880   4.725   1.526  0.3331  0.3638 -0.9003
16632TIP3   OH271310   2.961   2.876  11.650 -0.0403  0.3452 -0.0364
16632TIP3    H171311   2.957   2.785  11.680 -0.3236 -0.0892 -1.3715
16632TIP3    H271312   2.917   2.876  11.565 -2.3580  2.2240  1.0426
16633TIP3   OH271313   2.260   3.252  14.099 -0.6004 -0.7059 -0.2512
16633TIP3    H171314   2.175   3.221  14.066 -0.7860 -0.3433 -0.1285
16633TIP3    H271315   2.252   3.348  14.099 -0.6219 -0.6853  0.8619
16634TIP3   OH271316   0.855   5.085   4.630  0.2568  0.3766 -0.3437
16634TIP3    H171317   0.893   4.997   4.635  0.6868  0.5269 -0.8076
16634TIP3    H271318   0.784   5.076   4.566 -0.1403  0.2221  0.1088
16635TIP3   OH271319   1.955   1.507  11.404 -0.0856 -0.4876 -0.7185
16635TIP3    H171320   1.999   1.425  11.425 -0.8436  0.0847  4.6024
16635TIP3    H271321   2.022   1.574  11.413 -0.4045 -0.1951 -0.4778
16636TIP3   OH271322   1.950   3.530   5.373  0.7127 -0.0763 -0.0423
16636TIP3    H171323   2.013   3.461   5.349 -0.8725 -1.8136  0.5855
16636TIP3    H271324   1.869   3.505   5.328 -0.0580  1.0905  0.6591
16637TIP3   OH271325   3.790   2.594   1.533 -0.4121 -0.2900  0.0005
16637TIP3    H171326   3.875   2.609   1.493 -0.3692 -1.5932 -0.4392
16637TIP3    H271327   3.737   2.669   1.506  0.3049  0.0267 -0.5535
16638TIP3   OH271328   0.940   2.746   3.676  0.4422  0.2368 -0.9128
16638TIP3    H171329   0.971   2.836   3.689  0.7880  0.3958 -2.5587
16638TIP3    H271330   0.891   2.750   3.594  0.5499 -1.0984 -1.0552
16639TIP3   OH271331   0.879   3.608   4.962  0.0288 -0.3284  0.2624
16639TIP3    H171332   0.877   3.567   5.048  0.1586  1.7159  1.3022
16639TIP3    H271333   0.968   3.594   4.930 -0.1241 -1.4003  0.2720
16640TIP3   OH271334   1.863   1.809  16.344 -0.3835 -0.3463 -0.4483
16640TIP3    H171335   1.880   1.825  16.437 -1.9078 -0.5253 -0.1122
16640TIP3    H271336   1.800   1.878  16.319  0.2768 -0.0823 -1.4450
16641TIP3   OH271337   4.014   4.721  15.217 -0.2890  0.3981 -0.0578
16641TIP3    H171338   4.107   4.710  15.238 -0.1011 -0.1537 -1.0919
16641TIP3    H271339   4.008   4.698  15.124 -1.4029  0.7754 -0.0918
16642TIP3   OH271340   0.318   2.356   4.986 -0.5754 -0.0891  0.0085
16642TIP3    H171341   0.288   2.290   4.924 -0.9216  0.2273 -0.1639
16642TIP3    H271342   0.379   2.309   5.044 -0.2793 -0.3908 -0.5443
16643TIP3   OH271343   5.456   4.245  10.820  0.3669  0.0869  0.1324
16643TIP3    H171344   5.368   4.218  10.844  0.2554 -1.8026 -2.0282
16643TIP3    H271345   5.510   4.168  10.838  1.0315  0.1985 -1.2242
16644TIP3   OH271346   2.297   5.328   2.889 -0.3104 -0.2941 -0.3342
16644TIP3    H171347   2.365   5.345   2.953 -1.1251  1.2018  0.1848
16644TIP3    H271348   2.215   5.351   2.933 -0.9445  0.2391 -1.7135
16645TIP3   OH271349   6.582   5.641   6.090 -0.0307 -0.4528 -0.1713
16645TIP3    H171350   6.515   5.677   6.032  0.0801 -0.0231 -0.0366
16645TIP3    H271351   6.539   5.636   6.175  0.1569 -0.0198 -0.0483
16646TIP3   OH271352   0.061   4.561   3.622 -0.8970  0.2164  0.4577
16646TIP3    H171353  -0.023   4.554   3.576 -0.0219 -0.7974 -1.0757
16646TIP3    H271354   0.054   4.499   3.694 -0.2978 -2.4739 -1.6582
16647TIP3   OH271355   3.707   0.183  15.455 -0.1830  0.1044 -0.1971
16647TIP3    H171356   3.751   0.233  15.524  1.3155  0.1570 -1.1498
16647TIP3    H271357   3.768   0.113  15.432 -0.5643  0.1803 -1.5754
16648TIP3   OH271358   1.671   0.200  12.506 -0.1017  0.0987  0.5582
16648TIP3    H171359   1.728   0.275  12.522  0.0512  0.1030  0.0135
16648TIP3    H271360   1.711   0.155  12.431  0.0127 -0.7294  1.1040
16649TIP3   OH271361   4.694   3.471  15.690 -0.2462  0.5807  0.0425
16649TIP3    H171362   4.599   3.478  15.695 -0.1170  2.4614  0.7844
16649TIP3    H271363   4.711   3.379  15.670 -2.2866  0.5805 -2.1693
16650TIP3   OH271364   4.683   5.299  14.474  0.2591  0.5736 -0.0983
16650TIP3    H171365   4.637   5.330  14.397 -0.2269 -1.7588 -0.8481
16650TIP3    H271366   4.737   5.372  14.502 -0.6522  1.9492 -1.7766
16651TIP3   OH271367   6.051   5.277   3.048 -0.0325 -0.2271  0.1820
16651TIP3    H171368   5.991   5.343   3.085  0.0709  0.1732 -0.3508
16651TIP3    H271369   6.080   5.226   3.124  0.3744  0.7388  0.6960
16652TIP3   OH271370   5.894   5.122  15.627 -0.3253  0.3323  0.4411
16652TIP3    H171371   5.893   5.171  15.545  0.6691  0.3539  0.4385
16652TIP3    H271372   5.977   5.074  15.627 -0.6801 -0.3113  1.0595
16653TIP3   OH271373   0.039   0.930   2.736  0.2674 -0.1543  0.2195
16653TIP3    H171374   0.072   0.845   2.766  0.6436 -0.0952 -0.0252
16653TIP3    H271375   0.118   0.983   2.721  0.0963 -0.2284 -1.0094
16654TIP3   OH271376   0.323   0.140  14.373  0.2060  0.7584 -0.2716
16654TIP3    H171377   0.289   0.218  14.416 -2.0146 -0.0740 -0.3807
16654TIP3    H271378   0.303   0.154  14.280 -0.5160 -0.0556 -0.2510
16655TIP3   OH271379   4.755   4.292   0.858 -0.6493  0.4749  0.2001
16655TIP3    H171380   4.742   4.208   0.814 -0.9805 -0.7014  2.3807
16655TIP3    H271381   4.693   4.291   0.931 -0.4755  2.5198  0.4309
16656TIP3   OH271382   5.415   3.119   0.678 -0.2922  0.0359 -0.5257
16656TIP3    H171383   5.370   3.039   0.706  0.0685 -0.4079 -1.1947
16656TIP3    H271384   5.504   3.109   0.709 -0.5891  0.8314  0.6295
16657TIP3   OH271385   2.981   4.302  15.519  0.0010  0.3777 -0.2625
16657TIP3    H171386   3.043   4.283  15.449 -0.6418  0.6179 -0.9239
16657TIP3    H271387   2.998   4.236  15.586 -0.8259 -1.2829 -1.6001
16658TIP3   OH271388   2.459   2.274   1.316  0.0272  0.2111  0.2532
16658TIP3    H171389   2.477   2.343   1.380 -1.0104  1.5648 -0.8593
16658TIP3    H271390   2.509   2.198   1.348  1.7166  1.6382  1.1820
16659TIP3   OH271391   1.897   5.627  15.441  0.7626  0.0754 -0.9898
16659TIP3    H171392   1.945   5.708  15.459  0.5464  0.3416 -1.5975
16659TIP3    H271393   1.883   5.588  15.528  0.0358  1.1621 -0.6039
16660TIP3   OH271394   2.381   0.280   3.564  0.2466  0.1943 -0.4622
16660TIP3    H171395   2.383   0.372   3.541 -1.7467  0.7510  1.2704
16660TIP3    H271396   2.460   0.267   3.617  2.1067  0.1006 -3.0439
16661TIP3   OH271397   4.974   0.001   0.148  0.2747  0.6793 -0.4027
16661TIP3    H171398   4.917  -0.072   0.123 -0.2381  0.2765  1.8014
16661TIP3    H271399   4.915   0.073   0.166  0.5617  0.6973  0.4885
16662TIP3   OH271400   3.345   2.234  11.774  0.4540 -0.3313 -0.1757
16662TIP3    H171401   3.335   2.248  11.868 -1.0341 -0.2233 -0.3232
16662TIP3    H271402   3.316   2.144  11.760 -0.2284 -0.0517 -0.6353
16663TIP3   OH271403   5.658   0.765  15.261  0.6712  0.3668  0.3917
16663TIP3    H171404   5.622   0.803  15.342 -1.8279 -0.2505 -0.3592
16663TIP3    H271405   5.659   0.671  15.277  0.8957  0.2993 -0.0196
16664TIP3   OH271406   1.137   6.091  15.638  0.7149  0.2134  0.4139
16664TIP3    H171407   1.227   6.096  15.606  0.7350  0.1923  0.4670
16664TIP3    H271408   1.102   6.011  15.597  1.1126 -0.4698  1.3836
16665TIP3   OH271409   4.550   0.499   1.770  0.5765  0.4445 -0.1190
16665TIP3    H171410   4.498   0.576   1.746 -0.2131 -0.2716 -0.7870
16665TIP3    H271411   4.599   0.526   1.847  0.9583  1.8870 -0.8385
16666TIP3   OH271412   3.766   4.266   0.198  0.5118 -0.1129  0.0285
16666TIP3    H171413   3.822   4.334   0.235 -1.6301  2.1492 -0.6085
16666TIP3    H271414   3.771   4.281   0.103 -1.6068  0.6235 -0.0227
16667TIP3   OH271415   2.042   5.283   3.463  0.2423  0.2029 -0.1301
16667TIP3    H171416   1.993   5.280   3.545  2.1863 -1.3835  1.0743
16667TIP3    H271417   1.995   5.224   3.404 -1.2454  1.4573 -0.2428
16668TIP3   OH271418   3.620   0.342  16.885 -0.5802 -0.4851  0.0583
16668TIP3    H171419   3.605   0.265  16.940 -0.3971 -0.9977 -0.5912
16668TIP3    H271420   3.670   0.402  16.941 -0.1746 -1.1036  0.3749
16669TIP3   OH271421   4.855   2.017  13.777 -0.0822 -0.1048  0.6437
16669TIP3    H171422   4.850   2.064  13.860 -1.9397  0.3367  0.3336
16669TIP3    H271423   4.767   2.024  13.740 -0.2255 -3.0580  0.1528
16670TIP3   OH271424   3.657   0.310   6.490 -0.0741 -0.1945 -0.0075
16670TIP3    H171425   3.747   0.284   6.511 -0.4875 -0.1877  2.0004
16670TIP3    H271426   3.619   0.233   6.449  0.1567 -1.1078  1.4044
16671TIP3   OH271427   4.948   1.774  14.369  0.0925 -0.7661 -0.6751
16671TIP3    H171428   5.022   1.798  14.426  1.1247 -1.9170 -1.4787
16671TIP3    H271429   4.988   1.724  14.298 -1.3171 -0.3001 -1.8296
16672TIP3   OH271430   2.523   4.249   1.602  0.3519 -0.2283  0.3110
16672TIP3    H171431   2.551   4.338   1.624 -0.5086  0.0346  0.4036
16672TIP3    H271432   2.427   4.252   1.610  0.0654 -0.4793 -2.1118
16673TIP3   OH271433   1.295   4.731  10.921 -0.1257 -0.6930  0.4342
16673TIP3    H171434   1.329   4.764  11.005  3.2655 -3.7384  0.5616
16673TIP3    H271435   1.374   4.708  10.872 -2.0673 -1.9313 -2.3406
16674TIP3   OH271436   0.249   4.595   5.297 -0.1273  0.4157  0.0335
16674TIP3    H171437   0.250   4.687   5.271  0.5089  0.1530 -0.9213
16674TIP3    H271438   0.317   4.588   5.364 -0.9236  0.8440  0.9117
16675TIP3   OH271439   3.942   4.473   1.090  0.2727  0.1338 -0.4951
16675TIP3    H171440   3.905   4.394   1.050 -1.3283  1.9337 -2.8611
16675TIP3    H271441   4.029   4.480   1.050 -0.5169  0.7923 -2.2021
16676TIP3   OH271442   4.421   1.280  12.761  0.1491 -0.1078 -0.3035
16676TIP3    H171443   4.514   1.300  12.754  0.2415  0.2304  1.3673
16676TIP3    H271444   4.395   1.320  12.844 -0.9433 -2.2094  0.4301
16677TIP3   OH271445   1.945   6.373   5.911 -0.1141  0.3583  0.2789
16677TIP3    H171446   1.916   6.324   5.834 -0.6773 -2.6885  2.2724
16677TIP3    H271447   2.032   6.407   5.887 -0.0621 -0.9102 -1.5027
16678TIP3   OH271448   2.699   4.065   2.474 -0.5613 -0.5602  0.1238
16678TIP3    H171449   2.728   4.108   2.393 -1.5852 -0.6602 -0.3074
16678TIP3    H271450   2.744   4.113   2.544  0.1814 -0.3455 -0.4829
16679TIP3   OH271451   3.944   2.143   5.937  0.5189  0.1455  0.1438
16679TIP3    H171452   3.857   2.162   5.970  0.3844  1.6404 -0.9668
16679TIP3    H271453   3.945   2.048   5.923  0.0846 -0.3475  2.8500
16680TIP3   OH271454   3.000   5.759   5.380  0.1205  0.2210 -0.1363
16680TIP3    H171455   2.960   5.808   5.308  0.3539 -1.0965 -1.2113
16680TIP3    H271456   3.067   5.817   5.416 -2.0383  2.1005  1.0785
16681TIP3   OH271457   5.326   1.319  16.925  0.3255 -0.1014  0.1680
16681TIP3    H171458   5.348   1.297  16.835 -0.7014 -0.3554 -0.0359
16681TIP3    H271459   5.386   1.266  16.978 -1.4279 -2.7828 -0.3198
16682TIP3   OH271460   4.174   3.560  13.911 -0.2833  0.0505  0.3680
16682TIP3    H171461   4.241   3.627  13.896 -0.0236 -0.6232 -1.9258
16682TIP3    H271462   4.095   3.596  13.870 -0.9830  0.2292  1.8166
16683TIP3   OH271463   6.617   4.308  14.515 -0.2397  0.3235 -0.7376
16683TIP3    H171464   6.620   4.302  14.419  0.1494 -0.1854 -0.6982
16683TIP3    H271465   6.668   4.233  14.545 -2.6358 -1.1756 -0.0995
16684TIP3   OH271466   1.936   3.617   6.499  0.0264 -0.0333  0.1887
16684TIP3    H171467   1.928   3.552   6.429  0.7013  1.6929 -1.5679
16684TIP3    H271468   2.010   3.587   6.551  0.3188 -0.6803 -0.5753
16685TIP3   OH271469   2.920   3.196   1.221 -0.2048  0.1809 -0.0902
16685TIP3    H171470   2.927   3.274   1.276 -0.2892 -0.4512  0.8375
16685TIP3    H271471   2.880   3.130   1.278 -0.7832 -0.3376 -1.0722
16686TIP3   OH271472   2.579   2.068  13.127 -0.0503  0.3057  0.1332
16686TIP3    H171473   2.648   2.117  13.082 -0.1647  1.8708  1.5866
16686TIP3    H271474   2.498   2.092  13.081  0.0272  0.6389  0.1732
16687TIP3   OH271475   2.219   0.840  13.325  0.1513  0.2071 -0.2117
16687TIP3    H171476   2.245   0.925  13.361  0.9277 -0.1758  0.1542
16687TIP3    H271477   2.161   0.862  13.252 -0.8614  1.0239  0.7850
16688TIP3   OH271478   6.433   2.682  10.882  0.1557 -0.1948 -0.4448
16688TIP3    H171479   6.365   2.745  10.906  0.6807  0.2774 -0.1760
16688TIP3    H271480   6.403   2.643  10.800  0.5741  1.5302 -1.4503
16689TIP3   OH271481   6.599   3.408   3.741 -0.3027  0.0708  0.1702
16689TIP3    H171482   6.586   3.495   3.703 -0.6499 -0.6808 -1.5212
16689TIP3    H271483   6.669   3.420   3.805  1.4273  1.1696 -1.7811
16690TIP3   OH271484   5.281   3.222  12.630  0.0585  0.3758 -0.0709
16690TIP3    H171485   5.367   3.225  12.588  0.9473  2.6260  1.7267
16690TIP3    H271486   5.253   3.313  12.636 -1.9975 -0.2211  0.3555
16691TIP3   OH271487   0.892   3.693  16.873  0.3222 -0.4369 -0.2216
16691TIP3    H171488   0.872   3.755  16.943  1.3352 -1.8496  1.3964
16691TIP3    H271489   0.806   3.657  16.848  0.0045 -0.3999  0.7743
16692TIP3   OH271490   0.921   0.215  14.783 -0.3359  0.2573 -0.3607
16692TIP3    H171491   0.893   0.212  14.692 -0.2807 -0.4745 -0.3625
16692TIP3    H271492   0.913   0.307  14.808 -1.8731  0.2143 -0.6257
16693TIP3   OH271493   4.322   2.947   6.455 -0.5593  0.3974 -0.7399
16693TIP3    H171494   4.292   2.996   6.531 -1.9772 -0.0197 -1.0050
16693TIP3    H271495   4.403   2.905   6.484 -0.9533  0.4323  0.4654
16694TIP3   OH271496   2.914   5.542  14.739  0.7013 -0.3467 -0.4068
16694TIP3    H171497   2.873   5.620  14.702  0.7576  0.1071  0.4632
16694TIP3    H271498   2.997   5.535  14.692  1.0185  0.5368 -0.0086
16695TIP3   OH271499   0.739   1.109  15.263 -0.0647 -0.2023 -0.2187
16695TIP3    H171500   0.834   1.110  15.258 -0.0872  0.1860 -0.6549
16695TIP3    H271501   0.710   1.161  15.188 -0.5759  1.2962  0.9696
16696TIP3   OH271502   3.966   5.528   3.599 -0.4735  0.7378  0.2207
16696TIP3    H171503   3.932   5.439   3.586  1.8671  0.0986 -2.4341
16696TIP3    H271504   3.900   5.584   3.558 -0.3692 -0.1066 -1.1731
16697TIP3   OH271505   1.877   0.277  10.668  0.1590 -0.5190  0.3564
16697TIP3    H171506   1.857   0.204  10.726 -3.4620  1.4189  1.8726
16697TIP3    H271507   1.792   0.301  10.630  1.5716  1.5484 -1.7891
16698TIP3   OH271508   3.173   0.850  12.347  0.4048 -0.1344  0.5961
16698TIP3    H171509   3.210   0.799  12.275  1.4598  0.3025  0.8059
16698TIP3    H271510   3.239   0.847  12.415 -0.4789 -0.3305  1.4699
16699TIP3   OH271511   6.328   3.313  16.692 -0.2637  0.1775  0.1120
16699TIP3    H171512   6.348   3.341  16.781  2.5046 -0.0234 -0.3387
16699TIP3    H271513   6.346   3.390  16.638 -0.8840 -0.0132 -0.3741
16700TIP3   OH271514   6.578   2.401   0.768  0.6101 -0.6093  0.2948
16700TIP3    H171515   6.602   2.461   0.839  2.6047 -1.2297  0.2056
16700TIP3    H271516   6.517   2.339   0.809  0.0417  0.3050  0.8778
16701TIP3   OH271517   2.441   3.029   3.942  0.2611 -0.7004 -0.2828
16701TIP3    H171518   2.494   2.976   4.001  1.2247  0.4811 -0.0460
16701TIP3    H271519   2.419   2.971   3.869 -0.7021 -2.1174  1.0581
16702TIP3   OH271520   2.592   5.450  12.327 -0.7650  0.5819  0.1373
16702TIP3    H171521   2.524   5.388  12.354 -0.7135  0.1837 -0.5977
16702TIP3    H271522   2.558   5.536  12.350 -0.3469  0.2290  2.2285
16703TIP3   OH271523   4.331   0.613  13.204 -0.2926 -0.2009 -0.2566
16703TIP3    H171524   4.403   0.614  13.267 -0.0498  0.5920 -0.5288
16703TIP3    H271525   4.354   0.545  13.141  0.4389  0.3256 -0.5746
16704TIP3   OH271526   1.713   4.620  16.649  0.1389  0.3917 -0.2201
16704TIP3    H171527   1.703   4.711  16.677 -0.6709 -0.7375  3.7127
16704TIP3    H271528   1.803   4.597  16.674  0.0752 -0.1251 -0.4591
16705TIP3   OH271529   3.042   1.674  13.748  0.4573 -0.4233 -0.7994
16705TIP3    H171530   3.011   1.650  13.835 -0.2168 -2.6983 -1.5972
16705TIP3    H271531   3.118   1.729  13.764 -0.8742  0.9618  1.2022
16706TIP3   OH271532   0.663   2.146   2.866  0.1627  0.2377 -0.0577
16706TIP3    H171533   0.758   2.132   2.867  0.5200  2.2801 -0.7663
16706TIP3    H271534   0.627   2.064   2.900  2.1899 -0.3965  0.7559
16707TIP3   OH271535   4.661   0.795   3.688  0.0339  0.6819  0.3234
16707TIP3    H171536   4.655   0.716   3.742  0.1895  0.2894 -0.2253
16707TIP3    H271537   4.664   0.762   3.598 -2.0188  1.3799 -0.0460
16708TIP3   OH271538   3.843   3.687   2.974  0.8235  0.0159 -0.0038
16708TIP3    H171539   3.800   3.769   2.998  1.5413  0.4271 -0.0826
16708TIP3    H271540   3.805   3.664   2.889 -0.2944 -0.4068  0.5959
16709TIP3   OH271541   2.428   6.723  11.568 -0.2838  0.3967 -0.0220
16709TIP3    H171542   2.394   6.811  11.586 -2.8586 -1.0121  3.0447
16709TIP3    H271543   2.391   6.699  11.484 -0.7752  1.6812 -0.1884
16710TIP3   OH271544   1.518   2.168  14.210 -0.6181  0.3561 -0.6110
16710TIP3    H171545   1.472   2.186  14.127 -1.7428  1.3967  0.2112
16710TIP3    H271546   1.448   2.158  14.274  0.2881  0.8612  0.4804
16711TIP3   OH271547   6.394   6.264   4.260 -0.1579  0.3439  0.0140
16711TIP3    H171548   6.386   6.248   4.166 -1.4637 -0.6575  0.2586
16711TIP3    H271549   6.349   6.348   4.274 -0.9773 -0.0611 -0.1191
16712TIP3   OH271550   4.410   0.536  14.231 -0.3064 -0.5579  0.1872
16712TIP3    H171551   4.505   0.550  14.237 -0.4293  0.4903 -0.0817
16712TIP3    H271552   4.372   0.615  14.270 -1.0756 -1.1211  0.5921
16713TIP3   OH271553   6.226   6.374   2.398  0.5851  0.8440 -0.7433
16713TIP3    H171554   6.291   6.367   2.468 -0.1612  2.0287  0.0977
16713TIP3    H271555   6.173   6.294   2.408  1.1770  0.4518 -0.6809
16714TIP3   OH271556   6.773   3.892  13.618  0.4316 -0.0135  0.2954
16714TIP3    H171557   6.758   3.910  13.525 -0.8389 -0.7772  0.3324
16714TIP3    H271558   6.865   3.864  13.622  0.8864  1.2978 -0.5173
16715TIP3   OH271559   0.373   0.257  16.448 -0.0028 -0.4765  0.4129
16715TIP3    H171560   0.347   0.171  16.415 -2.1347 -0.2664  1.3737
16715TIP3    H271561   0.462   0.270  16.415  0.2095 -2.8556 -0.0993
16716TIP3   OH271562   0.917   4.944   2.833 -0.2416 -0.4828 -0.4810
16716TIP3    H171563   0.852   4.886   2.793 -0.3722 -0.1633 -0.7453
16716TIP3    H271564   0.981   4.960   2.763 -0.3761 -0.0597 -0.5102
16717TIP3   OH271565   1.800   2.915   5.815  0.5815 -0.1387  0.3049
16717TIP3    H171566   1.755   2.966   5.748 -0.8710 -0.7540  0.7737
16717TIP3    H271567   1.794   2.970   5.894  1.6681  0.2767  0.1044
16718TIP3   OH271568   3.006   2.349  12.318 -0.4559  0.8004 -0.0828
16718TIP3    H171569   3.068   2.403  12.367  0.9888  0.1740 -1.1116
16718TIP3    H271570   2.943   2.320  12.383  1.7873 -0.5915  1.6442
16719TIP3   OH271571   0.875   5.497  12.373  0.3948  0.0388  0.3108
16719TIP3    H171572   0.808   5.565  12.364 -0.4901 -1.0328 -2.1499
16719TIP3    H271573   0.850   5.450  12.453 -0.5362  0.9624  0.5866
16720TIP3   OH271574   0.648   4.833  12.341 -0.7822 -0.1666  0.5211
16720TIP3    H171575   0.605   4.775  12.403 -0.8181  1.0758  1.7054
16720TIP3    H271576   0.578   4.887  12.304 -0.5013  0.5648  1.0307
16721TIP3   OH271577   4.482   0.284   1.600  0.2778 -0.5917  0.0324
16721TIP3    H171578   4.513   0.348   1.664  3.0002 -0.0096 -1.6647
16721TIP3    H271579   4.560   0.262   1.549 -1.5869 -1.5289 -2.6407
16722TIP3   OH271580   0.000   0.547  11.490 -0.0846 -0.3312  0.1415
16722TIP3    H171581  -0.006   0.613  11.560 -0.3107  0.5115 -0.6451
16722TIP3    H271582   0.002   0.599  11.410  0.7448 -1.2600 -0.4542
16723TIP3   OH271583   1.166   5.012  13.409  0.2351 -0.0447  0.1312
16723TIP3    H171584   1.181   5.027  13.316  2.6602 -0.7418  0.3331
16723TIP3    H271585   1.080   4.969  13.414  0.1220 -0.0949 -1.7805
16724TIP3   OH271586   2.719   3.334  11.686  0.0511  0.4177 -0.0391
16724TIP3    H171587   2.696   3.410  11.632 -1.8319  0.1320  0.2665
16724TIP3    H271588   2.668   3.262  11.649  2.4885 -0.9687 -0.8795
16725TIP3   OH271589   3.166   6.681   3.459 -0.0457  0.0613 -0.3425
16725TIP3    H171590   3.121   6.630   3.392 -0.8701  0.5346 -0.1597
16725TIP3    H271591   3.167   6.770   3.424  3.2576 -0.3356 -1.6672
16726TIP3   OH271592   2.892   1.734  13.976  0.1347  0.0181 -0.0726
16726TIP3    H171593   2.889   1.643  14.004 -1.3134 -0.7141 -2.3481
16726TIP3    H271594   2.806   1.769  13.999 -0.2415  0.0478 -1.4388
16727TIP3   OH271595   3.408   6.251  13.707 -0.4023 -0.5917 -0.0712
16727TIP3    H171596   3.347   6.325  13.713 -0.3956 -0.5158 -0.7959
16727TIP3    H271597   3.477   6.282  13.648 -0.5760 -1.2922 -0.6553
16728TIP3   OH271598   3.834   0.531   4.479  0.1443  0.1544  0.0477
16728TIP3    H171599   3.859   0.488   4.397  1.7161 -1.6178  1.3763
16728TIP3    H271600   3.747   0.496   4.499 -1.0219  1.8666 -1.6139
16729TIP3   OH271601   0.162   1.142  13.103  0.2174 -0.4590 -0.0495
16729TIP3    H171602   0.148   1.175  13.192  0.5699 -0.1762 -0.0956
16729TIP3    H271603   0.200   1.055  13.115  0.5305 -0.3044  0.0753
16730TIP3   OH271604   1.341   2.578   5.988 -0.1564  0.2294 -1.0783
16730TIP3    H171605   1.388   2.632   5.924 -2.2617 -0.4426 -3.3059
16730TIP3    H271606   1.333   2.635   6.065  1.2988  1.5500 -1.8247
16731TIP3   OH271607   1.029   2.478  11.166 -0.2798  0.1068  0.1598
16731TIP3    H171608   0.989   2.534  11.233  0.3541  1.6026 -0.6512
16731TIP3    H271609   1.054   2.398  11.213 -2.4878 -0.1187  1.0609
16732TIP3   OH271610   1.667   2.453   4.783  0.1372  0.2982  0.3372
16732TIP3    H171611   1.716   2.507   4.721 -1.4080  0.8552 -0.4653
16732TIP3    H271612   1.651   2.511   4.858  3.5938 -0.9111  2.2365
16733TIP3   OH271613   6.584   4.101   1.919  0.2506  0.3526 -0.1382
16733TIP3    H171614   6.599   4.018   1.874 -0.2641  1.2233 -2.0308
16733TIP3    H271615   6.623   4.089   2.005 -0.8985 -2.2796  0.1183
16734TIP3   OH271616   1.240   2.581  16.369 -0.5576 -0.2115  0.0742
16734TIP3    H171617   1.213   2.669  16.396 -0.3875 -0.2497  0.3685
16734TIP3    H271618   1.332   2.576  16.393 -0.9585 -1.0453  1.5689
16735TIP3   OH271619   4.895   2.135   2.133 -0.4274 -0.0118 -0.0115
16735TIP3    H171620   4.972   2.118   2.079 -0.3952  0.9820 -0.3009
16735TIP3    H271621   4.835   2.181   2.075 -0.7979  0.1883  0.5220
16736TIP3   OH271622   6.619   0.007   0.923  0.1318 -0.2986  0.1323
16736TIP3    H171623   6.610   0.101   0.905  0.2764 -0.3296 -0.1100
16736TIP3    H271624   6.546  -0.013   0.981  0.3409  0.0479  0.5211
16737TIP3   OH271625   1.003   5.522  16.942  0.2972 -0.2878  0.6452
16737TIP3    H171626   0.992   5.428  16.952  1.0820 -0.4403  0.2019
16737TIP3    H271627   1.098   5.534  16.937  0.1592  0.3197 -1.1191
16738TIP3   OH271628   5.029   4.650  11.228 -0.3317 -0.0272 -0.0516
16738TIP3    H171629   4.998   4.563  11.202  0.1419 -0.0282 -0.6281
16738TIP3    H271630   4.956   4.709  11.208 -1.5430 -0.5584  2.3939
16739TIP3   OH271631   3.090   0.543  13.244 -0.1655  0.0099 -0.5168
16739TIP3    H171632   3.156   0.607  13.217 -0.5298  0.5961 -0.0352
16739TIP3    H271633   3.085   0.552  13.340 -0.9228 -0.0508 -0.5454
16740TIP3   OH271634   2.926   6.715  10.797 -0.4129  0.2244 -0.1381
16740TIP3    H171635   2.951   6.755  10.713 -0.7970 -0.1946 -0.4553
16740TIP3    H271636   2.890   6.630  10.773  1.5576 -0.8701  0.6138
16741TIP3   OH271637   0.907   1.836   4.109 -0.1190  0.1433 -0.0315
16741TIP3    H171638   0.882   1.882   4.189 -0.5826 -1.6114  0.8819
16741TIP3    H271639   0.996   1.866   4.091 -0.0313  0.6161  1.1269
16742TIP3   OH271640   6.071   1.972   0.289 -0.2045  0.2222 -0.1270
16742TIP3    H171641   6.025   1.894   0.257  0.2657 -0.1531  0.1031
16742TIP3    H271642   6.001   2.032   0.315 -0.6013 -1.1458  2.1986
16743TIP3   OH271643   1.247   0.455   4.207 -0.0696 -0.5827 -0.1975
16743TIP3    H171644   1.341   0.462   4.189 -0.0334 -0.8947 -0.1259
16743TIP3    H271645   1.218   0.380   4.155 -0.3181 -0.3723 -0.3680
16744TIP3   OH271646   1.147   4.369   0.565  1.2732  0.1235  0.1711
16744TIP3    H171647   1.142   4.426   0.642  0.4556  0.2211  0.0541
16744TIP3    H271648   1.098   4.416   0.497 -0.5396 -1.2564  0.4286
16745TIP3   OH271649   2.848   0.488  12.289 -0.4362  0.2626  0.2317
16745TIP3    H171650   2.876   0.516  12.201  2.4986 -0.7415  0.7410
16745TIP3    H271651   2.801   0.406  12.274 -2.2699  1.3760 -0.5495
16746TIP3   OH271652   3.280   6.781  15.206 -0.1253  0.0521  0.1240
16746TIP3    H171653   3.189   6.800  15.182 -0.0123  1.4059  0.6458
16746TIP3    H271654   3.273   6.721  15.280 -0.6018  0.0468  0.0799
16747TIP3   OH271655   2.448   4.998   1.384  0.3323  0.1743  0.2532
16747TIP3    H171656   2.410   5.010   1.297  0.1806 -1.0174  0.1318
16747TIP3    H271657   2.389   4.936   1.428 -0.1721  1.5629  1.6006
16748TIP3   OH271658   5.460   3.009  13.663 -0.1290 -0.1938 -0.1217
16748TIP3    H171659   5.395   2.978  13.600 -0.5332 -0.6083  0.4904
16748TIP3    H271660   5.534   2.950  13.652 -1.4437 -2.4730  2.0808
16749TIP3   OH271661   0.723   5.029  11.530  0.4518  0.0874  0.4844
16749TIP3    H171662   0.772   5.091  11.476  0.0882 -1.5275 -1.8282
16749TIP3    H271663   0.783   4.956  11.545  0.2483  0.1182  1.5763
16750TIP3   OH271664   0.364   5.448  12.335  0.0940 -0.0214  0.2970
16750TIP3    H171665   0.418   5.440  12.414 -0.3971 -0.6158  0.5823
16750TIP3    H271666   0.303   5.375  12.340  0.1546 -0.1669 -0.7195
16751TIP3   OH271667   2.903   3.797  11.718 -0.5905 -0.2876 -0.2615
16751TIP3    H171668   2.862   3.830  11.638 -2.2623  0.9600  1.0445
16751TIP3    H271669   2.963   3.866  11.745  0.0089 -0.7271 -0.4611
16752TIP3   OH271670   6.279   0.740   1.302 -0.7517  0.2199 -0.9695
16752TIP3    H171671   6.308   0.688   1.377  0.5068  1.2248 -0.7294
16752TIP3    H271672   6.221   0.681   1.253  1.3477 -1.7372 -1.2345
16753TIP3   OH271673   1.957   3.285   2.335  0.1826  0.1228  0.0873
16753TIP3    H171674   1.979   3.369   2.296  0.7754 -0.3535 -0.6155
16753TIP3    H271675   2.009   3.281   2.415 -0.6452  0.8742  0.6777
16754TIP3   OH271676   3.797   4.536   1.317  0.7132  0.4217  0.3108
16754TIP3    H171677   3.861   4.562   1.251  0.5487  1.1232  0.4167
16754TIP3    H271678   3.785   4.614   1.371  0.5080 -0.0062  0.8972
16755TIP3   OH271679   1.652   3.556   0.549 -0.6529  0.4032  0.0510
16755TIP3    H171680   1.743   3.547   0.578  0.2624 -1.5279 -2.8935
16755TIP3    H271681   1.633   3.650   0.556  1.3264  0.7540  1.3753
16756TIP3   OH271682   4.226   1.543  11.870 -0.7655 -1.0442  0.5375
16756TIP3    H171683   4.133   1.560  11.859 -0.3561  0.6894 -0.6249
16756TIP3    H271684   4.267   1.579  11.791  0.9157 -1.5611  1.1221
16757TIP3   OH271685   1.533   1.061   2.554  0.1306  0.0043 -0.2785
16757TIP3    H171686   1.521   1.028   2.465  1.1202  0.4474 -0.6014
16757TIP3    H271687   1.615   1.110   2.550  0.5076 -0.4669  1.0237
16758TIP3   OH271688   1.022   4.979  13.828  0.1357  0.7865 -0.3925
16758TIP3    H171689   0.988   5.036  13.759  1.8043  0.5523 -1.4872
16758TIP3    H271690   1.015   4.891  13.791 -0.1244  0.5262  0.2686
16759TIP3   OH271691   6.759   4.543  13.626  0.2348 -0.3339  0.1065
16759TIP3    H171692   6.701   4.536  13.702 -3.3173  0.3162 -2.2558
16759TIP3    H271693   6.828   4.603  13.653 -0.2861 -0.9351  3.0766
16760TIP3   OH271694   6.526   0.264  15.725 -0.1547 -0.0161  0.0267
16760TIP3    H171695   6.581   0.251  15.802 -0.0018  0.1577 -0.0526
16760TIP3    H271696   6.465   0.190  15.726 -1.8149  1.2618  1.7339
16761TIP3   OH271697   0.746   0.354  10.508  0.2267 -0.2412  0.1040
16761TIP3    H171698   0.730   0.416  10.580 -0.6931 -0.7278  0.3397
16761TIP3    H271699   0.788   0.407  10.440 -0.4696  0.6294  0.3259
16762TIP3   OH271700   2.960   3.566   3.304  0.2485  0.4604 -0.1250
16762TIP3    H171701   2.962   3.661   3.299  1.1977  0.4604  0.1970
16762TIP3    H271702   3.035   3.537   3.253  0.5102 -0.0797  0.5582
16763TIP3   OH271703   4.164   3.145  12.084  0.6112  0.1209  0.0855
16763TIP3    H171704   4.220   3.136  12.161  3.5171 -0.2554 -1.9059
16763TIP3    H271705   4.136   3.056  12.063 -2.2193  0.4576  1.9711
16764TIP3   OH271706   5.301   1.812  13.875 -0.9236 -0.5306 -0.3579
16764TIP3    H171707   5.327   1.808  13.782  0.2475 -0.0822 -0.0696
16764TIP3    H271708   5.368   1.867  13.916 -0.3944 -2.1774  1.0979
16765TIP3   OH271709   5.858   4.558  15.428  0.3506 -0.4600 -0.2455
16765TIP3    H171710   5.884   4.633  15.374  0.9207  0.4032  1.1549
16765TIP3    H271711   5.842   4.596  15.515  1.8953 -2.1307  0.8402
16766TIP3   OH271712   2.564   3.877  15.177 -0.2582 -0.3159  0.4147
16766TIP3    H171713   2.601   3.810  15.235  0.6391  1.8151  2.4564
16766TIP3    H271714   2.639   3.927  15.147 -0.9796  0.3339 -0.3415
16767TIP3   OH271715   4.918   0.400   1.653 -0.4994 -0.2865  0.0507
16767TIP3    H171716   4.880   0.428   1.736 -0.1577 -0.1707  0.1703
16767TIP3    H271717   4.957   0.479   1.616 -0.2592 -0.4302 -0.0062
16768TIP3   OH271718   6.760   5.529  12.104 -0.5882 -0.0173  0.7430
16768TIP3    H171719   6.817   5.563  12.174 -0.9166 -0.0949  1.0512
16768TIP3    H271720   6.763   5.596  12.036 -0.2899  0.0749  0.8444
16769TIP3   OH271721   4.779   1.976   3.002 -0.2216 -0.9577  0.0077
16769TIP3    H171722   4.772   1.983   3.097  0.6755 -1.4217  0.1146
16769TIP3    H271723   4.852   1.916   2.987  0.5763  0.1943 -0.9822
16770TIP3   OH271724   3.556   1.503  17.014 -0.1054 -0.2582 -0.0425
16770TIP3    H171725   3.621   1.565  17.049 -0.8998  0.7270 -0.2645
16770TIP3    H271726   3.605   1.422  17.001  0.7785  0.0770  1.0203
16771TIP3   OH271727   0.023   6.312  16.122 -0.7743  0.1312 -0.0535
16771TIP3    H171728  -0.019   6.242  16.072 -0.8598  0.7621 -0.9001
16771TIP3    H271729   0.046   6.377  16.056  1.6511 -0.2368  0.3554
16772TIP3   OH271730   1.050   5.874  13.149 -0.1981 -0.0404 -0.6538
16772TIP3    H171731   1.130   5.839  13.109  0.9743  0.8643  0.7680
16772TIP3    H271732   1.060   5.855  13.242 -1.1734  0.9684 -0.3190
16773TIP3   OH271733   1.856   1.469  12.979  0.4211  0.1607 -0.3451
16773TIP3    H171734   1.947   1.482  13.006  0.5276  0.2773 -0.7510
16773TIP3    H271735   1.819   1.557  12.974 -0.3566  0.0284  1.9384
16774TIP3   OH271736   1.148   3.197   4.929  0.0597 -0.3216  0.0003
16774TIP3    H171737   1.205   3.153   4.867  1.0426  0.7444  0.1162
16774TIP3    H271738   1.207   3.234   4.995 -0.6155  1.8147 -0.5109
16775TIP3   OH271739   4.839   5.014  10.867  0.0062  0.0720 -0.6124
16775TIP3    H171740   4.749   4.987  10.848  0.4653 -0.0312 -2.9162
16775TIP3    H271741   4.892   4.943  10.832  1.0160 -0.5986  2.0471
16776TIP3   OH271742   2.891   3.908  13.714  0.0023  0.1545  0.6900
16776TIP3    H171743   2.857   3.991  13.680 -0.0772 -0.5407 -1.0475
16776TIP3    H271744   2.836   3.841  13.672  2.5467 -0.9447 -1.1713
16777TIP3   OH271745   6.295   2.578   0.025  1.0510 -0.0560  0.0909
16777TIP3    H171746   6.220   2.534  -0.016  0.2413  0.1872  1.2622
16777TIP3    H271747   6.297   2.664  -0.015  1.9850 -0.7517 -1.4330
16778TIP3   OH271748   5.113   5.630   0.295 -0.0841  0.6461  0.2329
16778TIP3    H171749   5.117   5.723   0.273  0.9032  1.5951  3.7628
16778TIP3    H271750   5.020   5.610   0.297 -0.3204  1.5992 -0.3366
16779TIP3   OH271751   4.773   2.789   2.684 -0.4466 -0.1612 -0.4846
16779TIP3    H171752   4.818   2.871   2.662  1.6206 -1.5109 -1.5288
16779TIP3    H271753   4.843   2.726   2.699 -1.8490 -1.0292  3.6889
16780TIP3   OH271754   1.244   3.774  11.343  0.5758  0.2182  0.3507
16780TIP3    H171755   1.289   3.855  11.321  0.3007  0.5207  0.8949
16780TIP3    H271756   1.184   3.797  11.414 -1.7952  0.2397 -1.5293
16781TIP3   OH271757   2.338   0.408  13.245  0.3432 -0.5463 -0.5244
16781TIP3    H171758   2.391   0.479  13.209  1.2595 -2.4196 -3.1191
16781TIP3    H271759   2.401   0.349  13.286 -0.3219 -0.3760  0.8103
16782TIP3   OH271760   1.632   2.500   6.671  0.4335 -0.4648 -0.2018
16782TIP3    H171761   1.704   2.557   6.644  1.2306 -1.4235 -0.1951
16782TIP3    H271762   1.553   2.550   6.653  1.1036  0.6720 -0.1039
16783TIP3   OH271763   4.821   5.091   3.151  0.2919 -0.2779  0.1733
16783TIP3    H171764   4.752   5.042   3.196 -0.2586 -0.0092 -0.3769
16783TIP3    H271765   4.848   5.157   3.215 -1.4226  0.9725 -0.3425
16784TIP3   OH271766   5.944   3.207   0.414 -0.1103  0.3771 -0.7750
16784TIP3    H171767   5.896   3.288   0.397  2.2230  1.7452 -1.4177
16784TIP3    H271768   5.957   3.206   0.508  0.6713  1.3492 -0.8396
16785TIP3   OH271769   0.316   2.967  14.920 -0.2912 -0.4284 -0.0748
16785TIP3    H171770   0.269   2.968  14.837  0.7045 -0.1553 -0.6424
16785TIP3    H271771   0.398   2.922  14.901  0.3043  0.3554  0.5557
16786TIP3   OH271772   4.788   3.444   1.639  0.1582 -0.0897 -0.5329
16786TIP3    H171773   4.816   3.531   1.669 -0.7356  0.4426 -1.1760
16786TIP3    H271774   4.821   3.438   1.549  0.7098 -0.6611 -0.2990
16787TIP3   OH271775   3.316   1.078   0.964 -0.2658  0.1841  0.1620
16787TIP3    H171776   3.386   1.134   0.999  0.4463 -0.9978  0.6796
16787TIP3    H271777   3.345   1.057   0.875  0.2462 -0.6141  0.5064
16788TIP3   OH271778   3.763   2.730   1.239 -0.5153 -0.4034 -0.2819
16788TIP3    H171779   3.687   2.719   1.181 -1.1841 -0.3452  0.5542
16788TIP3    H271780   3.837   2.738   1.180 -1.2692  0.4357 -1.1562
16789TIP3   OH271781   3.873   0.552  14.870  0.0752 -1.3297 -0.0307
16789TIP3    H171782   3.891   0.620  14.935  0.3262  0.4992 -1.9002
16789TIP3    H271783   3.781   0.565  14.846 -0.8638 -3.7545  1.7969
16790TIP3   OH271784   2.048   1.315   2.482 -0.2750 -0.1308  0.0646
16790TIP3    H171785   2.091   1.357   2.408  1.2667 -0.8911  0.4910
16790TIP3    H271786   2.078   1.365   2.558 -0.1258 -0.6960  0.3756
16791TIP3   OH271787   5.041   6.421  14.298  0.2127  0.2097 -0.3094
16791TIP3    H171788   5.113   6.442  14.357  0.0618  0.6698 -0.2879
16791TIP3    H271789   5.044   6.325  14.291  0.0482  0.1205  0.6718
16792TIP3   OH271790   4.935   2.052   0.540  0.1375 -0.4096  0.1780
16792TIP3    H171791   4.868   2.008   0.591  1.5587 -0.8440  1.7548
16792TIP3    H271792   4.907   2.042   0.449 -2.7423  0.8233  0.8324
16793TIP3   OH271793   0.913   1.709   5.790 -0.2585 -0.4433  0.4685
16793TIP3    H171794   0.990   1.756   5.758  0.2283 -0.5800  1.4162
16793TIP3    H271795   0.937   1.679   5.878 -2.2583  1.7019  1.8667
16794TIP3   OH271796   6.207   5.220   1.747  0.4123 -0.7200 -0.0722
16794TIP3    H171797   6.199   5.281   1.821 -1.9544 -0.4658 -0.4596
16794TIP3    H271798   6.283   5.253   1.698  1.3864 -0.2679  1.6390
16795TIP3   OH271799   5.237   4.274   3.906 -0.3969  0.3949  0.1067
16795TIP3    H171800   5.231   4.282   4.001  1.0164 -0.7014  0.3371
16795TIP3    H271801   5.158   4.315   3.873 -0.1921  2.2012  1.6688
16796TIP3   OH271802   3.585   6.684  14.208  0.2720  0.6684  0.4925
16796TIP3    H171803   3.619   6.715  14.124 -1.4948  1.4371 -0.0035
16796TIP3    H271804   3.574   6.590  14.197 -0.7527  0.8732 -0.5022
16797TIP3   OH271805   6.087   2.136   5.344 -0.2594  0.2657  0.1074
16797TIP3    H171806   5.993   2.137   5.324 -0.1897 -0.1413 -0.2658
16797TIP3    H271807   6.110   2.043   5.340  0.1683  0.3706  0.1628
16798TIP3   OH271808   1.629   0.941   1.904 -0.2430 -0.1642  0.7780
16798TIP3    H171809   1.554   0.885   1.882 -0.8538  0.4957  1.1698
16798TIP3    H271810   1.657   0.977   1.820 -0.1337 -0.6840  0.5835
16799TIP3   OH271811   6.652   6.232   1.285  0.6610 -0.0843  0.2218
16799TIP3    H171812   6.666   6.174   1.360  2.1984 -0.2932 -0.1910
16799TIP3    H271813   6.632   6.172   1.213  2.0773 -0.1283 -0.1652
16800TIP3   OH271814   0.786   6.444  14.110  0.4076  0.1434  0.3664
16800TIP3    H171815   0.782   6.479  14.021 -2.0426 -1.2779 -0.1599
16800TIP3    H271816   0.792   6.349  14.098 -2.5968 -0.3118  1.5945
16801TIP3   OH271817   4.493   1.816  11.707  0.6146 -0.0571 -0.1110
16801TIP3    H171818   4.422   1.793  11.646  1.1920 -2.1780 -0.0781
16801TIP3    H271819   4.553   1.869  11.655  0.2085 -0.3237 -0.8663
16802TIP3   OH271820   5.226   1.715  11.248  0.4037 -0.2292 -0.7053
16802TIP3    H171821   5.169   1.729  11.323  0.2769  0.4929 -0.9313
16802TIP3    H271822   5.313   1.742  11.279  0.1536  1.1490 -1.1498
16803TIP3   OH271823   0.196   1.444  13.943  0.2934 -0.0437 -0.0690
16803TIP3    H171824   0.155   1.387  13.878 -0.4052  0.4124 -0.0432
16803TIP3    H271825   0.133   1.448  14.015  0.9782 -0.3924  0.5628
16804TIP3   OH271826   0.982   5.458   3.068 -0.0536  0.4064 -0.8914
16804TIP3    H171827   1.022   5.371   3.072 -0.5122  0.2408  1.5211
16804TIP3    H271828   1.057   5.518   3.069  0.2251  0.0724 -1.1014
16805TIP3   OH271829   0.430   0.249  10.657  0.1098 -0.1416  0.0039
16805TIP3    H171830   0.450   0.221  10.567  1.2582 -2.0442  0.7850
16805TIP3    H271831   0.340   0.221  10.670 -0.1215  0.2919 -0.6069
16806TIP3   OH271832   4.097   6.128   3.297 -0.2389 -0.1115  0.0498
16806TIP3    H171833   4.143   6.164   3.373  1.0881 -0.9037 -0.3431
16806TIP3    H271834   4.165   6.086   3.245 -1.4426 -1.5404 -0.4566
16807TIP3   OH271835   0.847   5.204   4.875 -0.6740  0.1340  0.0551
16807TIP3    H171836   0.759   5.240   4.861 -0.1241  1.3471 -0.4092
16807TIP3    H271837   0.869   5.162   4.792  0.6248  3.0718 -1.2267
16808TIP3   OH271838   3.565   0.813   4.100 -0.0392  0.3308 -0.4667
16808TIP3    H171839   3.583   0.737   4.156 -1.4799  1.0170  0.9861
16808TIP3    H271840   3.643   0.819   4.043  1.2008 -0.7615  1.0164
16809TIP3   OH271841   0.703   3.472   4.697  0.3087 -0.3528  0.6793
16809TIP3    H171842   0.747   3.400   4.652 -1.2715 -0.2495 -1.1796
16809TIP3    H271843   0.751   3.550   4.671  0.2786 -0.4480  0.3314
16810TIP3   OH271844   2.021   5.538  15.177 -0.0547 -0.5028  0.4949
16810TIP3    H171845   1.963   5.533  15.253  0.2102  2.4554  1.0209
16810TIP3    H271846   1.970   5.585  15.111  1.2576  1.0533  0.5278
16811TIP3   OH271847   3.948   5.167   0.273  0.1751  0.5067  0.2483
16811TIP3    H171848   3.930   5.096   0.334 -0.1349 -0.9253 -1.4230
16811TIP3    H271849   3.900   5.143   0.194  0.8011  2.1386 -0.6721
16812TIP3   OH271850   6.516   4.098  11.151 -0.9415 -0.3606 -0.5077
16812TIP3    H171851   6.606   4.073  11.132 -0.1956 -1.6611  3.6612
16812TIP3    H271852   6.521   4.190  11.177 -0.8869 -0.3433 -0.5802
16813TIP3   OH271853   1.145   5.592  11.593 -0.0289 -0.0401  0.2319
16813TIP3    H171854   1.066   5.646  11.591  2.2062  3.6789  1.8114
16813TIP3    H271855   1.194   5.621  11.516  1.5008  0.8131  1.4653
16814TIP3   OH271856   4.494   3.602   1.208  0.2302  0.6628  0.4168
16814TIP3    H171857   4.467   3.566   1.293  1.7469 -0.2109  0.5741
16814TIP3    H271858   4.485   3.528   1.147  1.3774  0.5922  0.3110
16815TIP3   OH271859   2.716   4.957  15.602 -0.1171 -0.5474  0.6238
16815TIP3    H171860   2.719   4.970  15.696 -0.5391  0.7025  0.4877
16815TIP3    H271861   2.808   4.946  15.576  0.1700  0.9230  0.9628
16816TIP3   OH271862   6.774   2.667  15.937 -0.1005  0.2457  0.0810
16816TIP3    H171863   6.830   2.607  15.888  0.5732  0.5253  0.4941
16816TIP3    H271864   6.770   2.630  16.025  2.3681  2.0547  1.0627
16817TIP3   OH271865   0.044   2.584   0.124  0.0681 -0.4249  0.0056
16817TIP3    H171866   0.074   2.590   0.034  2.1303  1.3853  0.7135
16817TIP3    H271867  -0.048   2.609   0.121  0.7247  2.1325 -1.3396
16818TIP3   OH271868   1.871   0.067  17.117 -0.3819 -0.7235  0.1808
16818TIP3    H171869   1.850   0.027  17.033  1.6070  0.8533 -1.1628
16818TIP3    H271870   1.912  -0.004  17.167 -1.4607 -1.6448 -0.1991
16819TIP3   OH271871   1.746   4.448  11.203 -0.5558 -0.2168  0.2276
16819TIP3    H171872   1.802   4.423  11.277  1.0233  2.0613 -0.0937
16819TIP3    H271873   1.680   4.379  11.200  0.5817 -1.5589  2.3918
16820TIP3   OH271874   5.021   3.012  12.909 -0.1621  0.1996 -0.4836
16820TIP3    H171875   5.003   3.062  12.830  0.9431 -2.0641 -2.2763
16820TIP3    H271876   5.117   3.008  12.914 -0.2116  0.0556  0.8149
16821TIP3   OH271877   4.160   5.402   2.602 -0.1433  0.1986 -0.0221
16821TIP3    H171878   4.244   5.358   2.614 -0.2170  0.2054  0.5594
16821TIP3    H271879   4.133   5.378   2.514 -0.0164 -0.6351  0.1566
16822TIP3   OH271880   1.890   1.186  14.644 -0.1453  0.0563 -0.9211
16822TIP3    H171881   1.975   1.203  14.684 -0.6338 -1.3883  0.9061
16822TIP3    H271882   1.877   1.258  14.582  1.7952  1.0381 -0.2586
16823TIP3   OH271883   4.116   0.901  16.037 -0.5579  0.3074 -0.4287
16823TIP3    H171884   4.061   0.977  16.060 -1.5106 -0.2884 -0.6991
16823TIP3    H271885   4.054   0.836  16.004  0.5549  0.5307 -3.2478
16824TIP3   OH271886   1.487   5.843  14.097 -0.2426 -0.0094  0.2039
16824TIP3    H171887   1.451   5.755  14.108  0.3706 -0.0814  2.0850
16824TIP3    H271888   1.498   5.853  14.003 -1.7285 -1.3661 -0.1579
16825TIP3   OH271889   0.902   3.201   1.485 -0.0394 -0.0570 -0.4745
16825TIP3    H171890   0.921   3.107   1.484 -1.3988 -0.3501 -0.4742
16825TIP3    H271891   0.838   3.212   1.555 -0.9679  0.6361 -1.4028
16826TIP3   OH271892   6.520   0.689   2.169 -0.1623  0.3594  0.2175
16826TIP3    H171893   6.572   0.742   2.109  1.7470 -0.9411  0.6434
16826TIP3    H271894   6.576   0.615   2.191 -2.0013 -0.8374  1.1630
16827TIP3   OH271895   1.844   0.973  16.334  0.0960 -0.2367 -0.0640
16827TIP3    H171896   1.896   0.940  16.261 -1.3528 -0.3906 -1.0906
16827TIP3    H271897   1.869   1.065  16.343  0.9044 -0.4409 -0.1835
16828TIP3   OH271898   5.716   3.412   3.196  0.1725  0.1017 -0.2918
16828TIP3    H171899   5.803   3.414   3.235 -0.1468 -1.2725  0.5559
16828TIP3    H271900   5.694   3.504   3.182  0.1415  0.7346  3.1483
16829TIP3   OH271901   5.867   3.230  12.362  0.2039  0.3693  0.1278
16829TIP3    H171902   5.871   3.162  12.429 -0.0694  0.8508  0.6420
16829TIP3    H271903   5.943   3.213  12.306 -0.9394 -1.5542 -0.9286
16830TIP3   OH271904   2.784   3.866   6.268 -0.1721 -0.2685  0.3480
16830TIP3    H171905   2.865   3.916   6.276 -1.6093  2.3586 -0.5697
16830TIP3    H271906   2.805   3.797   6.204  1.3823  0.2050  0.3064
16831TIP3   OH271907   2.688   0.253   5.704 -0.7083  0.1057  0.2686
16831TIP3    H171908   2.629   0.304   5.649 -3.6489 -2.7970  0.4318
16831TIP3    H271909   2.683   0.293   5.790 -0.1086  1.5922 -0.3505
16832TIP3   OH271910   2.831   3.240   3.035 -0.1275 -0.6974 -0.3735
16832TIP3    H171911   2.828   3.229   2.939 -0.5159  1.1150 -0.6035
16832TIP3    H271912   2.756   3.296   3.055  1.0674  0.5855  0.7390
16833TIP3   OH271913   0.782   5.635  10.890 -0.4743 -0.6241 -0.2622
16833TIP3    H171914   0.865   5.680  10.901 -0.7476 -0.3212  0.6874
16833TIP3    H271915   0.732   5.690  10.829 -0.7524  0.3206  0.7769
16834TIP3   OH271916   6.433   1.980  14.008 -0.3914 -0.6802  0.2668
16834TIP3    H171917   6.398   2.018  14.089 -0.4702  0.1438 -0.1483
16834TIP3    H271918   6.359   1.979  13.948  0.3247  1.3355 -0.7110
16835TIP3   OH271919   1.773   3.753  14.148 -0.2255 -0.0412  0.1562
16835TIP3    H171920   1.756   3.713  14.063 -0.3887 -1.5056  0.8431
16835TIP3    H271921   1.834   3.693  14.191  1.3665  1.6423  0.3634
16836TIP3   OH271922   3.647   3.406   4.936 -0.0789 -0.0385  0.8038
16836TIP3    H171923   3.740   3.426   4.929 -0.2203  0.0006 -2.8366
16836TIP3    H271924   3.606   3.489   4.956  0.4874  0.5018 -0.2044
16837TIP3   OH271925   6.520   2.396  11.821  0.4258 -0.4398  0.4971
16837TIP3    H171926   6.450   2.419  11.760 -0.3282  0.2950  1.6032
16837TIP3    H271927   6.536   2.303  11.805 -1.9274 -1.0588  1.2807
16838TIP3   OH271928   1.387   1.952  14.083 -0.7670  0.0502  0.1974
16838TIP3    H171929   1.479   1.977  14.073 -0.4148 -0.6302  1.4686
16838TIP3    H271930   1.386   1.894  14.160 -2.2180 -0.1680  0.0460
16839TIP3   OH271931   5.091   5.248   3.091 -0.0616  0.7487 -0.2563
16839TIP3    H171932   5.036   5.263   3.167 -1.8112 -0.8698 -1.0952
16839TIP3    H271933   5.164   5.196   3.123 -0.9918 -0.2656  0.3043
16840TIP3   OH271934   4.422   2.695   2.876  0.4626 -0.3358  0.6361
16840TIP3    H171935   4.429   2.649   2.793 -2.0257 -0.7231  0.5418
16840TIP3    H271936   4.441   2.786   2.855  0.8468 -0.5914 -0.1543
16841TIP3   OH271937   2.245   6.743   2.619 -0.1912 -0.9173  0.4717
16841TIP3    H171938   2.339   6.756   2.631 -0.0508 -0.8425 -0.6527
16841TIP3    H271939   2.236   6.651   2.596 -0.4482 -1.0329  1.0050
16842TIP3   OH271940   1.359   1.884  12.021  0.5728  0.0980 -0.4879
16842TIP3    H171941   1.370   1.918  12.110 -1.0922  0.0855 -0.2336
16842TIP3    H271942   1.447   1.885  11.984  1.1559  1.0483  0.8169
16843TIP3   OH271943   1.414   4.348   4.490  0.0759  0.0444  1.2118
16843TIP3    H171944   1.488   4.409   4.483  0.7455 -0.1649  4.6440
16843TIP3    H271945   1.454   4.263   4.504 -0.8683 -0.7250 -0.5292
16844TIP3   OH271946   4.010   0.707   2.438 -0.2285  0.5726  0.0286
16844TIP3    H171947   3.928   0.659   2.452 -0.8093  1.1854 -1.1618
16844TIP3    H271948   4.070   0.640   2.405  0.2089 -0.1818  2.1630
16845TIP3   OH271949   2.038   3.501  10.681  0.7298 -0.4521 -0.3200
16845TIP3    H171950   2.008   3.439  10.615 -0.6218 -0.4922  0.2999
16845TIP3    H271951   2.132   3.510  10.665  0.8651 -2.2568 -0.7575
16846TIP3   OH271952   1.350   5.155  15.615 -0.4667 -0.6594 -0.5677
16846TIP3    H171953   1.307   5.142  15.530  2.0580  1.1268 -2.2492
16846TIP3    H271954   1.423   5.094  15.614  0.0921 -0.0035 -0.0741
16847TIP3   OH271955   1.592   6.375   1.238 -0.6021  0.5326 -0.2265
16847TIP3    H171956   1.513   6.407   1.194  0.3741  0.0135 -2.4998
16847TIP3    H271957   1.663   6.430   1.206  0.1126  0.5075  1.2001
16848TIP3   OH271958   3.967   3.376  15.482  0.2572  0.3170 -0.0081
16848TIP3    H171959   4.051   3.342  15.453  0.1360 -2.3999  2.3810
16848TIP3    H271960   3.909   3.300  15.482 -1.2333  1.3712  1.6263
16849TIP3   OH271961   6.070   0.668  12.612 -0.2495 -0.7697  0.0414
16849TIP3    H171962   6.108   0.590  12.653  0.9991 -1.7238 -2.6857
16849TIP3    H271963   6.145   0.713  12.572 -1.4381 -0.5169 -2.0564
16850TIP3   OH271964   4.674   1.750  11.958 -0.1300  0.6547  1.0418
16850TIP3    H171965   4.757   1.721  11.921 -0.4171 -1.1653  1.7193
16850TIP3    H271966   4.612   1.746  11.885 -0.0231  0.1948  0.9760
16851TIP3   OH271967   0.118   0.887  12.514  0.1960 -0.1237  0.3257
16851TIP3    H171968   0.159   0.954  12.569  1.5886  0.2167 -1.0441
16851TIP3    H271969   0.179   0.813  12.515 -0.2362 -0.4952  0.0377
16852TIP3   OH271970   6.081   3.086  14.044  0.1786  0.2285  0.3264
16852TIP3    H171971   6.165   3.090  13.998  0.6942  0.7183  1.2629
16852TIP3    H271972   6.069   2.994  14.066  0.1064  0.0488 -0.4539
16853TIP3   OH271973   3.348   5.978  16.127 -0.5006  0.1761  0.2173
16853TIP3    H171974   3.286   5.924  16.176 -0.6504 -0.4050 -0.5730
16853TIP3    H271975   3.423   5.989  16.186 -0.4268 -0.9922  0.3809
16854TIP3   OH271976   4.511   1.856   5.133  0.1012 -0.0617 -0.0122
16854TIP3    H171977   4.576   1.816   5.191  0.9773  1.1075 -0.1391
16854TIP3    H271978   4.430   1.808   5.151  0.5571 -0.3195  1.5334
16855TIP3   OH271979   0.767   4.729   3.684  0.3209  0.0644  0.0389
16855TIP3    H171980   0.725   4.814   3.668 -0.6412 -0.1143  1.4280
16855TIP3    H271981   0.700   4.677   3.727  0.9014 -1.4330 -0.8054
16856TIP3   OH271982   0.293   4.526   2.969  0.2481 -0.7936 -0.5226
16856TIP3    H171983   0.382   4.559   2.963 -0.2015  1.3002  2.2799
16856TIP3    H271984   0.260   4.529   2.879  1.6341  2.6633 -1.0701
16857TIP3   OH271985   6.011   2.355  11.562 -0.6028  0.4025 -0.1491
16857TIP3    H171986   6.104   2.373  11.570  0.0326 -1.6338 -1.9346
16857TIP3    H271987   5.969   2.415  11.624  1.9147  0.9158  1.1889
16858TIP3   OH271988   3.734   5.068   2.888 -0.0692 -0.3349 -0.3635
16858TIP3    H171989   3.790   5.146   2.893 -1.1162  0.4155  0.2017
16858TIP3    H271990   3.650   5.097   2.925 -0.5997 -1.6322 -0.5046
16859TIP3   OH271991   4.269   1.809  15.035 -0.0998 -0.2960 -0.1149
16859TIP3    H171992   4.188   1.761  15.051  0.2791 -0.4332  1.6550
16859TIP3    H271993   4.283   1.804  14.940 -1.9251 -0.6148 -0.3878
16860TIP3   OH271994   5.966   5.439   0.599 -0.6564 -0.4246 -0.6153
16860TIP3    H171995   5.983   5.531   0.580 -0.3868 -0.3803 -0.1969
16860TIP3    H271996   5.964   5.435   0.695  0.4931 -1.0435 -0.5917
16861TIP3   OH271997   2.908   6.197   0.392  0.3054 -0.3405 -0.1741
16861TIP3    H171998   2.830   6.237   0.430 -0.9831 -1.6147 -1.3318
16861TIP3    H271999   2.940   6.262   0.329 -1.5155 -0.8598 -1.7381
16862TIP3   OH272000   2.589   0.287  13.361  0.0352 -0.0163  0.5899
16862TIP3    H172001   2.634   0.299  13.445  1.0363  0.0880  0.0644
16862TIP3    H272002   2.637   0.345  13.301  0.4522 -1.3627 -0.4337
16863TIP3   OH272003   2.936   4.145  16.793  0.4463  0.0310 -0.4931
16863TIP3    H172004   2.878   4.163  16.867  0.6680 -1.5251  0.1010
16863TIP3    H272005   2.917   4.055  16.769  1.5780 -0.0277 -1.2460
16864TIP3   OH272006   1.026   3.389  15.331  0.4017  0.7915  0.1219
16864TIP3    H172007   0.931   3.388  15.346  0.4733  0.5178  0.5611
16864TIP3    H272008   1.057   3.467  15.377  0.5318  0.3026  0.8811
16865TIP3   OH272009   3.921   0.662  11.871 -0.1512  0.7099 -0.0485
16865TIP3    H172010   3.835   0.666  11.829 -0.1158  0.9685 -0.1018
16865TIP3    H272011   3.962   0.584  11.836 -0.3189  0.6520 -0.1147
16866TIP3   OH272012   4.004   0.456   5.377  0.4135 -0.5669  0.0962
16866TIP3    H172013   4.099   0.448   5.387  0.5753 -0.0886 -0.8941
16866TIP3    H272014   3.973   0.366   5.375  1.3550 -1.0037 -3.6415
16867TIP3   OH272015   0.707   5.679  12.263  0.0243  0.5107  0.0928
16867TIP3    H172016   0.706   5.746  12.195 -0.7762  0.1276 -0.2941
16867TIP3    H272017   0.772   5.709  12.327 -0.1283  1.5059 -0.2120
16868TIP3   OH272018   2.202   2.548  15.432 -0.5489 -0.3285  0.4901
16868TIP3    H172019   2.289   2.585  15.446 -0.4986 -0.4499  0.4986
16868TIP3    H272020   2.160   2.609  15.371 -0.3541 -0.4246  0.2545
16869TIP3   OH272021   3.021   5.082  13.773 -0.2385  0.1736 -0.1919
16869TIP3    H172022   2.997   5.013  13.835 -2.4111 -0.6303 -1.8250
16869TIP3    H272023   2.943   5.136  13.765  0.2319  0.6970 -1.6319
16870TIP3   OH272024   0.377   1.153  16.573  0.4026  0.4517 -0.4713
16870TIP3    H172025   0.418   1.203  16.503 -0.2307  1.4919 -0.1265
16870TIP3    H272026   0.440   1.157  16.645 -0.5293  2.6657  0.3107
16871TIP3   OH272027   2.875   0.708   0.853  0.2959 -0.6823 -0.5563
16871TIP3    H172028   2.829   0.791   0.867 -1.3119 -1.6615  0.2709
16871TIP3    H272029   2.926   0.722   0.774  0.2967  1.1967 -0.2682
16872TIP3   OH272030   1.448   6.312   6.486  0.0974 -0.4958  0.1453
16872TIP3    H172031   1.528   6.361   6.467 -0.8269  0.3946 -1.6574
16872TIP3    H272032   1.472   6.220   6.473  0.5509 -0.1640 -1.5921
16873TIP3   OH272033   3.853   3.027  10.696 -0.4951 -0.4737 -0.6152
16873TIP3    H172034   3.784   2.970  10.664 -1.3984 -1.5048  2.7701
16873TIP3    H272035   3.818   3.115  10.687 -1.3155 -0.8245 -0.9419
16874TIP3   OH272036   0.638   1.121   2.399  0.0455 -0.7318 -0.5046
16874TIP3    H172037   0.682   1.196   2.439  0.1812 -1.4309  0.7141
16874TIP3    H272038   0.562   1.106   2.455 -1.2101 -0.1777 -2.0021
16875TIP3   OH272039   5.075   3.615   5.128  0.5741 -0.3536  0.4098
16875TIP3    H172040   4.993   3.565   5.128 -0.3899  1.1660  0.1881
16875TIP3    H272041   5.074   3.663   5.211 -0.3730  2.1379 -0.9482
16876TIP3   OH272042   0.591   1.153  15.608  0.2318 -0.4116  0.2810
16876TIP3    H172043   0.522   1.215  15.586  1.5421  1.2354  0.6470
16876TIP3    H272044   0.615   1.175  15.698  0.8624 -1.3369  0.3543
16877TIP3   OH272045   0.370   6.197  10.917  0.2965  0.0884  0.4451
16877TIP3    H172046   0.300   6.176  10.855  0.8755  1.0504 -0.5537
16877TIP3    H272047   0.323   6.229  10.995 -0.4094 -0.2009  0.1474
16878TIP3   OH272048   5.557   1.002  12.012  0.0081 -0.2338  0.1392
16878TIP3    H172049   5.516   1.026  11.929 -1.1231  1.7607  1.1948
16878TIP3    H272050   5.651   1.011  11.995 -0.1071 -1.3946 -1.3246
16879TIP3   OH272051   4.204   6.710  13.106  0.0717 -0.8375  0.2834
16879TIP3    H172052   4.148   6.632  13.115 -1.7970  0.2864 -0.8456
16879TIP3    H272053   4.288   6.683  13.141 -0.3253 -3.5815 -0.5839
16880TIP3   OH272054   4.138   0.469   5.134 -0.1286  0.3482  0.0515
16880TIP3    H172055   4.062   0.469   5.192 -0.1032  1.0730  0.0882
16880TIP3    H272056   4.192   0.542   5.165 -0.9068  1.8264 -1.9314
16881TIP3   OH272057   6.400   0.778   1.776  0.7528 -0.0666  0.3147
16881TIP3    H172058   6.492   0.757   1.763  0.8352  0.2197  0.4313
16881TIP3    H272059   6.400   0.859   1.827  0.4364 -0.1791  0.5006
16882TIP3   OH272060   4.330   4.851  13.346 -0.1771 -0.3220  0.2129
16882TIP3    H172061   4.281   4.857  13.427 -1.2344 -1.6708 -0.2859
16882TIP3    H272062   4.422   4.855  13.373 -0.5168 -0.1743  1.4037
16883TIP3   OH272063   1.871   5.760   1.434 -0.0795  0.4227  0.3334
16883TIP3    H172064   1.870   5.841   1.382  2.4443 -0.8182 -1.9035
16883TIP3    H272065   1.797   5.709   1.401  1.8509 -0.6345 -2.8079
16884TIP3   OH272066   0.629   4.661  14.850  0.3169  0.2990 -0.0715
16884TIP3    H172067   0.639   4.576  14.808  0.2183  0.8486 -1.2519
16884TIP3    H272068   0.652   4.724  14.782  3.3040  1.1945  1.5755
16885TIP3   OH272069   4.290   3.136  14.217 -0.5428 -0.1533 -0.0259
16885TIP3    H172070   4.276   3.224  14.182 -2.1790 -0.5484 -0.4481
16885TIP3    H272071   4.259   3.077  14.148  2.0920 -1.1838 -0.4829
16886TIP3   OH272072   2.659   1.783   2.081 -0.2479  0.1049 -0.0624
16886TIP3    H172073   2.681   1.789   1.988 -0.5747  0.0878 -0.1402
16886TIP3    H272074   2.727   1.835   2.124  0.0557 -0.1014 -0.2861
16887TIP3   OH272075   1.855   3.839   0.661  0.1480 -0.7120 -0.2977
16887TIP3    H172076   1.771   3.842   0.614  0.2701 -1.6776 -0.5923
16887TIP3    H272077   1.910   3.781   0.609  0.8089 -0.5574  0.2120
16888TIP3   OH272078   6.739   0.339   1.677 -0.3875 -0.6321 -0.4990
16888TIP3    H172079   6.726   0.286   1.598 -0.4639 -0.3458 -0.6781
16888TIP3    H272080   6.701   0.424   1.656 -0.3507 -0.5345 -0.1759
16889TIP3   OH272081   2.954   1.871  12.736 -0.2632  0.0236 -0.1813
16889TIP3    H172082   3.012   1.891  12.663  0.3597 -0.5708  0.1376
16889TIP3    H272083   2.896   1.947  12.742  0.9465  0.9766 -0.0568
16890TIP3   OH272084   6.388   0.467   3.080  0.0487  0.3206  0.3253
16890TIP3    H172085   6.385   0.563   3.074 -0.0667  0.3628  0.9821
16890TIP3    H272086   6.453   0.450   3.148  1.9368 -0.1440 -1.4913
16891TIP3   OH272087   5.951   3.032  14.984 -0.5086 -0.1607  0.7965
16891TIP3    H172088   5.976   3.027  14.892 -2.2582  2.1987  0.0830
16891TIP3    H272089   6.034   3.028  15.032  0.4635 -1.1163 -0.8664
16892TIP3   OH272090   4.025   1.276   1.713  0.4043  0.4105  0.3469
16892TIP3    H172091   3.965   1.225   1.659 -0.8258  2.4461 -0.3304
16892TIP3    H272092   4.075   1.328   1.650  1.6725  0.0117  1.0060
16893TIP3   OH272093   1.022   3.140  14.964  0.5407 -0.0365  0.1315
16893TIP3    H172094   1.037   3.234  14.964 -0.5503  0.1608  0.3189
16893TIP3    H272095   1.067   3.108  14.886  0.6909  0.6856 -0.0857
16894TIP3   OH272096   3.241   3.595  14.529  0.0840  0.1331  0.0334
16894TIP3    H172097   3.146   3.611  14.530 -0.0586  0.0975 -3.0676
16894TIP3    H272098   3.254   3.526  14.594 -2.1559 -0.5480 -0.1554
16895TIP3   OH272099   6.278   3.690   3.600 -0.3888 -0.6495  0.3554
16895TIP3    H172100   6.351   3.747   3.579 -2.5375  3.1728  2.0827
16895TIP3    H272101   6.285   3.617   3.539  0.7618  3.1020 -4.6562
16896TIP3   OH272102   3.088   1.048  15.904 -0.2359 -0.3100  0.7274
16896TIP3    H172103   3.083   1.091  15.989  0.5292  1.0989  0.0890
16896TIP3    H272104   3.180   1.054  15.879 -0.5683 -0.0529 -0.5155
16897TIP3   OH272105   3.467   1.962  14.365 -0.3611 -0.2604  0.4873
16897TIP3    H172106   3.376   1.991  14.358 -0.2755  0.0815  0.7941
16897TIP3    H272107   3.485   1.958  14.459  0.5495  1.6358  0.4349
16898TIP3   OH272108   6.259   5.351  10.988  0.1975 -0.5247  0.1321
16898TIP3    H172109   6.255   5.280  10.924  1.0719 -0.8512  0.4229
16898TIP3    H272110   6.169   5.358  11.021  0.0237 -1.2624 -0.1573
16899TIP3   OH272111   6.268   4.136   1.627  0.2566 -0.2221 -0.3674
16899TIP3    H172112   6.261   4.113   1.720  1.8100 -0.1721 -0.2122
16899TIP3    H272113   6.351   4.098   1.599 -0.7765 -1.3345 -2.0835
16900TIP3   OH272114   3.678   5.039   1.567 -0.0389 -0.4652 -0.2048
16900TIP3    H172115   3.715   4.954   1.591  1.4542 -0.1216 -1.1311
16900TIP3    H272116   3.638   5.024   1.481  1.3494  0.0367 -0.9579
16901TIP3   OH272117   1.787   6.341   0.655 -0.8486 -0.0439  0.1516
16901TIP3    H172118   1.749   6.257   0.629  0.3879 -0.1270 -1.5504
16901TIP3    H272119   1.882   6.329   0.643 -0.5871  1.3582  0.6368
16902TIP3   OH272120   0.163   3.219  11.419 -0.0175  0.0670 -0.4573
16902TIP3    H172121   0.105   3.238  11.345 -0.8271  0.0083  0.1454
16902TIP3    H272122   0.244   3.266  11.399 -0.6840  1.1140 -0.7678
16903TIP3   OH272123   5.738   2.870   2.021 -0.0982  0.5768  0.2685
16903TIP3    H172124   5.723   2.945   2.079 -0.3838  0.7872 -0.0746
16903TIP3    H272125   5.822   2.834   2.050 -0.1003  0.8559  0.6254
16904TIP3   OH272126   3.172   0.912  13.001 -0.0719 -0.0468 -0.9274
16904TIP3    H172127   3.236   0.965  12.953 -1.9821  1.8313 -1.5805
16904TIP3    H272128   3.191   0.930  13.093 -0.4643  1.6015 -1.1326
16905TIP3   OH272129   6.746   1.270   2.090 -0.4811  0.4536 -0.2723
16905TIP3    H172130   6.758   1.285   2.184 -0.3700 -0.1598 -0.1833
16905TIP3    H272131   6.662   1.310   2.069 -0.3751  0.8386  0.0299
16906TIP3   OH272132   6.482   6.659   5.519 -0.4799  0.4311 -0.2733
16906TIP3    H172133   6.571   6.679   5.491 -0.3288  0.2432  0.0593
16906TIP3    H272134   6.461   6.727   5.583 -0.3282  0.1078  0.1313
16907TIP3   OH272135   5.151   3.131   1.214  0.6047 -0.2547  0.4523
16907TIP3    H172136   5.062   3.159   1.193  0.4881  0.3003  1.5504
16907TIP3    H272137   5.188   3.101   1.132 -1.3904 -2.8104  0.3914
16908TIP3   OH272138   0.205   6.152  10.692 -0.1083 -0.4247 -0.2295
16908TIP3    H172139   0.135   6.088  10.689 -0.9446  0.4549  0.0633
16908TIP3    H272140   0.202   6.195  10.607  0.0876 -0.3835 -0.2179
16909TIP3   OH272141   1.252   4.255  13.478  0.0662 -0.1004  0.1246
16909TIP3    H172142   1.199   4.222  13.405  0.5327 -2.4230  0.7498
16909TIP3    H272143   1.277   4.176  13.526  2.0515  1.1440  1.2391
16910TIP3   OH272144   6.079   2.404   4.561  0.2123 -0.4538  0.0710
16910TIP3    H172145   6.012   2.393   4.629  0.9399 -1.3769  0.6581
16910TIP3    H272146   6.049   2.480   4.511 -0.5937 -0.0496  1.1163
16911TIP3   OH272147   6.725   1.531  13.746  0.3759 -0.1923  0.1582
16911TIP3    H172148   6.637   1.498  13.731  0.7016 -0.1515 -2.2584
16911TIP3    H272149   6.771   1.459  13.789 -1.0773  0.2075  2.5694
16912TIP3   OH272150   5.307   0.958  16.115 -0.1170 -0.0102  0.3208
16912TIP3    H172151   5.239   1.016  16.081  1.5691  2.1648  0.4457
16912TIP3    H272152   5.369   0.947  16.042  1.1444  0.8944  1.2204
16913TIP3   OH272153   0.077   0.558   0.953 -0.2787 -0.3226 -0.8606
16913TIP3    H172154   0.120   0.489   0.903 -0.2094  0.1383 -1.4351
16913TIP3    H272155   0.096   0.536   1.045 -1.5633 -1.9361 -0.9494
16914TIP3   OH272156   0.888   4.577  17.018 -0.2127 -1.0625 -0.5851
16914TIP3    H172157   0.927   4.602  16.934 -1.3051  0.0065 -0.8094
16914TIP3    H272158   0.794   4.569  17.000 -0.5453 -0.3116  0.6193
16915TIP3   OH272159   4.982   1.623  14.988 -0.1622  0.4259  0.0668
16915TIP3    H172160   4.935   1.558  15.040 -0.3705  0.4180 -0.1271
16915TIP3    H272161   4.924   1.698  14.985  0.2173  0.7423  0.5587
16916TIP3   OH272162   2.590   3.610   5.740  0.3124  0.1171  0.4133
16916TIP3    H172163   2.503   3.641   5.715  0.6383 -0.4560 -1.6073
16916TIP3    H272164   2.641   3.690   5.755 -0.6371  0.4554  2.0940
16917TIP3   OH272165   3.295   4.962   3.037 -0.3436 -0.0244 -0.0879
16917TIP3    H172166   3.319   4.969   3.130  0.8640  1.7660 -0.4847
16917TIP3    H272167   3.203   4.935   3.038 -0.9315  1.8081  1.6936
16918TIP3   OH272168   0.877   5.362  12.119 -0.0405  0.0830  0.5339
16918TIP3    H172169   0.892   5.406  12.202  2.0579  0.0413  0.2201
16918TIP3    H272170   0.782   5.363  12.108 -0.1829  3.5589  1.0637
16919TIP3   OH272171   3.503   5.619  13.208 -0.7158 -0.5255 -0.2824
16919TIP3    H172172   3.542   5.542  13.248  0.7534  0.9692  1.3118
16919TIP3    H272173   3.544   5.623  13.121 -1.0929 -1.7035 -0.5426
16920TIP3   OH272174   2.220   2.091  16.282 -0.5919 -0.5848  0.0958
16920TIP3    H172175   2.219   2.145  16.203 -1.2187  0.8896  1.0561
16920TIP3    H272176   2.309   2.056  16.286  0.0063  0.8062 -0.3112
16921TIP3   OH272177   0.899   1.600  12.196 -0.4167  0.0385 -0.6768
16921TIP3    H172178   0.913   1.505  12.191  2.8172  0.1722  2.0313
16921TIP3    H272179   0.987   1.637  12.189 -1.4554  2.7706 -0.4344
16922TIP3   OH272180   1.454   0.153   4.913  0.2050  0.1302 -0.5973
16922TIP3    H172181   1.400   0.132   4.989  0.4620 -0.8053 -0.6581
16922TIP3    H272182   1.394   0.197   4.853 -0.2607 -0.0485 -0.2743
16923TIP3   OH272183   0.339   1.211  11.643  0.0115  0.4614 -0.0089
16923TIP3    H172184   0.324   1.186  11.552  0.4150 -0.0573  0.0593
16923TIP3    H272185   0.368   1.303  11.639 -1.3644  0.9052 -0.2738
16924TIP3   OH272186   5.982   1.818  13.069 -0.0156  0.0405  0.3149
16924TIP3    H172187   5.995   1.725  13.047  0.9873  0.2185  0.0737
16924TIP3    H272188   5.915   1.848  13.008  1.4909  0.0999 -1.3937
16925TIP3   OH272189   6.581   3.960   6.391 -0.5615 -0.1784  0.0958
16925TIP3    H172190   6.619   4.025   6.331 -1.4348  0.7286  0.4945
16925TIP3    H272191   6.489   3.956   6.366 -0.3587 -1.9099 -0.4651
16926TIP3   OH272192   6.267   2.489   5.479 -0.2198  0.1961 -0.4429
16926TIP3    H172193   6.258   2.399   5.446  2.2535 -0.9946  1.7629
16926TIP3    H272194   6.340   2.525   5.429 -0.2195  0.4472 -0.2613
16927TIP3   OH272195   1.407   2.974  16.685 -0.1880 -0.5595 -0.6338
16927TIP3    H172196   1.449   2.982  16.770 -1.1363 -3.2624  0.1929
16927TIP3    H272197   1.345   3.046  16.681 -0.1199 -0.3935  0.9618
16928TIP3   OH272198   0.749   3.395  15.372 -0.2735 -0.5480  0.1735
16928TIP3    H172199   0.702   3.475  15.348 -1.0506 -0.7874  0.8702
16928TIP3    H272200   0.708   3.326  15.320  0.0873 -0.5784 -0.0774
16929TIP3   OH272201   4.625   1.548   3.399  0.6383 -0.3465  0.2591
16929TIP3    H172202   4.705   1.577   3.443 -0.3258  1.8220  0.7271
16929TIP3    H272203   4.555   1.570   3.460 -0.3156 -2.7258  0.0917
16930TIP3   OH272204   3.163   1.912   1.434  0.1893  0.3260 -0.1451
16930TIP3    H172205   3.104   1.932   1.361 -0.8412  1.2737  0.9075
16930TIP3    H272206   3.107   1.914   1.512  1.1797 -1.1434  0.6372
16931TIP3   OH272207   4.315   2.204  16.665  0.0375  0.5561 -0.0724
16931TIP3    H172208   4.246   2.191  16.730  1.2415 -0.9690  0.9654
16931TIP3    H272209   4.394   2.218  16.716  0.9025 -0.0276 -1.2035
16932TIP3   OH272210   2.532   0.022   4.392  0.4410  0.2256  0.2592
16932TIP3    H172211   2.468   0.058   4.331  1.2028 -0.5437 -1.0447
16932TIP3    H272212   2.600  -0.016   4.336  0.7985 -1.1766  1.5677
16933TIP3   OH272213   5.655   6.457   5.299  0.4976 -0.1384  0.7382
16933TIP3    H172214   5.649   6.523   5.369  1.6936 -1.5204  2.2184
16933TIP3    H272215   5.747   6.433   5.297  0.5913  0.1305 -1.6561
16934TIP3   OH272216   1.732   2.556   4.011 -0.2656 -0.2874  0.0907
16934TIP3    H172217   1.710   2.484   4.070 -2.6745  1.0139  0.9100
16934TIP3    H272218   1.750   2.630   4.069 -0.2004  0.3898 -0.7685
16935TIP3   OH272219   5.669   6.777   2.921 -0.4906 -0.0448 -0.0912
16935TIP3    H172220   5.696   6.772   2.829  0.3564 -0.6340  0.1733
16935TIP3    H272221   5.720   6.849   2.958  0.3804 -0.8277  0.2846
16936TIP3   OH272222   3.050   5.445  12.184  0.6057  0.3637  0.0769
16936TIP3    H172223   2.996   5.517  12.152 -1.0568  0.1736  2.2080
16936TIP3    H272224   3.019   5.368  12.135  1.3547  0.8133 -1.1384
16937TIP3   OH272225   4.127   2.694   5.340  0.0087 -0.5050  0.4464
16937TIP3    H172226   4.044   2.702   5.292 -0.7889 -0.0278  1.8575
16937TIP3    H272227   4.191   2.669   5.273 -1.5355 -2.3437 -0.4539
16938TIP3   OH272228   6.088   6.512  12.384  0.1660 -0.1203 -0.2320
16938TIP3    H172229   6.153   6.478  12.322 -1.8139 -1.8147 -1.5016
16938TIP3    H272230   6.005   6.502  12.339 -1.0910  1.1978  1.6677
16939TIP3   OH272231   1.794   3.088  14.874  0.0704  0.0833  0.0348
16939TIP3    H172232   1.785   2.995  14.852  0.5258  0.4142 -1.6684
16939TIP3    H272233   1.865   3.120  14.819  1.4661  0.9695  2.2267
16940TIP3   OH272234   2.871   5.357  13.904 -0.4119 -0.3133  0.0483
16940TIP3    H172235   2.954   5.395  13.877  0.4683 -2.0910  0.0718
16940TIP3    H272236   2.817   5.357  13.825  1.2169 -3.0866 -1.2144
16941TIP3   OH272237   3.545   1.617   4.928  0.1774 -0.3205  0.4025
16941TIP3    H172238   3.476   1.550   4.929 -1.1337  0.9903  1.2142
16941TIP3    H272239   3.512   1.686   4.985  2.0003  0.5413  0.4688
16942TIP3   OH272240   1.203   3.311   6.034  0.2749  0.0180  0.2196
16942TIP3    H172241   1.194   3.219   6.011  0.5525 -0.3256  1.4289
16942TIP3    H272242   1.272   3.313   6.101  1.7105  1.3286 -1.1908
16943TIP3   OH272243   5.599   2.736  12.034  0.2918 -0.2522  0.5846
16943TIP3    H172244   5.681   2.739  11.985 -0.2167 -2.1369 -0.4688
16943TIP3    H272245   5.531   2.750  11.968 -0.2894  0.3388  1.2913
16944TIP3   OH272246   6.079   1.237  16.270 -0.3021 -0.1896  0.4960
16944TIP3    H172247   6.024   1.315  16.275 -0.8391 -0.5660  0.4670
16944TIP3    H272248   6.068   1.194  16.355 -1.7748 -1.4170 -0.2848
16945TIP3   OH272249   1.408   5.195   1.213  0.3311 -0.0165 -0.5460
16945TIP3    H172250   1.347   5.245   1.159  1.2734  0.6513 -1.0208
16945TIP3    H272251   1.438   5.124   1.157  1.5109  0.8294 -1.0273
16946TIP3   OH272252   6.298   1.946   0.437 -0.4547 -0.3271  0.6659
16946TIP3    H172253   6.366   1.921   0.373 -1.4157 -0.3766 -0.3702
16946TIP3    H272254   6.221   1.965   0.384 -0.3712  2.9794  1.5506
16947TIP3   OH272255   5.389   1.802  10.768 -0.5099 -0.3688  0.1856
16947TIP3    H172256   5.441   1.722  10.773 -1.6784 -1.2913 -1.3639
16947TIP3    H272257   5.452   1.871  10.747  0.1358 -1.4402 -1.6285
16948TIP3   OH272258   6.263   1.739  12.301 -0.1213 -0.6131 -0.0961
16948TIP3    H172259   6.295   1.775  12.218 -0.3811  0.4477  0.2526
16948TIP3    H272260   6.299   1.798  12.368 -1.1250 -0.5946  0.4379
16949TIP3   OH272261   4.190   1.276   1.466 -0.3807 -0.2944  1.3108
16949TIP3    H172262   4.118   1.338   1.468  1.3801  1.9864 -0.4875
16949TIP3    H272263   4.265   1.326   1.499  1.2414 -1.2185 -0.7892
16950TIP3   OH272264   0.486   4.964  11.894 -0.2862 -0.0680 -0.0531
16950TIP3    H172265   0.473   5.013  11.975 -0.2532  0.4203 -0.3360
16950TIP3    H272266   0.581   4.962  11.883 -0.3141  1.2466 -0.8816
16951TIP3   OH272267   3.810   1.768   4.879 -0.6360 -0.2603  0.4813
16951TIP3    H172268   3.718   1.765   4.903 -1.1006  2.3245 -0.5676
16951TIP3    H272269   3.810   1.778   4.784  0.6224  1.2667  0.5977
16952TIP3   OH272270   2.249   1.070  12.722 -0.4047 -0.7066 -0.5223
16952TIP3    H172271   2.272   1.004  12.656  0.1468 -1.5480  0.4803
16952TIP3    H272272   2.312   1.141  12.707 -0.0832 -1.0235 -0.7025
16953TIP3   OH272273   1.177   5.660  16.230  0.1582 -0.5492  0.2432
16953TIP3    H172274   1.223   5.732  16.187  0.3875 -1.0248 -0.3289
16953TIP3    H272275   1.246   5.608  16.270  0.0360 -0.7248  0.2271
16954TIP3   OH272276   1.543   1.443  13.745  0.0478  0.2052  0.6400
16954TIP3    H172277   1.537   1.408  13.657  2.1582  1.2041  0.0426
16954TIP3    H272278   1.512   1.533  13.737 -0.8200 -0.0334  1.1710
16955TIP3   OH272279   2.368   1.667  10.999 -0.9550  0.1152  0.0199
16955TIP3    H172280   2.385   1.761  10.997 -1.0649  0.1314 -0.8032
16955TIP3    H272281   2.310   1.654  11.074  0.5008  0.4359  1.2461
16956TIP3   OH272282   4.772   3.939   3.316 -0.4273 -0.2677 -0.3610
16956TIP3    H172283   4.830   3.918   3.243  0.7880  0.6317  0.2888
16956TIP3    H272284   4.740   3.855   3.347  2.3399 -1.0532  0.6427
16957TIP3   OH272285   6.288   0.365   2.742 -0.1810 -0.5886  0.5875
16957TIP3    H172286   6.199   0.396   2.727  0.1996 -0.4564 -1.9727
16957TIP3    H272287   6.340   0.409   2.675  1.4098 -2.2962  0.6048
16958TIP3   OH272288   3.442   5.532   2.980 -0.5559  0.0432 -1.0060
16958TIP3    H172289   3.406   5.496   2.899 -5.8742  1.2394  0.4209
16958TIP3    H272290   3.445   5.626   2.965  1.0210  0.0797 -0.6047
16959TIP3   OH272291   6.695   3.699  16.644  0.0569 -0.0198  0.3994
16959TIP3    H172292   6.710   3.780  16.692 -0.6516  0.1995  0.2698
16959TIP3    H272293   6.746   3.707  16.564  0.1646  0.1974  0.4898
16960TIP3   OH272294   3.106   4.827   1.103  0.6828  0.4611 -0.0475
16960TIP3    H172295   3.192   4.796   1.128  0.4881 -0.3283 -0.3167
16960TIP3    H272296   3.066   4.753   1.057 -0.3394  0.6290  0.5418
16961TIP3   OH272297   6.695   0.847  15.305  0.1432  0.1121 -0.3158
16961TIP3    H172298   6.694   0.936  15.340  2.1568  0.6774 -1.5406
16961TIP3    H272299   6.605   0.831  15.277 -0.4628  1.3752  0.8442
16962TIP3   OH272300   2.455   0.191  13.711  0.6515  0.4432 -0.0261
16962TIP3    H172301   2.385   0.241  13.668  1.8559  2.8662  0.6337
16962TIP3    H272302   2.536   0.232  13.680  1.7029 -0.8201  0.9447
16963TIP3   OH272303   0.647   2.455   0.484  0.3980 -0.3183 -0.2743
16963TIP3    H172304   0.684   2.375   0.522  0.8869 -1.3461 -2.6826
16963TIP3    H272305   0.670   2.524   0.546  2.4120 -1.6351  0.5505
16964TIP3   OH272306   0.047   3.598  15.475  0.3605 -0.3921 -0.3584
16964TIP3    H172307   0.135   3.594  15.512  0.7295 -1.9526 -1.3122
16964TIP3    H272308  -0.012   3.588  15.549  0.9879  0.2378  0.2339
16965TIP3   OH272309   4.749   0.507  12.113 -0.0257  0.5024 -0.2289
16965TIP3    H172310   4.704   0.591  12.103  0.1992  0.8305  1.3725
16965TIP3    H272311   4.780   0.507  12.203  0.9273 -0.8439 -0.5384
16966TIP3   OH272312   4.685   4.444  14.219 -0.6589 -0.5061  0.5612
16966TIP3    H172313   4.619   4.505  14.252 -0.2060 -0.2726  1.0447
16966TIP3    H272314   4.751   4.499  14.179 -1.7259 -0.8149 -1.8179
16967TIP3   OH272315   1.436   3.709   2.231 -0.5754  0.4228 -0.1789
16967TIP3    H172316   1.428   3.803   2.215  0.8913  0.6098  0.1090
16967TIP3    H272317   1.451   3.701   2.325  0.6502  0.0119 -0.3859
16968TIP3   OH272318   6.048   5.719  16.819 -0.1496  0.2585 -0.2030
16968TIP3    H172319   6.052   5.686  16.729 -0.4580 -0.9998  0.2265
16968TIP3    H272320   6.094   5.803  16.816  1.9382 -0.8500 -1.0539
16969TIP3   OH272321   2.984   2.972  13.613  0.2125 -0.2632  0.2387
16969TIP3    H172322   2.918   3.030  13.650 -0.1090 -0.3191 -0.2359
16969TIP3    H272323   2.947   2.944  13.530  0.1254 -1.5804  0.7039
16970TIP3   OH272324   6.465   5.175  13.668  0.4721 -0.2163  0.2716
16970TIP3    H172325   6.503   5.220  13.743 -2.2702  0.7030  1.2407
16970TIP3    H272326   6.432   5.093  13.703  0.9767 -0.7176 -0.3961
16971TIP3   OH272327   1.189   0.859   4.345 -0.2499 -0.1657 -0.1451
16971TIP3    H172328   1.118   0.880   4.407  0.3402  1.7890 -0.0460
16971TIP3    H272329   1.264   0.839   4.401 -0.2841 -0.5466 -0.2378
16972TIP3   OH272330   5.137   2.981  14.991  0.4360 -0.0231  0.7944
16972TIP3    H172331   5.071   2.931  14.944 -0.5541  2.5027 -0.7171
16972TIP3    H272332   5.216   2.926  14.988 -0.5896 -1.5150 -0.6367
16973TIP3   OH272333   6.179   0.759   0.932 -0.4526  0.2424  0.0047
16973TIP3    H172334   6.250   0.793   0.987 -0.7229  0.3466  0.2903
16973TIP3    H272335   6.123   0.835   0.917 -0.6006  0.1166 -0.0747
16974TIP3   OH272336   3.484   0.593  15.958 -0.0080 -0.1280 -0.6648
16974TIP3    H172337   3.400   0.580  16.003 -0.4731  1.0602 -1.1337
16974TIP3    H272338   3.538   0.520  15.986  0.2834  1.3056  3.0923
16975TIP3   OH272339   3.409   4.477  16.857  0.2541  0.6335  0.1829
16975TIP3    H172340   3.324   4.480  16.814 -0.0465  0.0798  0.7136
16975TIP3    H272341   3.435   4.568  16.866  0.4750  0.7606 -1.4376
16976TIP3   OH272342   0.639   0.326   6.000  0.4677 -0.0184 -0.2410
16976TIP3    H172343   0.671   0.413   5.979 -2.3680  1.7313  1.9927
16976TIP3    H272344   0.549   0.324   5.968  0.0552 -1.6298  0.8613
16977TIP3   OH272345   0.937   3.276   3.601 -0.4675 -0.5856  0.1791
16977TIP3    H172346   0.983   3.200   3.566 -1.2843 -1.2479  0.5286
16977TIP3    H272347   0.870   3.240   3.659 -0.8727  0.3973  0.3477
16978TIP3   OH272348   2.169   4.750  11.322  0.6599  0.2443  0.0102
16978TIP3    H172349   2.252   4.755  11.273  2.3547 -0.8694  2.5324
16978TIP3    H272350   2.126   4.672  11.288  2.0837 -0.8542  0.6220
16979TIP3   OH272351   4.498   3.075  17.021 -0.2913  0.0405  0.2768
16979TIP3    H172352   4.432   3.010  17.045  0.6424 -0.6151  1.1523
16979TIP3    H272353   4.485   3.147  17.083  0.0063 -0.2281  0.6574
16980TIP3   OH272354   2.985   5.856   5.123  0.2296  0.2205  0.3264
16980TIP3    H172355   2.899   5.837   5.086 -0.2870 -2.4299  2.6206
16980TIP3    H272356   3.040   5.783   5.093  1.0924  0.7067  0.7077
16981TIP3   OH272357   4.137   2.235   6.150 -0.1809  0.6796 -0.3267
16981TIP3    H172358   4.055   2.223   6.102 -0.1412 -0.3009 -0.1789
16981TIP3    H272359   4.154   2.329   6.146 -2.0916  1.1385  0.8985
16982TIP3   OH272360   2.182   2.301   4.854  0.1453 -0.4284  0.3308
16982TIP3    H172361   2.153   2.210   4.866 -1.6768  0.1401  0.6498
16982TIP3    H272362   2.120   2.338   4.792  0.5580  0.7303  0.5817
16983TIP3   OH272363   2.547   6.368  16.209  0.4609  0.1820 -0.0932
16983TIP3    H172364   2.484   6.415  16.154  1.2853 -0.8736 -2.0325
16983TIP3    H272365   2.512   6.377  16.298 -0.0621  3.3940 -0.4808
16984TIP3   OH272366   1.222   5.777  12.068  0.0046  0.1118 -0.9062
16984TIP3    H172367   1.150   5.766  12.130  1.0275 -1.5026  0.0746
16984TIP3    H272368   1.189   5.738  11.986 -0.4590 -0.0254 -0.6567
16985TIP3   OH272369   3.203   1.317  10.989  0.5840 -0.8992 -0.4872
16985TIP3    H172370   3.221   1.225  10.968 -1.0723 -1.4094  0.1589
16985TIP3    H272371   3.235   1.366  10.913  0.1401 -2.1569 -1.5134
16986TIP3   OH272372   2.289   3.695   5.650  0.3430  0.3129  0.0781
16986TIP3    H172373   2.197   3.689   5.623  0.5845 -1.0276 -0.5402
16986TIP3    H272374   2.324   3.769   5.600 -0.0001 -0.2256 -0.9934
16987TIP3   OH272375   0.045   1.316  16.431  0.1289 -0.2794  0.7511
16987TIP3    H172376   0.085   1.383  16.487  0.5207  0.5016 -0.4257
16987TIP3    H272377   0.118   1.275  16.386  0.1255 -3.1165  3.0722
16988TIP3   OH272378   1.444   3.874   4.093 -0.2424 -0.2575 -0.0642
16988TIP3    H172379   1.524   3.915   4.062 -0.1003 -0.6651 -0.2380
16988TIP3    H272380   1.468   3.783   4.110  0.3350  0.4130  3.5396
16989TIP3   OH272381   1.571   3.380  10.977 -0.2348 -0.0327 -0.3614
16989TIP3    H172382   1.642   3.369  10.914  1.9108 -0.4605  1.9495
16989TIP3    H272383   1.534   3.292  10.987  2.2785 -0.9809  1.9440
16990TIP3   OH272384   1.722   0.579  13.029 -0.0534  0.4976  0.5226
16990TIP3    H172385   1.761   0.508  12.977 -1.2418  0.9469 -1.0709
16990TIP3    H272386   1.635   0.546  13.053 -0.0165  0.8245  1.1193
16991TIP3   OH272387   0.259   0.600   0.606 -0.1970  0.0141 -0.0853
16991TIP3    H172388   0.252   0.511   0.570 -1.3864  0.4815 -1.0987
16991TIP3    H272389   0.332   0.640   0.559  0.5439 -0.5084  0.5958
16992TIP3   OH272390   3.204   6.620  12.109 -0.9717 -0.6223 -0.0611
16992TIP3    H172391   3.194   6.555  12.040 -0.7846 -0.7090 -0.0069
16992TIP3    H272392   3.247   6.694  12.066  0.5740 -1.2680  0.2998
16993TIP3   OH272393   0.711   4.351   0.903  0.1758 -0.6488  0.0172
16993TIP3    H172394   0.729   4.295   0.978 -0.1356 -0.6262  0.1101
16993TIP3    H272395   0.690   4.436   0.941 -0.4867 -0.7725 -0.0738
16994TIP3   OH272396   3.658   5.531   4.695  0.7330  0.1113  0.4875
16994TIP3    H172397   3.741   5.484   4.701 -0.1391 -1.5502 -0.0256
16994TIP3    H272398   3.597   5.478   4.746 -0.1321  1.0620  0.4598
16995TIP3   OH272399   2.361   1.157   2.273 -0.3221  0.1216  0.0916
16995TIP3    H172400   2.417   1.232   2.254  0.7632 -0.3058  1.4543
16995TIP3    H272401   2.349   1.114   2.188  1.6737  0.0710 -0.2088
16996TIP3   OH272402   2.378   1.602   6.400 -0.1567 -0.2523 -0.1786
16996TIP3    H172403   2.421   1.571   6.480 -0.4445 -0.4369 -0.0949
16996TIP3    H272404   2.414   1.547   6.330 -0.0519 -0.2227 -0.1480
16997TIP3   OH272405   5.028   2.413  14.126  0.5315 -0.0355  0.5619
16997TIP3    H172406   4.985   2.498  14.120 -1.2709 -0.8813  0.7680
16997TIP3    H272407   5.055   2.405  14.217  0.8004  0.3614  0.5164
16998TIP3   OH272408   5.077   3.156   3.554 -0.7706 -0.1977  0.1248
16998TIP3    H172409   5.052   3.085   3.496 -1.6869  0.7029 -0.6108
16998TIP3    H272410   5.146   3.203   3.507 -0.5942 -0.2417  0.3384
16999TIP3   OH272411   1.730   5.180  13.319 -0.2762 -0.1925 -0.1828
16999TIP3    H172412   1.646   5.155  13.357 -0.7907  0.5745 -0.8037
16999TIP3    H272413   1.715   5.183  13.225 -0.6100  3.4907 -0.1532
17000TIP3   OH272414   0.637   3.884  14.153 -0.1001 -0.0381 -0.0530
17000TIP3    H172415   0.673   3.922  14.233 -1.2545 -1.5438  1.2292
17000TIP3    H272416   0.708   3.892  14.089  1.3501 -0.0146  1.4920
17001TIP3   OH272417   6.355   5.530  11.220  0.6747  0.5988 -0.7669
17001TIP3    H172418   6.324   5.464  11.158  0.4984 -1.5574  1.4395
17001TIP3    H272419   6.305   5.513  11.300  0.9013  3.2355  0.0320
17002TIP3   OH272420   0.302   1.302   0.327 -0.2825 -0.5454 -0.3453
17002TIP3    H172421   0.206   1.293   0.330 -0.4091  0.7186  1.0243
17002TIP3    H272422   0.316   1.394   0.308  0.6387 -0.4935  0.5211
17003TIP3   OH272423   3.285   2.770   1.490  0.3835  0.8443  0.3965
17003TIP3    H172424   3.379   2.757   1.497  0.2242 -2.5710 -1.2983
17003TIP3    H272425   3.275   2.850   1.439  2.5291  0.0120 -1.5136
17004TIP3   OH272426   5.152   4.100   0.247  0.1775 -0.0593 -0.3189
17004TIP3    H172427   5.210   4.096   0.323  0.1396 -1.0949 -0.3350
17004TIP3    H272428   5.198   4.157   0.185 -1.5904  4.2872  1.9456
17005TIP3   OH272429   1.769   0.696   1.674  0.6208 -0.4510 -0.3883
17005TIP3    H172430   1.745   0.603   1.672 -0.3235 -0.2650  0.8302
17005TIP3    H272431   1.696   0.740   1.632  0.8518 -0.2221 -0.5483
17006TIP3   OH272432   2.079   3.886   5.819 -0.0939  0.2980 -0.3719
17006TIP3    H172433   2.084   3.795   5.848  0.2796  0.6640  0.7897
17006TIP3    H272434   2.170   3.913   5.808 -0.2247  0.2667 -1.6221
17007TIP3   OH272435   5.666   3.104   0.758 -0.1695 -0.5427 -0.3091
17007TIP3    H172436   5.728   3.175   0.775  0.2861 -1.1079  0.4895
17007TIP3    H272437   5.711   3.047   0.697 -0.5061 -0.1960 -0.8906
17008TIP3   OH272438   2.392   4.269   5.920 -0.0200  0.0207  0.3639
17008TIP3    H172439   2.384   4.363   5.931  1.2425  0.1346  0.4976
17008TIP3    H272440   2.467   4.245   5.973  1.2552 -0.6632 -1.6163
17009TIP3   OH272441   1.227   6.344  13.856 -0.0315  0.3450  0.1308
17009TIP3    H172442   1.317   6.353  13.886 -0.0989  0.9235  0.1735
17009TIP3    H272443   1.181   6.301  13.928  0.1047  0.4945  0.3065
17010TIP3   OH272444   4.331   5.493  16.400 -0.2954 -0.0469 -0.5045
17010TIP3    H172445   4.310   5.474  16.492 -0.9457  1.8198 -0.2335
17010TIP3    H272446   4.261   5.452  16.350  0.6011 -1.9693 -0.2953
17011TIP3   OH272447   1.708   4.024   1.867 -0.4080  0.4798  0.1475
17011TIP3    H172448   1.710   4.107   1.916 -2.9937  1.2072 -0.8072
17011TIP3    H272449   1.778   3.972   1.906  1.1568  2.9876  0.9660
17012TIP3   OH272450   1.377   2.548  13.150  0.4258  0.1986 -0.0649
17012TIP3    H172451   1.351   2.629  13.193 -0.1164 -1.1761  2.4171
17012TIP3    H272452   1.334   2.551  13.065 -1.1794  1.6556  0.7252
17013TIP3   OH272453   2.327   4.178   1.909  0.0963 -0.0467  0.1946
17013TIP3    H172454   2.292   4.121   1.841  1.8309 -1.0847  0.0943
17013TIP3    H272455   2.351   4.118   1.980 -1.5205  0.9860  1.6939
17014TIP3   OH272456   0.825   5.719   2.817 -0.0600  0.0616 -0.5241
17014TIP3    H172457   0.890   5.743   2.883  0.1194 -2.5591  0.3583
17014TIP3    H272458   0.777   5.800   2.800  0.5044  1.0385  2.1205
17015TIP3   OH272459   0.497   2.118  15.209  0.4104  0.4430 -0.2811
17015TIP3    H172460   0.473   2.167  15.130 -0.2551  0.2660 -0.1954
17015TIP3    H272461   0.415   2.109  15.257  0.3259 -1.5479 -0.7257
17016TIP3   OH272462   6.465   0.739  16.878  0.0177 -0.5484  0.1834
17016TIP3    H172463   6.407   0.815  16.880  1.3584  0.5029  0.6681
17016TIP3    H272464   6.541   0.768  16.827 -0.1261 -2.1002 -0.9889
17017TIP3   OH272465   0.567   0.808  15.819 -0.2860  0.2279 -0.3253
17017TIP3    H172466   0.534   0.782  15.733  0.1426  0.2391 -0.4965
17017TIP3    H272467   0.604   0.728  15.856 -0.0110  0.3355 -0.3658
17018TIP3   OH272468   3.015   1.039   6.264 -0.7591 -0.5383 -0.2703
17018TIP3    H172469   2.947   1.081   6.318 -0.8531  0.9113 -1.4485
17018TIP3    H272470   2.967   0.989   6.199 -0.6912 -0.1978 -0.5845
17019TIP3   OH272471   6.046   4.991  17.020 -0.4909  0.3306 -0.0619
17019TIP3    H172472   6.073   5.083  17.031 -0.9039  0.5069 -0.5218
17019TIP3    H272473   5.975   4.980  17.083 -0.7840  0.4719 -0.3661
17020TIP3   OH272474   3.329   2.338  15.501  0.0538 -0.0537 -0.2785
17020TIP3    H172475   3.395   2.327  15.569  0.5164  2.6617 -0.1872
17020TIP3    H272476   3.326   2.253  15.457  0.7059 -1.4715  2.2212
17021TIP3   OH272477   3.473   6.217  16.989  0.4349  0.1731 -0.7833
17021TIP3    H172478   3.459   6.184  16.900  0.4688  1.1206 -1.1438
17021TIP3    H272479   3.386   6.219  17.029  0.2031  1.2137 -1.3179
17022TIP3   OH272480   0.087   2.609   4.008 -0.6518 -0.2023  0.0233
17022TIP3    H172481   0.058   2.693   4.043 -0.6631  1.0074 -2.6488
17022TIP3    H272482   0.031   2.593   3.932  1.0204 -1.3208 -1.0586
17023TIP3   OH272483   0.526   0.667  13.112 -0.2258 -0.1407 -0.5450
17023TIP3    H172484   0.470   0.713  13.174  0.7281  0.8617 -0.3889
17023TIP3    H272485   0.529   0.577  13.143 -1.4561 -0.1253 -0.3607
17024TIP3   OH272486   4.082   1.254  15.985  0.1023 -0.0083  0.1897
17024TIP3    H172487   3.987   1.259  15.973 -0.0960 -2.7245  0.0136
17024TIP3    H272488   4.118   1.307  15.914 -1.2537  1.5980  0.6436
17025TIP3   OH272489   5.519   4.165   3.139  0.2270 -0.0476 -0.3782
17025TIP3    H172490   5.586   4.205   3.195 -0.6836 -0.9681  1.4542
17025TIP3    H272491   5.569   4.122   3.070  1.4679  0.1589  0.3564
17026TIP3   OH272492   2.880   0.988  13.552 -0.2250 -0.5235  0.1079
17026TIP3    H172493   2.802   0.935  13.539 -1.4284  0.7590  1.6523
17026TIP3    H272494   2.850   1.078  13.543  0.8815  0.0299  1.5406
17027TIP3   OH272495   5.950   3.820  13.696 -0.3169 -0.0320 -0.4014
17027TIP3    H172496   6.019   3.871  13.738 -1.1388 -0.0454  1.0462
17027TIP3    H272497   5.868   3.861  13.724 -0.9324 -0.7026 -1.1424
17028TIP3   OH272498   2.544   0.765  16.960  1.2834 -0.1398  0.8147
17028TIP3    H172499   2.485   0.779  17.034 -1.4584  0.4697 -1.3487
17028TIP3    H272500   2.546   0.849  16.914  0.4797 -1.2687 -1.4274
17029TIP3   OH272501   3.324   6.065   0.440 -0.1889  0.0642 -0.1476
17029TIP3    H172502   3.348   6.009   0.513  1.7986 -1.4929 -1.8866
17029TIP3    H272503   3.399   6.125   0.430 -0.7426  0.7159 -0.5001
17030TIP3   OH272504   5.095   5.952   5.854 -0.3154  0.1150  0.3996
17030TIP3    H172505   5.181   5.968   5.815  0.6707 -4.1930  0.2397
17030TIP3    H272506   5.108   5.961   5.948 -0.3106  1.5051  0.2896
17031TIP3   OH272507   0.154   5.579   0.559  0.1848  0.5031  0.2809
17031TIP3    H172508   0.238   5.566   0.604 -0.3898 -0.8109  1.0208
17031TIP3    H272509   0.172   5.555   0.468  0.3951 -0.6992  0.6256
17032TIP3   OH272510   6.258   1.279  10.966  0.0505  0.0066 -0.6450
17032TIP3    H172511   6.275   1.354  11.023  0.5563 -1.1463  0.7790
17032TIP3    H272512   6.297   1.205  11.012 -1.3536 -1.3125 -1.4992
17033TIP3   OH272513   5.473   4.744  15.530  0.3926  0.4362  0.6928
17033TIP3    H172514   5.385   4.743  15.494  0.4173  2.5283  0.4653
17033TIP3    H272515   5.504   4.833  15.516  2.3544 -0.1030  1.2526
17034TIP3   OH272516   5.363   1.623   3.349 -0.2365 -0.5508  0.0630
17034TIP3    H172517   5.369   1.697   3.288  1.2765  0.3187  1.2079
17034TIP3    H272518   5.270   1.620   3.373 -0.4768  0.4444 -0.6662
17035TIP3   OH272519   3.509   5.463   3.236 -0.3328  0.4348  0.3736
17035TIP3    H172520   3.509   5.548   3.281 -0.0498  1.1124 -0.8694
17035TIP3    H272521   3.485   5.483   3.146 -0.4423 -0.8383  0.0974
17036TIP3   OH272522   5.098   3.274  16.792  0.9083  0.3343  0.7564
17036TIP3    H172523   5.061   3.213  16.856  1.3492 -1.7864 -0.8725
17036TIP3    H272524   5.168   3.224  16.749 -0.3017  1.0751 -2.3863
17037TIP3   OH272525   6.079   1.797   6.597  0.3216  0.5054  0.3895
17037TIP3    H172526   6.157   1.748   6.573  1.2057  1.0488  2.0451
17037TIP3    H272527   6.091   1.883   6.556  0.1316  0.2882 -0.1298
17038TIP3   OH272528   4.741   1.093  11.000  0.4161 -1.0515  0.2186
17038TIP3    H172529   4.673   1.127  10.942 -0.4850 -1.7095  0.8651
17038TIP3    H272530   4.820   1.093  10.946  0.5734  2.3092  0.2681
17039TIP3   OH272531   0.064   3.604   5.814  0.1097  0.0712 -0.6147
17039TIP3    H172532   0.058   3.569   5.903  0.7336 -1.5755 -1.2018
17039TIP3    H272533  -0.011   3.664   5.808 -0.8631 -0.9595  0.5180
17040TIP3   OH272534   0.313   2.395  16.278  0.1196 -0.1866 -0.0666
17040TIP3    H172535   0.329   2.311  16.320 -0.4681  0.0230  0.6097
17040TIP3    H272536   0.286   2.373  16.189  0.0608 -0.7068  0.0781
17041TIP3   OH272537   2.856   3.625   2.868  0.0824 -0.4879  0.0543
17041TIP3    H172538   2.768   3.662   2.860  0.8699  1.3480 -0.6662
17041TIP3    H272539   2.873   3.625   2.962 -0.2349  0.2782  0.1151
17042TIP3   OH272540   2.889   1.736  14.341 -0.1098  0.4799 -0.3110
17042TIP3    H172541   2.806   1.763  14.379 -1.2601  0.3371 -2.5854
17042TIP3    H272542   2.883   1.641  14.332  1.4672  0.0694  1.9967
17043TIP3   OH272543   4.398   0.400   0.834 -0.2421  0.4742  0.1594
17043TIP3    H172544   4.441   0.358   0.909 -1.0796 -1.7220 -0.5084
17043TIP3    H272545   4.461   0.467   0.806  2.2994 -1.7918 -0.0408
17044TIP3   OH272546   1.183   2.269   0.774 -0.4276  0.0354  0.2367
17044TIP3    H172547   1.187   2.179   0.808  1.2632  0.1044  0.3372
17044TIP3    H272548   1.238   2.266   0.695 -1.4734  0.6787 -0.5357
17045TIP3   OH272549   0.861   4.063  12.137 -0.8364  0.2292  0.1121
17045TIP3    H172550   0.878   4.018  12.055 -0.3034  0.5237  0.0561
17045TIP3    H272551   0.823   3.996  12.194 -1.2249  0.0315 -0.3772
17046TIP3   OH272552   1.918   2.378   5.133  0.2423 -0.1788 -0.0343
17046TIP3    H172553   1.920   2.385   5.229  0.1993  0.2734 -0.0648
17046TIP3    H272554   1.952   2.291   5.115 -0.5684 -0.6044  0.4367
17047TIP3   OH272555   0.273   0.895  12.185 -0.1023  0.0447  0.3628
17047TIP3    H172556   0.357   0.903  12.141  0.6319 -3.0521  1.0174
17047TIP3    H272557   0.294   0.900  12.278 -0.4332 -1.8012  0.5741
17048TIP3   OH272558   2.874   3.758   0.680  0.1675  0.1589 -0.1877
17048TIP3    H172559   2.814   3.685   0.695 -0.8818  0.7298 -1.4176
17048TIP3    H272560   2.877   3.804   0.764 -1.9932  0.7270 -0.3552
17049TIP3   OH272561   5.140   5.175   2.034  0.0290 -0.1822 -0.4289
17049TIP3    H172562   5.112   5.128   1.956 -0.4773  2.0334 -1.6958
17049TIP3    H272563   5.070   5.161   2.097 -0.4220 -0.5911 -1.0035
17050TIP3   OH272564   4.500   0.605   4.806  0.1831  0.4806 -0.5581
17050TIP3    H172565   4.546   0.578   4.727 -0.1888 -0.0387 -0.5978
17050TIP3    H272566   4.412   0.629   4.776 -0.3997 -1.0365 -0.1171
17051TIP3   OH272567   1.113   5.737  13.400 -0.1667  0.1866  0.0258
17051TIP3    H172568   1.160   5.795  13.460 -0.3356  1.4761 -1.0442
17051TIP3    H272569   1.140   5.649  13.426 -0.5852  0.6569  2.2676
17052TIP3   OH272570   2.639   5.200  12.492  0.2312  0.0269 -0.4591
17052TIP3    H172571   2.732   5.208  12.470  0.1685  1.9368 -0.1370
17052TIP3    H272572   2.638   5.144  12.570  0.9446 -1.3593 -1.3945
17053TIP3   OH272573   3.062   1.495   4.708 -0.3101  0.5522 -0.1210
17053TIP3    H172574   3.104   1.508   4.623 -0.6137  0.4078 -0.2923
17053TIP3    H272575   3.050   1.584   4.742  0.8503  0.5738  0.2833
17054TIP3   OH272576   1.056   4.885   3.481 -0.0046 -0.5407 -0.4964
17054TIP3    H172577   1.124   4.890   3.413  0.7393 -0.5052  0.2356
17054TIP3    H272578   1.024   4.795   3.476 -0.2191 -0.4383 -1.1331
17055TIP3   OH272579   4.996   4.885   2.190 -0.2376  0.3756  0.5500
17055TIP3    H172580   5.064   4.836   2.235  0.8832  0.4731 -0.9842
17055TIP3    H272581   5.041   4.931   2.119 -1.7104  1.3796  0.2046
17056TIP3   OH272582   0.685   1.278  15.868  0.1651 -0.0972 -0.4994
17056TIP3    H172583   0.648   1.204  15.916  0.9514 -0.8194 -0.9919
17056TIP3    H272584   0.768   1.297  15.912  0.6359 -0.4198 -1.2287
17057TIP3   OH272585   0.064   6.666  16.825 -0.3102  0.0406 -0.8187
17057TIP3    H172586   0.071   6.585  16.775 -0.3368  0.5073 -1.5902
17057TIP3    H272587   0.003   6.645  16.896  1.0695 -1.1450  0.0925
17058TIP3   OH272588   2.691   5.881   4.279 -0.0831 -0.0962 -0.2300
17058TIP3    H172589   2.699   5.786   4.293  0.3713 -0.3375 -1.8666
17058TIP3    H272590   2.756   5.900   4.212 -1.3329  1.0758 -1.1577
17059TIP3   OH272591   3.643   3.054   0.862 -0.3874 -0.1790 -0.2250
17059TIP3    H172592   3.567   3.111   0.877  1.7755  2.3749  2.2159
17059TIP3    H272593   3.684   3.090   0.783 -0.7245 -0.3888 -0.4969
17060TIP3   OH272594   3.577   1.950   3.243  0.0649 -0.1197 -0.1959
17060TIP3    H172595   3.566   1.857   3.264  1.3788 -0.3990 -0.6507
17060TIP3    H272596   3.653   1.952   3.185  0.9277  1.3985  0.9370
17061TIP3   OH272597   6.585   0.742  11.982 -0.3964 -0.5667  0.1010
17061TIP3    H172598   6.611   0.686  11.909 -1.1914  0.3172 -0.8812
17061TIP3    H272599   6.490   0.732  11.988 -0.5527  0.6162 -0.0769
17062TIP3   OH272600   1.067   0.066   3.071  0.1858 -0.2443 -0.6212
17062TIP3    H172601   0.978   0.050   3.041 -0.0155 -1.1731  0.3923
17062TIP3    H272602   1.112  -0.017   3.056  0.2611 -0.5200  0.9049
17063TIP3   OH272603   6.753   2.049   1.739  0.3386  0.0684  0.7085
17063TIP3    H172604   6.832   2.015   1.781  0.1547 -0.7370  0.4341
17063TIP3    H272605   6.695   2.070   1.812  0.6913  0.3709  0.9036
17064TIP3   OH272606   4.873   1.954  14.740  0.2249 -0.5246  0.2178
17064TIP3    H172607   4.952   1.962  14.688  0.6398  0.0833  0.9248
17064TIP3    H272608   4.895   1.892  14.809 -0.2144 -1.0648 -0.1146
17065TIP3   OH272609   0.746   1.238  14.718 -0.3390  0.0321  0.4040
17065TIP3    H172610   0.666   1.252  14.769  0.0613 -0.0682  1.0665
17065TIP3    H272611   0.777   1.152  14.746  0.1321  0.1777  0.3286
17066TIP3   OH272612   0.904   1.199   3.343 -0.0686 -0.1006 -0.2385
17066TIP3    H172613   0.911   1.229   3.434 -2.2579 -0.3930  0.1037
17066TIP3    H272614   0.991   1.209   3.307  0.7367  0.5451  1.7459
17067TIP3   OH272615   0.338   2.572   4.814  0.3427 -0.3462  0.0007
17067TIP3    H172616   0.329   2.517   4.892  1.2902 -0.1880  0.2356
17067TIP3    H272617   0.248   2.585   4.783 -0.0862 -0.1515  1.2475
17068TIP3   OH272618   5.372   6.772  13.375 -0.2714 -0.2265  0.2648
17068TIP3    H172619   5.331   6.848  13.333 -0.4600 -1.2809 -1.5957
17068TIP3    H272620   5.325   6.762  13.458 -0.3993  1.5145  0.4382
17069TIP3   OH272621   5.650   0.537  16.075  0.7710 -0.2906  0.0014
17069TIP3    H172622   5.707   0.613  16.084 -0.3212  1.1465 -3.4418
17069TIP3    H272623   5.672   0.500  15.989 -1.3255 -1.5468 -0.0749
17070TIP3   OH272624   3.916   5.359  16.506 -0.0764  0.7908  0.3057
17070TIP3    H172625   3.919   5.443  16.551  0.1968  1.2235 -0.4872
17070TIP3    H272626   3.825   5.331  16.512 -0.0925  0.9671  0.8882
17071TIP3   OH272627   0.381   6.605  16.521 -0.2343 -0.1331  0.1107
17071TIP3    H172628   0.313   6.544  16.491 -0.6020 -0.1751  0.9991
17071TIP3    H272629   0.392   6.666  16.447  0.0107 -1.1474 -0.7206
17072TIP3   OH272630   0.543   1.162  14.524 -0.6986 -0.0495  0.1290
17072TIP3    H172631   0.573   1.078  14.488  0.5341  0.5459 -0.2972
17072TIP3    H272632   0.540   1.148  14.618  0.8077 -0.1996  0.1800
17073TIP3   OH272633   5.013   6.276  10.977  0.2462  0.0510  0.7838
17073TIP3    H172634   4.957   6.332  10.924  1.1167  0.1426 -0.0808
17073TIP3    H272635   5.015   6.193  10.931  0.5512 -0.0561  0.9851
17074TIP3   OH272636   6.390   3.119   5.397 -0.2662 -0.4101 -0.0322
17074TIP3    H172637   6.359   3.205   5.427  1.4443  0.3738 -0.4207
17074TIP3    H272638   6.405   3.130   5.303  2.4272 -0.3190  0.3520
17075TIP3   OH272639   5.066   1.417  13.826 -0.1756 -0.0683  0.2823
17075TIP3    H172640   4.977   1.428  13.793 -0.0549  1.6016  0.4010
17075TIP3    H272641   5.122   1.455  13.758  0.3305  0.1950  0.8342
17076TIP3   OH272642   3.973   2.672   0.097  0.0644 -0.1245 -0.2286
17076TIP3    H172643   3.903   2.652   0.159  2.2640 -3.3393  1.5460
17076TIP3    H272644   4.035   2.600   0.108  2.0120  0.7033 -4.1877
17077TIP3   OH272645   4.099   1.903  12.501 -0.4974  0.1575 -0.0360
17077TIP3    H172646   4.180   1.900  12.451  0.5038 -0.2096  1.5188
17077TIP3    H272647   4.121   1.860  12.584 -2.3197 -0.0549  0.3846
17078TIP3   OH272648   1.183   1.207   6.863 -0.0224 -0.0063  0.3300
17078TIP3    H172649   1.206   1.242   6.777 -0.0643 -3.2720 -1.1420
17078TIP3    H272650   1.091   1.184   6.856 -1.1004  2.9001  2.5741
17079TIP3   OH272651   2.646   0.998   3.211  0.0383  0.5351 -0.1082
17079TIP3    H172652   2.625   1.053   3.286 -1.6995  0.1492 -0.2610
17079TIP3    H272653   2.626   1.053   3.135 -0.1374  0.2511 -0.2700
17080TIP3   OH272654   1.663   3.240  14.618  0.1158 -0.6360  0.2913
17080TIP3    H172655   1.635   3.328  14.643  1.2074 -0.3108  0.3864
17080TIP3    H272656   1.750   3.251  14.580  0.2489 -1.6657  0.2527
17081TIP3   OH272657   3.025   0.716   0.633 -0.1723  0.1987  0.2984
17081TIP3    H172658   2.975   0.794   0.611  1.0379  0.7618 -0.5628
17081TIP3    H272659   3.020   0.661   0.555  0.9878  0.5076 -0.0085
17082TIP3   OH272660   0.939   1.262   2.345  0.5277 -0.7141 -0.1218
17082TIP3    H172661   0.867   1.217   2.300  0.2216  0.9012 -1.3192
17082TIP3    H272662   0.919   1.250   2.438 -0.7604 -1.1279 -0.4268
17083TIP3   OH272663   6.072   6.748   1.165  0.2259  0.0589 -0.0995
17083TIP3    H172664   6.086   6.684   1.096 -0.6110 -1.3469  0.9696
17083TIP3    H272665   6.004   6.709   1.221  0.2867  1.5001  1.0635
17084TIP3   OH272666   2.045   5.703   4.799  0.5648 -0.1026 -0.5483
17084TIP3    H172667   2.081   5.615   4.787 -1.1689 -1.2064  1.6235
17084TIP3    H272668   1.952   5.694   4.781  0.0441  0.8525  1.3801
17085TIP3   OH272669   6.136   6.056   2.018  0.9545 -0.1228 -0.1624
17085TIP3    H172670   6.060   6.018   1.973 -0.0024  1.0696  0.4010
17085TIP3    H272671   6.154   6.137   1.970  1.6257 -0.1950 -0.0431
17086TIP3   OH272672   2.628   3.614  13.925  1.1589 -1.2731 -0.0576
17086TIP3    H172673   2.556   3.598  13.864 -0.6189 -1.1483  1.9224
17086TIP3    H272674   2.631   3.536  13.981  2.0670 -0.9318  0.3993
17087TIP3   OH272675   4.770   2.851  10.965 -0.0351  0.1992 -0.5040
17087TIP3    H172676   4.751   2.766  10.926 -0.6010  0.6763 -1.3015
17087TIP3    H272677   4.858   2.872  10.934 -0.4675  0.5603 -1.5469
17088TIP3   OH272678   6.777   2.336   1.701  0.0210 -0.2574  0.2818
17088TIP3    H172679   6.682   2.344   1.704 -0.2229 -2.5043  0.2171
17088TIP3    H272680   6.793   2.248   1.668  2.1570  0.3420 -0.4932
17089TIP3   OH272681   1.933   4.884   0.098 -0.2215 -0.1711  0.2297
17089TIP3    H172682   1.894   4.878   0.011  0.3058  1.1256 -0.1263
17089TIP3    H272683   1.902   4.806   0.144 -0.0917 -1.1531 -1.2777
17090TIP3   OH272684   1.810   3.213  11.285 -0.0462  0.0687  0.6097
17090TIP3    H172685   1.835   3.183  11.198  1.2517 -1.8648  1.5721
17090TIP3    H272686   1.890   3.206  11.337 -0.7983  1.1474  1.9877
17091TIP3   OH272687   6.480   5.259   0.658  0.3827  0.2013  0.1856
17091TIP3    H172688   6.542   5.212   0.715  0.1150 -1.1791 -0.6183
17091TIP3    H272689   6.524   5.262   0.573 -0.0306  0.5332 -0.0150
17092TIP3   OH272690   1.579   5.974  11.860  0.3505  0.3200 -0.2719
17092TIP3    H172691   1.587   5.890  11.816 -0.3853 -0.7786  1.6093
17092TIP3    H272692   1.644   5.970  11.931 -0.6731  0.7372  0.7094
17093TIP3   OH272693   4.529   6.155  15.555 -0.4173 -0.2548  0.0267
17093TIP3    H172694   4.556   6.155  15.647  0.3406 -2.4825 -0.1244
17093TIP3    H272695   4.434   6.147  15.558 -0.3384 -1.1163  0.6517
17094TIP3   OH272696   5.383   1.304  16.647  0.0396 -0.0259  0.6001
17094TIP3    H172697   5.333   1.271  16.572 -0.6099 -2.2154  1.8981
17094TIP3    H272698   5.428   1.382  16.614 -1.7368  0.2001 -1.4978
17095TIP3   OH272699   3.714   0.703  16.625 -0.2561 -0.0356 -0.5468
17095TIP3    H172700   3.629   0.739  16.599 -1.6038 -3.9638 -2.3683
17095TIP3    H272701   3.775   0.738  16.560 -1.1770  0.1045 -1.3711
17096TIP3   OH272702   2.587   2.327  12.683 -0.0605 -0.2816 -0.5903
17096TIP3    H172703   2.661   2.387  12.674 -0.2157  0.2219  1.0796
17096TIP3    H272704   2.518   2.380  12.723  0.0093 -1.6574  1.5527
17097TIP3   OH272705   3.591   6.410   4.145  0.4670 -0.2721 -0.3477
17097TIP3    H172706   3.556   6.408   4.055 -0.2215 -1.8722 -0.0879
17097TIP3    H272707   3.603   6.317   4.167  0.5253  0.1041  1.2623
17098TIP3   OH272708   3.436   1.321   5.801  0.2256  0.4522 -0.3630
17098TIP3    H172709   3.500   1.291   5.866  0.6791 -1.2025 -1.5164
17098TIP3    H272710   3.434   1.251   5.735 -2.2604  0.7863 -0.7255
17099TIP3   OH272711   3.555   0.633  11.565 -0.0515 -0.2923  0.3882
17099TIP3    H172712   3.605   0.601  11.490 -0.1047  0.2674  0.1090
17099TIP3    H272713   3.597   0.593  11.641  2.1252  1.7482  0.3494
17100TIP3   OH272714   4.154   5.440   4.355  0.1328 -0.0059  0.3775
17100TIP3    H172715   4.188   5.351   4.362 -0.8150 -0.4086  0.0731
17100TIP3    H272716   4.232   5.495   4.344  0.7697 -0.7195  1.1850
17101TIP3   OH272717   6.488   0.720   0.094 -0.0327  0.2826 -0.1156
17101TIP3    H172718   6.421   0.780   0.061 -0.0524  0.5238  0.3466
17101TIP3    H272719   6.440   0.659   0.150  0.0464  0.0707 -0.2750
17102TIP3   OH272720   1.198   1.303   0.592  0.0619  0.6663 -0.3434
17102TIP3    H172721   1.162   1.364   0.528  0.0823  0.1064 -0.8977
17102TIP3    H272722   1.287   1.335   0.609  0.4448  0.1995 -1.4179
17103TIP3   OH272723   1.052   1.356   4.563 -0.4045 -0.2333  0.1248
17103TIP3    H172724   1.072   1.263   4.580  0.8942 -0.1384 -0.6721
17103TIP3    H272725   1.075   1.368   4.471  2.6487  1.6195  0.9882
17104TIP3   OH272726   1.884   3.463  15.472 -0.1753  0.2462 -0.2861
17104TIP3    H172727   1.848   3.493  15.556 -0.7618  0.5316 -0.6307
17104TIP3    H272728   1.810   3.467  15.412 -0.1727 -1.4510 -0.4691
17105TIP3   OH272729   3.752   1.842   4.404  0.0972 -0.3718  0.4699
17105TIP3    H172730   3.846   1.861   4.402  0.0611 -0.2710 -0.7304
17105TIP3    H272731   3.740   1.776   4.335 -0.6211 -0.8375  1.0288
17106TIP3   OH272732   4.207   1.847   0.156 -0.3450 -0.0787 -0.3916
17106TIP3    H172733   4.152   1.769   0.152 -2.1930  1.1848 -0.8950
17106TIP3    H272734   4.238   1.850   0.247 -2.4720  0.0396  0.3831
17107TIP3   OH272735   1.783   1.055   3.355 -0.3354 -0.1333 -0.4793
17107TIP3    H172736   1.830   1.037   3.437  1.5652 -2.5731 -1.9762
17107TIP3    H272737   1.809   1.144   3.331  2.3404 -0.8183 -0.4074
17108TIP3   OH272738   2.228   1.094  13.489 -0.6373 -0.7636 -0.0935
17108TIP3    H172739   2.150   1.150  13.491 -1.1090 -1.0648 -3.5369
17108TIP3    H272740   2.272   1.111  13.572 -2.6421  1.9591  0.5550
17109TIP3   OH272741   5.349   1.521   2.202  0.3042  0.1783 -0.2465
17109TIP3    H172742   5.315   1.436   2.231  2.6833 -0.0888  2.0541
17109TIP3    H272743   5.317   1.583   2.267 -0.1413  0.8272 -1.0627
17110TIP3   OH272744   4.673   3.436  15.360  0.0211 -0.5601 -0.2035
17110TIP3    H172745   4.669   3.457  15.453  0.4049  0.6494 -0.4428
17110TIP3    H272746   4.587   3.459  15.326  0.7262  1.6517 -0.6422
17111TIP3   OH272747   1.626   0.289   6.285  0.2563 -0.0615 -0.3019
17111TIP3    H172748   1.629   0.215   6.346 -1.0237  0.4372  0.4104
17111TIP3    H272749   1.551   0.271   6.229  1.1381 -0.2725 -1.4567
17112TIP3   OH272750   3.325   6.142   5.610 -0.1915 -0.4366  0.1674
17112TIP3    H172751   3.370   6.160   5.693  0.0495  0.4416 -0.1396
17112TIP3    H272752   3.233   6.157   5.629 -0.6574 -3.8417  1.2500
17113TIP3   OH272753   3.290   5.716   3.637 -0.1004  0.2694  0.2600
17113TIP3    H172754   3.341   5.715   3.557  0.1228  0.2401  0.4029
17113TIP3    H272755   3.323   5.791   3.687 -1.2442  1.1998 -0.3201
17114TIP3   OH272756   0.262   4.703  15.343 -0.3117  0.5853 -0.3966
17114TIP3    H172757   0.348   4.745  15.339  0.0251 -0.1916 -2.5454
17114TIP3    H272758   0.270   4.638  15.412  0.0434  2.1069  1.0533
17115TIP3   OH272759   6.781   6.349  10.512 -0.0227 -0.1645 -0.2777
17115TIP3    H172760   6.793   6.281  10.579 -0.1526  0.8349  0.7907
17115TIP3    H272761   6.697   6.327  10.471 -1.6451  1.0337  2.1674
17116TIP3   OH272762   2.354   0.632  12.684 -0.5602  0.1895 -0.1736
17116TIP3    H172763   2.376   0.607  12.774 -1.1619  1.6030  0.4021
17116TIP3    H272764   2.259   0.622  12.678 -0.5394  0.2210 -0.6153
17117TIP3   OH272765   4.863   3.284   5.746  0.4374 -0.8718  0.1844
17117TIP3    H172766   4.934   3.290   5.682  0.5082  0.3329  0.3557
17117TIP3    H272767   4.792   3.241   5.699  1.4651 -2.6568  0.1902
17118TIP3   OH272768   4.572   6.648   3.597  0.4299 -0.0412  0.0621
17118TIP3    H172769   4.512   6.599   3.540  1.5586 -0.6133 -0.6659
17118TIP3    H272770   4.555   6.615   3.685  1.1585 -1.7596 -0.4111
17119TIP3   OH272771   6.018   5.133  16.346 -0.3316  0.2668  0.6066
17119TIP3    H172772   5.979   5.047  16.364  1.1602 -0.2616  1.5346
17119TIP3    H272773   6.104   5.128  16.386  0.1222  1.9081 -0.1059
17120TIP3   OH272774   2.188   2.263  11.757 -0.2549  0.3572  1.1289
17120TIP3    H172775   2.278   2.295  11.767 -0.4147  0.6630  1.6228
17120TIP3    H272776   2.196   2.168  11.764  0.1944  0.2932 -0.1152
17121TIP3   OH272777   3.321   6.094  14.087 -0.2597  0.5075 -0.2534
17121TIP3    H172778   3.361   6.091  14.174 -0.5733  1.2545 -0.0784
17121TIP3    H272779   3.340   6.008  14.049 -0.7723 -0.1110  0.8475
17122TIP3   OH272780   1.013   5.912   3.441 -0.3894 -0.0126  0.1998
17122TIP3    H172781   1.082   5.925   3.505 -1.8975  0.7670  1.7484
17122TIP3    H272782   0.966   5.834   3.471 -1.8678  1.0660  0.8309
17123TIP3   OH272783   2.710   4.855  12.475 -0.3071  0.5662  0.1704
17123TIP3    H172784   2.748   4.941  12.493 -0.2059  1.1221 -2.3610
17123TIP3    H272785   2.784   4.799  12.454 -0.4099 -0.0924  1.4312
17124TIP3   OH272786   0.477   2.294   0.773 -0.0046 -0.3487  0.1755
17124TIP3    H172787   0.419   2.261   0.704 -1.1138  0.9377  0.4309
17124TIP3    H272788   0.445   2.252   0.853 -1.0680  0.8245  0.4161
17125TIP3   OH272789   0.251   5.506   4.359  0.4017  1.0162 -0.3824
17125TIP3    H172790   0.268   5.429   4.305  0.2370  0.7387 -0.0405
17125TIP3    H272791   0.156   5.511   4.366  0.4357 -0.2450  1.7074
17126TIP3   OH272792   3.187   4.744   4.620  0.5682  0.1889  0.0242
17126TIP3    H172793   3.117   4.744   4.555  0.1916  1.1087  0.4239
17126TIP3    H272794   3.237   4.824   4.602  1.1571 -0.1415  0.1348
17127TIP3   OH272795   0.840   3.755  15.777  0.7984  0.1028 -0.1726
17127TIP3    H172796   0.750   3.726  15.760  0.9080 -0.3963  0.0850
17127TIP3    H272797   0.872   3.696  15.845  1.3081  0.3071 -0.2291
17128TIP3   OH272798   1.594   1.674  12.211 -0.0481 -0.6380  0.2472
17128TIP3    H172799   1.649   1.635  12.279  0.4343  1.0392  0.8635
17128TIP3    H272800   1.563   1.756  12.249 -0.7243 -0.2181 -1.1328
17129TIP3   OH272801   4.857   3.902   0.221  0.3111  0.2046  0.0822
17129TIP3    H172802   4.772   3.945   0.211  1.1105  1.5355 -1.5491
17129TIP3    H272803   4.856   3.833   0.154  0.6202  0.4467 -0.1783
17130TIP3   OH272804   4.229   0.608   1.114  0.4665  0.2751 -0.2015
17130TIP3    H172805   4.307   0.559   1.138  0.5253 -0.9625 -2.6550
17130TIP3    H272806   4.175   0.608   1.194  1.8511 -1.0152  0.7808
17131TIP3   OH272807   3.022   4.991  12.171  0.4712  0.0197 -0.0770
17131TIP3    H172808   3.009   5.071  12.120  1.4606  0.5432  0.4561
17131TIP3    H272809   3.099   5.009  12.224  1.3414 -1.6606 -0.6841
17132TIP3   OH272810   0.829   0.569   5.678 -0.5916 -0.0740 -0.1938
17132TIP3    H172811   0.812   0.475   5.679 -0.3868 -0.1050  0.6977
17132TIP3    H272812   0.811   0.598   5.767 -3.1919  1.2022 -1.0579
17133TIP3   OH272813   4.805   0.320   2.996 -0.1304 -0.2994 -0.4903
17133TIP3    H172814   4.782   0.402   3.039  0.0010 -0.8846  0.7366
17133TIP3    H272815   4.899   0.328   2.978 -0.2303  0.0346 -0.8828
17134TIP3   OH272816   1.618   5.988   4.193  0.2062  0.4607 -0.0153
17134TIP3    H172817   1.569   6.044   4.133 -1.3844 -0.6611  0.1514
17134TIP3    H272818   1.652   6.048   4.260  0.7962  1.5349 -1.2360
17135TIP3   OH272819   0.093   4.396  11.446 -0.2625 -0.0729  0.2326
17135TIP3    H172820   0.180   4.377  11.411  0.2260 -1.3643  2.0064
17135TIP3    H272821   0.043   4.315  11.431 -0.7552  0.2005  0.3815
17136TIP3   OH272822   3.303   0.680   0.298  0.0682 -0.4203 -1.0592
17136TIP3    H172823   3.302   0.584   0.306  1.4714 -0.3137  0.8446
17136TIP3    H272824   3.291   0.712   0.387  1.2133  1.1498 -1.4296
17137TIP3   OH272825   5.472   4.332  15.252 -0.5411  0.4063  1.0588
17137TIP3    H172826   5.501   4.422  15.236 -0.2431  0.7660  3.2890
17137TIP3    H272827   5.524   4.303  15.327 -0.9845 -1.4671  0.6910
17138TIP3   OH272828   2.182   1.250   4.526 -0.1771 -0.0559 -0.7721
17138TIP3    H172829   2.270   1.265   4.492 -0.5177  2.0243 -0.8788
17138TIP3    H272830   2.194   1.197   4.605  1.3578  1.7598  0.2763
17139TIP3   OH272831   6.016   1.477  15.251 -0.0875 -0.1852 -0.2066
17139TIP3    H172832   5.962   1.513  15.321  1.2293 -0.3221  0.9139
17139TIP3    H272833   6.002   1.537  15.177 -2.2590 -0.5908 -0.1896
17140TIP3   OH272834   6.601   6.789   2.600  0.1419  0.5406  0.5011
17140TIP3    H172835   6.506   6.788   2.617  0.3012  0.7151  1.4565
17140TIP3    H272836   6.620   6.701   2.568  0.0107 -0.2815  2.5259
17141TIP3   OH272837   4.475   4.733   3.437  0.7122  0.3836  0.2838
17141TIP3    H172838   4.485   4.644   3.473  0.5698 -0.8240 -2.3952
17141TIP3    H272839   4.388   4.761   3.467 -0.4844 -1.6047 -1.0534
17142TIP3   OH272840   2.997   5.030   5.610  0.2018 -0.3768 -0.5473
17142TIP3    H172841   2.910   5.018   5.572  1.2518 -1.3957 -2.8441
17142TIP3    H272842   3.015   5.124   5.597 -0.4006 -0.2278 -0.3555
17143TIP3   OH272843   0.051   3.170  11.677 -0.3106 -0.8309  0.3935
17143TIP3    H172844   0.000   3.090  11.661  0.2214 -0.8755 -1.3840
17143TIP3    H272845   0.096   3.186  11.594 -0.8413  1.6452  0.5042
17144TIP3   OH272846   2.462   5.445  14.232 -0.8378  0.0298  0.5239
17144TIP3    H172847   2.533   5.397  14.189 -2.0310 -1.3230 -0.0063
17144TIP3    H272848   2.498   5.471  14.316  1.2807  1.9902 -0.8706
17145TIP3   OH272849   4.150   1.492  13.256 -0.0791  0.3556 -0.1309
17145TIP3    H172850   4.166   1.584  13.237 -0.9088  0.5930  0.2520
17145TIP3    H272851   4.116   1.492  13.346 -1.4062 -0.1724 -0.6104
17146TIP3   OH272852   5.241   5.385  14.608 -0.1429  0.9303 -0.1694
17146TIP3    H172853   5.174   5.324  14.578 -1.5324  1.4231  1.7295
17146TIP3    H272854   5.322   5.336  14.605 -1.0260 -0.6087  0.0996
17147TIP3   OH272855   4.744   2.276  14.235 -1.0188  0.2673  0.0568
17147TIP3    H172856   4.717   2.345  14.296  0.7465  1.3659 -0.3257
17147TIP3    H272857   4.744   2.196  14.288 -1.0964  0.9161  1.0748
17148TIP3   OH272858   4.933   1.236   1.787 -0.3406  0.2125 -0.2718
17148TIP3    H172859   4.990   1.253   1.862  0.2433  0.6471 -0.8004
17148TIP3    H272860   4.928   1.141   1.783 -0.0839  0.1773  0.1034
17149TIP3   OH272861   1.419   0.095  11.888  0.0945 -0.2897  0.0002
17149TIP3    H172862   1.506   0.092  11.849 -0.0442  0.0323 -0.3439
17149TIP3    H272863   1.374   0.018  11.854 -0.5039  0.7409 -1.6500
17150TIP3   OH272864   4.641   4.067  16.787  0.1914  0.3846 -0.0185
17150TIP3    H172865   4.580   4.036  16.720  1.0120 -0.2748 -0.4783
17150TIP3    H272866   4.594   4.055  16.869  0.8018 -3.1855 -0.0309
17151TIP3   OH272867   2.215   0.671  14.212  0.4668  0.3772 -0.1561
17151TIP3    H172868   2.229   0.600  14.149  1.3497  1.3440 -1.1044
17151TIP3    H272869   2.141   0.721  14.177  1.2720  1.2052 -0.7377
17152TIP3   OH272870   5.822   5.310   1.585  0.0157 -0.3002  0.0441
17152TIP3    H172871   5.836   5.234   1.529 -0.7211 -0.0468 -0.4987
17152TIP3    H272872   5.904   5.359   1.580  1.2813 -2.0307  1.9837
17153TIP3   OH272873   5.359   6.302  15.447  0.1758  0.3392  0.0393
17153TIP3    H172874   5.391   6.298  15.538  0.3235 -1.5289 -0.0602
17153TIP3    H272875   5.272   6.262  15.451  0.8898 -1.4360 -0.8823
17154TIP3   OH272876   6.701   0.833  15.690  0.0017 -0.6181  0.1485
17154TIP3    H172877   6.618   0.816  15.734  0.4087 -0.3195  1.0666
17154TIP3    H272878   6.701   0.927  15.672  0.3798 -0.5047  0.6956
17155TIP3   OH272879   2.394   4.922  12.482 -0.0519  0.1040 -0.1875
17155TIP3    H172880   2.421   4.962  12.399  1.0333 -1.7058 -0.7689
17155TIP3    H272881   2.468   4.937  12.540  0.7284 -1.6819 -0.6617
17156TIP3   OH272882   3.871   3.787   2.420 -0.6141 -0.3575  0.2766
17156TIP3    H172883   3.891   3.816   2.331 -0.7734  1.5197  0.8187
17156TIP3    H272884   3.932   3.715   2.436 -2.0100 -2.2014 -2.0854
17157TIP3   OH272885   4.084   4.895  13.809  0.1217  0.1287 -0.3547
17157TIP3    H172886   3.991   4.911  13.825  0.2351  0.2754  0.1736
17157TIP3    H272887   4.128   4.925  13.889  0.5250 -0.9519 -0.1595
17158TIP3   OH272888   3.411   1.934  16.988  0.0751  0.1583 -0.2417
17158TIP3    H172889   3.388   1.843  16.968  0.8045 -0.0563 -0.1330
17158TIP3    H272890   3.487   1.952  16.933  0.0822  0.6307 -0.0807
17159TIP3   OH272891   0.675   5.793  13.830  0.4710  0.0143  0.1414
17159TIP3    H172892   0.713   5.864  13.881  0.0268 -0.5459  1.2686
17159TIP3    H272893   0.739   5.777  13.761  0.8351  1.1286  0.2004
17160TIP3   OH272894   2.775   4.748  11.753 -0.0786 -0.3476 -0.1418
17160TIP3    H172895   2.811   4.786  11.833 -1.0312  2.7770 -1.0480
17160TIP3    H272896   2.794   4.655  11.760  1.3238  0.0467  2.9206
17161TIP3   OH272897   4.597   5.642  15.130  0.3429 -0.3152  0.0747
17161TIP3    H172898   4.513   5.596  15.125 -1.0231  2.1693 -2.2553
17161TIP3    H272899   4.639   5.607  15.209 -3.1817 -1.1232  1.7693
17162TIP3   OH272900   6.264   2.191  17.041 -0.2212  0.2891 -0.1155
17162TIP3    H172901   6.207   2.144  16.982 -1.0290  0.3527  0.6026
17162TIP3    H272902   6.268   2.280  17.006 -1.4378  0.5682  0.4249
17163TIP3   OH272903   4.789   6.227  13.227  0.5898 -0.0530  0.0618
17163TIP3    H172904   4.786   6.131  13.226 -2.1489 -0.1311 -2.9630
17163TIP3    H272905   4.859   6.250  13.166  0.0021 -0.2235 -0.6975
17164TIP3   OH272906   1.177   3.542   6.273 -0.1058 -0.4914  0.4486
17164TIP3    H172907   1.260   3.523   6.228 -0.0233 -2.2759  1.2481
17164TIP3    H272908   1.203   3.566   6.362 -0.4259 -4.1650  1.7041
17165TIP3   OH272909   0.453   5.019  11.487 -0.1126  0.1275  0.2426
17165TIP3    H172910   0.537   5.007  11.532 -0.3927  0.7246  0.9448
17165TIP3    H272911   0.429   5.110  11.505 -0.1907  0.4196 -1.2084
17166TIP3   OH272912   0.007   5.607  16.541 -0.4864  0.5304  0.7805
17166TIP3    H172913  -0.077   5.567  16.517 -1.1223  3.0343 -1.8317
17166TIP3    H272914   0.067   5.576  16.473 -0.3559  1.8409  0.2745
17167TIP3   OH272915   2.739   6.023  13.005  0.2236  0.1395  0.7089
17167TIP3    H172916   2.764   6.087  13.072  0.1631  1.7411 -0.7271
17167TIP3    H272917   2.822   5.994  12.968  0.2057  0.3771  0.4812
17168TIP3   OH272918   4.625   6.786  16.886 -0.3153 -0.3020 -0.1953
17168TIP3    H172919   4.604   6.858  16.826  0.3671  0.0877  0.0235
17168TIP3    H272920   4.598   6.707  16.839 -1.6094  0.1219 -0.2024
17169TIP3   OH272921   5.405   3.254  10.935 -0.2053 -0.1959  0.6933
17169TIP3    H172922   5.365   3.210  10.860 -4.0738 -1.7704  3.3482
17169TIP3    H272923   5.478   3.198  10.961  0.6943 -0.0327 -1.3362
17170TIP3   OH272924   3.378   0.119  10.923 -0.1166  0.2029 -0.0975
17170TIP3    H172925   3.333   0.070  10.855  1.3792  1.3528 -2.0173
17170TIP3    H272926   3.368   0.211  10.898  1.5532  0.5958  0.5070
17171TIP3   OH272927   4.382   6.254  11.190  0.6925  0.2456  0.5784
17171TIP3    H172928   4.337   6.244  11.106 -0.6226  1.2092  1.1446
17171TIP3    H272929   4.439   6.330  11.179  1.4442 -0.3579  0.1927
17172TIP3   OH272930   0.722   0.956   5.475  0.3809  0.3661 -0.0477
17172TIP3    H172931   0.721   0.962   5.571 -0.4221 -0.1167 -0.0147
17172TIP3    H272932   0.665   1.028   5.446  1.6535  1.3345 -0.2345
17173TIP3   OH272933   2.173   0.663  15.052 -0.0997 -0.1879 -0.0158
17173TIP3    H172934   2.137   0.632  15.134  0.7177  1.1356  0.8946
17173TIP3    H272935   2.215   0.746  15.074  1.6904 -0.6418 -1.3981
17174TIP3   OH272936   3.848   6.730   1.860  0.2291 -0.3492  0.1027
17174TIP3    H172937   3.943   6.730   1.853  0.2084  1.4712 -0.5596
17174TIP3    H272938   3.828   6.799   1.923 -0.6470 -1.2941  0.9084
17175TIP3   OH272939   0.848   6.407   2.368  0.2219  0.4098 -0.1048
17175TIP3    H172940   0.813   6.324   2.401 -1.0172  1.1969  0.6286
17175TIP3    H272941   0.850   6.396   2.273  0.0262 -0.4363 -0.0169
17176TIP3   OH272942   1.910   1.151   4.499  0.1449 -0.1787  0.0158
17176TIP3    H172943   1.924   1.139   4.593  1.2308 -0.8103 -0.2104
17176TIP3    H272944   1.997   1.137   4.460 -0.4321 -0.6571 -1.1461
17177TIP3   OH272945   3.774   4.549  14.652  0.0068  0.7085  0.6601
17177TIP3    H172946   3.707   4.521  14.590 -0.1511  0.0312  1.1300
17177TIP3    H272947   3.780   4.477  14.715  2.9694 -0.5265 -0.7869
17178TIP3   OH272948   1.544   3.193  11.249  0.3487  0.2372  0.4633
17178TIP3    H172949   1.510   3.275  11.284  1.6678  1.4761 -1.0391
17178TIP3    H272950   1.638   3.195  11.269  0.7699  0.0693 -1.2905
17179TIP3   OH272951   4.315   2.559   0.631 -0.1686  0.2556 -0.2250
17179TIP3    H172952   4.283   2.637   0.675  2.1084  2.1943 -1.7443
17179TIP3    H272953   4.397   2.538   0.675 -0.6466 -1.1981  0.0268
17180TIP3   OH272954   4.452   5.611   1.758 -0.2910 -0.4212  0.5580
17180TIP3    H172955   4.532   5.592   1.808  1.2591  1.1303 -1.1866
17180TIP3    H272956   4.428   5.700   1.785 -0.7520 -0.4450  0.2326
17181TIP3   OH272957   1.911   1.433  14.497  0.5161 -0.0593 -0.1379
17181TIP3    H172958   1.890   1.413  14.406  0.0589  0.0362 -0.0576
17181TIP3    H272959   1.920   1.528  14.499  1.5795 -0.1513 -0.2943
17182TIP3   OH272960   2.400   5.488   2.332  0.0488 -0.4682 -0.2547
17182TIP3    H172961   2.380   5.411   2.279 -0.0352  0.1941 -1.2236
17182TIP3    H272962   2.450   5.454   2.407 -2.0027 -1.7640  0.6020
17183TIP3   OH272963   0.785   3.231  13.659  0.0362 -0.3075 -0.0411
17183TIP3    H172964   0.796   3.147  13.705  0.5584 -2.2435 -3.3801
17183TIP3    H272965   0.873   3.252  13.627 -0.2384  1.1524  0.1246
17184TIP3   OH272966   6.111   1.830   1.804 -0.7240 -0.0814 -0.2319
17184TIP3    H172967   6.182   1.783   1.761  1.1508  1.0681  1.4356
17184TIP3    H272968   6.058   1.865   1.732  1.0730  0.0179 -1.5708
17185TIP3   OH272969   5.994   4.687   1.895 -0.1274  0.7199  0.2143
17185TIP3    H172970   6.041   4.697   1.812 -0.0782  0.3800  0.2006
17185TIP3    H272971   5.902   4.674   1.869  0.2105 -1.8603  0.0828
17186TIP3   OH272972   6.139   3.675  11.757 -0.1607  0.2194  0.0764
17186TIP3    H172973   6.193   3.598  11.774  2.4214  1.7537 -0.6944
17186TIP3    H272974   6.090   3.653  11.677 -1.7229 -1.6461  1.4461
17187TIP3   OH272975   2.048   0.902  14.862 -0.2045 -0.2128 -0.2794
17187TIP3    H172976   2.023   0.842  14.791 -1.8068  0.0118  0.0596
17187TIP3    H272977   2.073   0.982  14.817  2.6550 -1.2669 -0.7882
17188TIP3   OH272978   4.393   3.459   0.383  0.0717  0.2384  0.2752
17188TIP3    H172979   4.454   3.506   0.439  0.8564  0.5005 -0.7605
17188TIP3    H272980   4.335   3.527   0.348  0.5647  0.3036 -0.4298
17189TIP3   OH272981   2.023   6.049   2.718  0.4002 -0.0179 -0.3513
17189TIP3    H172982   2.081   5.986   2.674 -0.6625 -0.0878 -1.7068
17189TIP3    H272983   2.059   6.057   2.806  1.4654 -1.3556 -0.6361
17190TIP3   OH272984   6.124   5.733  17.132 -0.1593  0.2119  0.1025
17190TIP3    H172985   6.098   5.820  17.105  0.8095  0.7590  0.8686
17190TIP3    H272986   6.219   5.732  17.121  0.2415  0.2763  2.8134
17191TIP3   OH272987   5.693   1.597  11.383 -0.1585  0.0059  0.9483
17191TIP3    H172988   5.642   1.623  11.459  0.7608  1.0326  1.2394
17191TIP3    H272989   5.776   1.566  11.419  0.1645  0.1923  0.3847
17192TIP3   OH272990   4.057   3.409   2.204  0.5322  0.0089  0.3849
17192TIP3    H172991   3.965   3.409   2.231 -0.0689 -3.2295 -1.1823
17192TIP3    H272992   4.106   3.402   2.286 -0.9223 -2.9085  1.1460
17193TIP3   OH272993   6.005   4.297  11.672 -0.1747  0.1203 -0.4094
17193TIP3    H172994   5.983   4.235  11.742  0.7973  0.4603  0.2067
17193TIP3    H272995   6.023   4.241  11.596  1.3342 -0.4220  0.3112
17194TIP3   OH272996   0.600   6.380  13.116 -0.3214 -0.7658 -0.5940
17194TIP3    H172997   0.594   6.334  13.200  1.0588  0.4089  0.1826
17194TIP3    H272998   0.521   6.435  13.114 -0.2026 -0.5550  0.0925
17195TIP3   OH272999   0.648   6.225  12.348  0.4965  0.3157 -0.3875
17195TIP3    H173000   0.614   6.187  12.267  0.0477  1.9398 -1.0128
17195TIP3    H273001   0.690   6.306  12.320 -0.7104  1.5211  1.1068
17196TIP3   OH273002   2.103   2.246  13.086 -0.2803  0.9718 -0.2055
17196TIP3    H173003   2.103   2.211  13.175  1.7037  1.0206 -0.1378
17196TIP3    H273004   2.020   2.218  13.049 -1.0268  0.7133  1.5596
17197TIP3   OH273005   2.828   5.724  14.032  0.3808  0.0893  0.9092
17197TIP3    H173006   2.839   5.808  14.075  0.2387  0.1659  0.7986
17197TIP3    H273007   2.798   5.747  13.943  1.9872 -0.0013  0.3099
17198TIP3   OH273008   2.564   6.229  16.636 -0.4736 -0.2878 -0.3338
17198TIP3    H173009   2.519   6.312  16.647 -0.9562  0.0144 -3.7023
17198TIP3    H273010   2.657   6.251  16.637 -0.6036  0.3484 -1.3618
17199TIP3   OH273011   5.863   2.187  13.726  0.2544 -0.6401  0.0007
17199TIP3    H173012   5.787   2.164  13.672 -0.2245 -1.7181  1.0928
17199TIP3    H273013   5.938   2.157  13.675 -0.2412 -2.5723  0.3166
17200TIP3   OH273014   4.743   6.020  14.752  0.4502  0.6454  0.3996
17200TIP3    H173015   4.799   6.031  14.675 -0.0376  1.8326  0.2002
17200TIP3    H273016   4.803   5.992  14.822  0.6921 -1.8422 -0.7102
17201TIP3   OH273017   6.759   1.114  11.980  0.0997  0.3392  0.3662
17201TIP3    H173018   6.780   1.166  12.058  1.0369  2.8962 -1.4620
17201TIP3    H273019   6.844   1.085  11.947 -0.3611 -1.8158  0.8913
17202TIP3   OH273020   6.268   3.410  14.599  0.3614 -0.0604  0.3592
17202TIP3    H173021   6.343   3.358  14.628 -1.7633 -1.7290  3.3983
17202TIP3    H273022   6.296   3.501  14.610  1.4535 -0.6396  2.9699
17203TIP3   OH273023   3.500   2.947  16.989  0.3596 -0.0250  0.7460
17203TIP3    H173024   3.519   3.026  17.041 -0.1314 -0.3906  1.5100
17203TIP3    H273025   3.519   2.875  17.049  0.6660 -0.4824  0.1003
17204TIP3   OH273026   2.655   4.649   4.033  0.1127  0.5142 -0.4549
17204TIP3    H173027   2.630   4.597   3.957  0.1350 -0.3824  0.1340
17204TIP3    H273028   2.600   4.728   4.028 -3.5258 -1.6549  1.1733
17205TIP3   OH273029   1.794   3.330   1.814 -0.3964 -0.1154 -0.2612
17205TIP3    H173030   1.763   3.389   1.883 -0.1285 -0.0460 -0.2021
17205TIP3    H273031   1.779   3.242   1.850 -0.1778 -0.0783 -0.0828
17206TIP3   OH273032   3.377   2.293  17.059  0.3799  0.1839 -0.4350
17206TIP3    H173033   3.330   2.266  16.980 -0.5639  0.9099 -0.1405
17206TIP3    H273034   3.388   2.213  17.110 -1.3293  0.1338 -0.1082
17207TIP3   OH273035   2.063   2.236  14.664  0.2611 -0.0122 -0.2682
17207TIP3    H173036   2.130   2.200  14.723  0.6291  0.2259 -0.5402
17207TIP3    H273037   2.041   2.163  14.606  1.3443  0.3302 -1.1176
17208TIP3   OH273038   3.228   5.410   1.905  0.7845  0.1608  0.1607
17208TIP3    H173039   3.265   5.450   1.983 -0.0958  1.7702 -0.1995
17208TIP3    H273040   3.263   5.463   1.832  0.2497 -0.2474 -0.4045
17209TIP3   OH273041   1.541   5.519  13.267 -0.0579 -0.1591  0.7336
17209TIP3    H173042   1.525   5.444  13.324 -2.0787  0.1639  0.6663
17209TIP3    H273043   1.506   5.594  13.315 -0.3884  0.3502 -0.2739
17210TIP3   OH273044   3.617   2.587  10.705  0.2024 -0.2520  0.1153
17210TIP3    H173045   3.594   2.495  10.690 -2.4199  0.3224  0.2246
17210TIP3    H273046   3.678   2.607  10.634 -0.1168 -1.7541 -0.6310
17211TIP3   OH273047   2.220   1.909  13.617 -0.4848  0.1777 -0.5068
17211TIP3    H173048   2.298   1.940  13.570 -0.4912  0.1962 -0.5051
17211TIP3    H273049   2.244   1.823  13.651 -0.6526 -0.0603 -0.9802
17212TIP3   OH273050   0.638   3.690  16.753 -0.3925  0.2168 -0.2013
17212TIP3    H173051   0.595   3.704  16.669  1.6038  1.9075 -1.0365
17212TIP3    H273052   0.660   3.778  16.783 -0.6059 -0.3982  1.8648
17213TIP3   OH273053   2.620   6.792   3.804 -0.4261  0.1990 -0.5455
17213TIP3    H173054   2.567   6.794   3.884  0.6685 -1.5113  0.2812
17213TIP3    H273055   2.633   6.884   3.782  0.5670  0.8054  2.1706
17214TIP3   OH273056   4.451   2.726   3.289  0.4361  0.1038  0.4425
17214TIP3    H173057   4.504   2.697   3.215  0.1749  0.2404  0.2020
17214TIP3    H273058   4.512   2.726   3.363  0.2919 -1.7124  0.6073
17215TIP3   OH273059   1.307   3.162   0.469  0.0537 -0.0230 -0.0599
17215TIP3    H173060   1.311   3.132   0.560 -0.8200  0.9402  0.3073
17215TIP3    H273061   1.373   3.231   0.464  1.3301 -1.2234 -0.6383
17216TIP3   OH273062   1.576   3.734   5.361  0.0068 -0.5175 -0.7412
17216TIP3    H173063   1.622   3.789   5.298  0.6660 -0.8940 -0.5939
17216TIP3    H273064   1.489   3.722   5.323 -0.2093  0.7523 -0.6896
17217TIP3   OH273065   5.266   6.104   2.626  0.0030  0.0761  0.4510
17217TIP3    H173066   5.311   6.175   2.581  0.2249  0.7780  1.7238
17217TIP3    H273067   5.329   6.073   2.692 -0.7760  0.0043  1.1884
17218TIP3   OH273068   0.573   1.243   1.636  0.1129  0.1382  0.0770
17218TIP3    H173069   0.478   1.251   1.649 -0.2795 -3.4008  0.3376
17218TIP3    H273070   0.585   1.253   1.541 -0.6560 -0.2850 -0.0713
17219TIP3   OH273071   5.893   3.268  10.895 -0.2524 -0.4615 -0.0376
17219TIP3    H173072   5.882   3.241  10.804 -0.8396  0.8302 -0.3743
17219TIP3    H273073   5.836   3.345  10.905 -0.1029 -0.4946  1.3846
17220TIP3   OH273074   5.574   1.501   3.226 -0.6069 -0.3858 -0.0118
17220TIP3    H173075   5.511   1.564   3.262 -2.2298 -2.2321  0.6412
17220TIP3    H273076   5.550   1.418   3.268  3.2357 -0.9894  1.4229
17221TIP3   OH273077   2.273   0.932  17.097  0.3395  0.7798  0.5034
17221TIP3    H173078   2.216   0.927  17.020  2.0333 -0.9396 -0.7433
17221TIP3    H273079   2.235   0.870  17.159  1.7101 -1.7920 -1.0429
17222TIP3   OH273080   3.361   2.596  15.081  0.0680 -0.4269  0.1744
17222TIP3    H173081   3.359   2.665  15.148 -2.3773 -0.2471  0.0059
17222TIP3    H273082   3.372   2.643  14.998 -0.4449 -0.3377  0.1563
17223TIP3   OH273083   4.268   1.012   0.704 -0.0925  0.0535  0.2917
17223TIP3    H173084   4.235   1.101   0.711  0.0020 -0.0082  2.1558
17223TIP3    H273085   4.359   1.021   0.677 -0.2197  0.5028  0.0255
17224TIP3   OH273086   2.029   3.521  10.997 -0.1119 -0.0025 -0.3007
17224TIP3    H173087   2.116   3.557  10.980  0.3851 -1.5450 -1.1640
17224TIP3    H273088   1.972   3.563  10.933  0.0172  0.8626  0.1391
17225TIP3   OH273089   6.383   1.703   2.771 -0.5941  0.6980 -0.3275
17225TIP3    H173090   6.423   1.629   2.816  1.2029 -0.0955 -3.0535
17225TIP3    H273091   6.289   1.687   2.778 -0.2717 -1.1676  0.1698
17226TIP3   OH273092   5.676   1.788  17.071 -0.4446 -0.4707  0.0050
17226TIP3    H173093   5.611   1.735  17.025  1.2280 -1.8261 -0.8736
17226TIP3    H273094   5.734   1.724  17.113  1.2716  0.6601 -0.5603
17227TIP3   OH273095   5.283   1.493  13.676  0.1277 -0.0463 -0.2372
17227TIP3    H173096   5.336   1.565  13.641 -0.0647 -0.1058 -0.6518
17227TIP3    H273097   5.286   1.426  13.608  0.2403 -0.4030  0.1158
17228TIP3   OH273098   3.915   1.552   5.782  0.3902 -0.4225 -0.3096
17228TIP3    H173099   3.857   1.543   5.857  1.4587  3.4356  1.2206
17228TIP3    H273100   3.980   1.483   5.794 -1.7575 -2.5443 -0.1157
17229TIP3   OH273101   2.001   3.743   5.055 -0.2146 -0.6270 -0.3349
17229TIP3    H173102   1.913   3.711   5.077 -0.0404 -0.9294 -0.0616
17229TIP3    H273103   2.007   3.733   4.960  0.0562 -2.0135 -0.2009
17230TIP3   OH273104   2.652   5.443   5.219  0.2147 -0.9671 -0.0150
17230TIP3    H173105   2.594   5.479   5.287  1.0765  0.0921  0.1961
17230TIP3    H273106   2.733   5.423   5.266  1.2037  0.7715 -0.8664
17231TIP3   OH273107   4.902   1.621  12.644  0.2479  0.2443 -0.4905
17231TIP3    H173108   4.985   1.668  12.653 -0.2842  1.0524  0.2599
17231TIP3    H273109   4.847   1.681  12.593 -0.1052  0.0023 -0.3894
17232TIP3   OH273110   3.304   2.497   5.586 -0.0228 -0.1526 -0.8421
17232TIP3    H173111   3.309   2.587   5.554 -1.3893 -0.5334 -2.2495
17232TIP3    H273112   3.222   2.494   5.635  0.9028 -0.1957  0.7606
17233TIP3   OH273113   3.537   3.855   0.895 -0.1581  0.3748 -0.3870
17233TIP3    H173114   3.608   3.825   0.953  0.4754  2.0654 -0.2222
17233TIP3    H273115   3.470   3.888   0.955 -1.0696 -1.1143 -0.5477
17234TIP3   OH273116   6.396   5.813   3.414  0.4168 -0.3850  0.4609
17234TIP3    H173117   6.384   5.721   3.390  2.3154  0.0701 -2.8690
17234TIP3    H273118   6.308   5.848   3.419 -0.3089 -2.1356  0.7564
17235TIP3   OH273119   6.680   6.734   3.052  0.3935  0.3798  0.6109
17235TIP3    H173120   6.587   6.753   3.054  0.4832  0.7367  1.7985
17235TIP3    H273121   6.696   6.681   3.130  1.1315  0.0599  0.2548
17236TIP3   OH273122   2.257   4.020   4.389  0.4129 -0.0645 -0.2032
17236TIP3    H173123   2.241   3.998   4.297  1.7184  0.7834 -0.6730
17236TIP3    H273124   2.225   4.110   4.398 -0.1675 -0.3191  0.3106
17237TIP3   OH273125   6.257   2.303  13.654  0.1780  0.0338  0.0885
17237TIP3    H173126   6.210   2.220  13.647  0.0470  0.0781  0.4041
17237TIP3    H273127   6.300   2.314  13.569 -1.2175  0.4820 -0.5917
17238TIP3   OH273128   3.499   0.304  11.622  0.5132 -0.1519 -0.4084
17238TIP3    H173129   3.411   0.334  11.645  1.1069  0.2589  1.5230
17238TIP3    H273130   3.487   0.252  11.542 -0.9379  3.1039 -2.5368
17239TIP3   OH273131   2.337   4.990  14.778  0.1470  0.1309 -0.5009
17239TIP3    H173132   2.257   4.996  14.832 -1.0869 -1.3617 -2.0436
17239TIP3    H273133   2.365   4.899  14.789  0.8478  0.2807 -1.0612
17240TIP3   OH273134   0.875   1.256   4.893  0.2530 -0.2782 -0.0527
17240TIP3    H173135   0.876   1.231   4.985  0.5289  2.0823  0.6586
17240TIP3    H273136   0.783   1.271   4.873 -0.1430 -3.1855 -0.9835
17241TIP3   OH273137   6.036   1.009   5.903  0.4662  0.0705 -0.0356
17241TIP3    H173138   5.982   0.979   5.830  1.3716 -2.3258  0.1751
17241TIP3    H273139   6.006   0.955   5.977  0.4169  1.5740  1.0690
17242TIP3   OH273140   1.984   6.614  16.196  0.2467  0.4568 -0.0297
17242TIP3    H173141   2.035   6.666  16.133  0.7532 -1.9327 -1.7100
17242TIP3    H273142   1.914   6.574  16.144 -0.0821 -0.6055  1.1737
17243TIP3   OH273143   5.073   5.635  15.840 -0.1260  0.3414  0.4112
17243TIP3    H173144   5.133   5.621  15.913 -0.5237  0.3964  0.7504
17243TIP3    H273145   4.989   5.602  15.871 -0.7300  2.0170  0.6645
17244TIP3   OH273146   4.118   6.252   1.644 -0.0360 -0.0858 -0.3537
17244TIP3    H173147   4.156   6.217   1.564 -0.4819 -0.1991 -0.5162
17244TIP3    H273148   4.126   6.181   1.708  0.4519  0.0543 -0.2498
17245TIP3   OH273149   2.596   0.167  12.088 -0.0855 -0.6263  0.1903
17245TIP3    H173150   2.658   0.208  12.148 -1.4443  0.6254  0.7950
17245TIP3    H273151   2.515   0.159  12.138 -0.5871 -1.7308 -0.7479
17246TIP3   OH273152   2.743   3.027   0.502  0.1367  0.0646 -0.4080
17246TIP3    H173153   2.716   2.972   0.575 -0.6503  1.0769  0.1020
17246TIP3    H273154   2.815   2.980   0.461  0.8647 -0.3553  1.2577
17247TIP3   OH273155   4.885   2.200  12.962 -0.2144 -0.2784  0.2418
17247TIP3    H173156   4.849   2.232  12.879 -0.4235 -0.4706  0.2588
17247TIP3    H273157   4.810   2.159  13.006 -0.0479 -0.3900  0.4191
17248TIP3   OH273158   5.286   6.440   5.342 -0.2237 -0.3300 -0.6419
17248TIP3    H173159   5.244   6.365   5.385  0.3198 -1.2234 -1.6395
17248TIP3    H273160   5.295   6.414   5.251  2.0715  0.0135 -0.5677
17249TIP3   OH273161   2.561   3.202   1.260  0.5598  0.1954 -0.5191
17249TIP3    H173162   2.553   3.263   1.187 -1.1075 -0.7749 -1.2196
17249TIP3    H273163   2.470   3.185   1.287  1.1189  0.5250  1.8105
17250TIP3   OH273164   6.696   1.107  15.679 -0.1705  0.3231  0.0351
17250TIP3    H173165   6.711   1.164  15.604  1.4786 -0.4330 -0.2730
17250TIP3    H273166   6.608   1.128  15.709 -0.4836  1.3492 -1.4986
17251TIP3   OH273167   6.562   3.156   2.192 -0.3558  0.1247 -0.0898
17251TIP3    H173168   6.623   3.223   2.225  0.2115 -0.0689 -0.7074
17251TIP3    H273169   6.606   3.073   2.211 -0.2140 -0.0044 -0.9223
17252TIP3   OH273170   0.855   2.377  12.661 -0.1028  0.8927  0.2232
17252TIP3    H173171   0.839   2.418  12.746 -0.5694 -0.8714  1.0109
17252TIP3    H273172   0.798   2.300  12.660  0.6117  0.3516 -1.2913
17253TIP3   OH273173   4.399   5.977   0.021  0.0003 -0.0171 -0.3453
17253TIP3    H173174   4.481   5.939   0.052  2.3217  2.2392 -3.1185
17253TIP3    H273175   4.403   5.969  -0.075 -2.5052  1.1828 -0.6393
17254TIP3   OH273176   1.187   0.099   6.275 -0.5212  0.0845 -0.0944
17254TIP3    H173177   1.123   0.160   6.238 -0.3323  0.7063  0.5610
17254TIP3    H273178   1.179   0.112   6.370  1.7590  1.4847 -0.0086
17255TIP3   OH273179   1.522   2.719  10.699  0.0370 -0.3222 -0.2518
17255TIP3    H173180   1.547   2.758  10.616 -2.4907  1.5499 -0.2710
17255TIP3    H273181   1.521   2.792  10.761 -2.0610 -0.8150  0.3998
17256TIP3   OH273182   6.578   0.110  13.709 -0.3225 -0.0448  0.8431
17256TIP3    H173183   6.575   0.189  13.763 -0.8739  0.7826 -0.3381
17256TIP3    H273184   6.669   0.105  13.680 -0.5715  0.9611 -0.1793
17257TIP3   OH273185   5.986   1.406   5.720  0.1983  0.2536  0.4217
17257TIP3    H173186   5.956   1.474   5.779  1.3091  0.7948  0.3947
17257TIP3    H273187   6.045   1.352   5.773  0.5101  0.2228  0.0542
17258TIP3   OH273188   6.411   4.331   2.645 -0.4071  0.1607 -0.0193
17258TIP3    H173189   6.491   4.303   2.600 -1.4086 -0.2477 -1.6088
17258TIP3    H273190   6.421   4.296   2.734  0.0977 -2.0538 -0.8620
17259TIP3   OH273191   5.404   3.718   4.694  0.1965  0.1157 -0.3682
17259TIP3    H173192   5.309   3.713   4.690  0.2315 -1.3511  0.2206
17259TIP3    H273193   5.434   3.650   4.633  0.8350 -0.8640  0.9913
17260TIP3   OH273194   0.710   1.577   1.059  0.2119 -0.2847  0.0378
17260TIP3    H173195   0.735   1.669   1.068  0.1293 -0.1125 -1.2830
17260TIP3    H273196   0.791   1.529   1.075  0.8006  0.1412 -1.4829
17261TIP3   OH273197   0.206   3.880   0.413  0.0467 -0.3245  0.1331
17261TIP3    H173198   0.249   3.909   0.494  2.3431 -1.3496 -0.6258
17261TIP3    H273199   0.119   3.853   0.441  0.0981  1.1432  1.9178
17262TIP3   OH273200   1.963   5.700  11.012  0.1438 -0.1671  0.4805
17262TIP3    H173201   1.926   5.756  10.944 -0.8685 -2.0764 -0.6354
17262TIP3    H273202   1.996   5.623  10.964  0.0873 -1.2322  2.0683
17263TIP3   OH273203   2.913   4.637  13.884 -0.0643  0.7284  0.6082
17263TIP3    H173204   2.879   4.674  13.802  0.4310 -0.3917 -0.1365
17263TIP3    H273205   3.007   4.656  13.882  0.3349 -1.0533 -0.1283
17264TIP3   OH273206   5.564   5.723   0.335 -0.0618 -0.3831 -1.0994
17264TIP3    H173207   5.617   5.644   0.342 -1.7424 -1.4484  0.4134
17264TIP3    H273208   5.485   5.695   0.290 -1.8768 -0.3329  1.7936
17265TIP3   OH273209   1.931   3.361  14.526  0.1676 -0.0245 -0.6122
17265TIP3    H173210   2.012   3.332  14.483  1.2090  0.0378  1.2067
17265TIP3    H273211   1.960   3.398  14.609 -1.5593  2.1001 -0.8915
17266TIP3   OH273212   2.227   1.387  15.013 -0.2955 -0.3355  0.5420
17266TIP3    H173213   2.233   1.431  15.098  3.4907 -1.6404  1.1598
17266TIP3    H273214   2.317   1.386  14.981 -1.7110  1.2372 -4.1995
17267TIP3   OH273215   2.624   0.616  13.437 -0.2834 -0.1071  0.0916
17267TIP3    H173216   2.706   0.610  13.486 -0.5236  2.6606  0.9738
17267TIP3    H273217   2.558   0.580  13.496 -0.1571  0.6134  0.6819
17268TIP3   OH273218   5.905   6.739   4.185  0.5991  0.0755 -0.4026
17268TIP3    H173219   5.835   6.680   4.215  1.5904 -2.7545 -3.1390
17268TIP3    H273220   5.926   6.791   4.262 -2.5013 -0.9766  1.3447
17269TIP3   OH273221   5.889   3.234  13.925 -0.4261  0.1721 -0.2485
17269TIP3    H173222   5.958   3.189  13.974 -0.2401  0.0056 -0.6544
17269TIP3    H273223   5.814   3.175  13.930 -0.6760  0.5435  0.5471
17270TIP3   OH273224   5.779   0.259  14.058 -0.9499 -0.2558  0.1607
17270TIP3    H173225   5.812   0.203  14.128  0.5398 -0.2524 -0.4830
17270TIP3    H273226   5.840   0.333  14.056 -0.3048 -0.7640 -1.7510
17271TIP3   OH273227   2.192   4.756   3.425 -0.2524  0.2131 -0.0772
17271TIP3    H173228   2.278   4.767   3.384 -0.4266  0.4200 -0.3873
17271TIP3    H273229   2.130   4.791   3.362 -0.3396  2.9260  1.3770
17272TIP3   OH273230   3.983   2.447   2.281 -0.8243 -0.3345 -0.6803
17272TIP3    H173231   4.043   2.509   2.322 -1.3152 -1.0034  1.1282
17272TIP3    H273232   3.980   2.373   2.341  0.8941 -2.8641 -3.4556
17273TIP3   OH273233   5.827   5.528  11.890 -0.0748  0.2197  0.2262
17273TIP3    H173234   5.796   5.447  11.850  1.3938  0.0187 -0.5628
17273TIP3    H273235   5.765   5.595  11.862 -0.5738 -0.4028 -0.1607
17274TIP3   OH273236   0.732   4.029  13.567  0.1238  0.7924 -0.2188
17274TIP3    H173237   0.715   4.121  13.548 -2.0189  0.6216  0.6418
17274TIP3    H273238   0.732   3.987  13.481 -1.3991  1.2381 -0.4659
17275TIP3   OH273239   3.040   4.602   0.432 -0.1688 -0.1518  0.0459
17275TIP3    H173240   3.089   4.666   0.379 -0.7579  0.0002 -0.3156
17275TIP3    H273241   2.953   4.640   0.441 -0.2876 -0.5278  0.5174
17276TIP3   OH273242   0.187   4.635  13.795 -0.5795 -0.4636  0.2637
17276TIP3    H173243   0.224   4.723  13.805 -1.1958 -0.3677  2.1606
17276TIP3    H273244   0.213   4.589  13.875 -2.1587 -1.2655  0.3565
17277TIP3   OH273245   0.653   0.572   4.860 -0.3450 -0.1771 -0.3755
17277TIP3    H173246   0.703   0.582   4.778  0.9162 -1.5537  0.1733
17277TIP3    H273247   0.695   0.632   4.921 -1.0652  0.5931 -0.6180
17278TIP3   OH273248   4.808   5.825  15.391  0.0417  0.0051  0.4932
17278TIP3    H173249   4.769   5.837  15.304  0.8499  0.9912  0.2466
17278TIP3    H273250   4.845   5.911  15.412 -0.4091 -0.1359  1.9539
17279TIP3   OH273251   3.106   1.247  12.720 -0.2473 -0.0690  0.1812
17279TIP3    H173252   3.119   1.267  12.813 -0.8702  0.3204  0.1872
17279TIP3    H273253   3.174   1.182  12.700  1.2617  1.3636  0.3916
17280TIP3   OH273254   6.104   2.089   4.999 -0.4686  0.2071  0.0780
17280TIP3    H173255   6.155   2.086   5.080 -0.5754 -3.0108  0.1622
17280TIP3    H273256   6.146   2.023   4.943 -0.6599  2.0319 -2.3860
17281TIP3   OH273257   1.327   3.425  16.277 -0.4351  0.4599 -0.1933
17281TIP3    H173258   1.305   3.514  16.250 -0.5545 -0.4338 -3.5072
17281TIP3    H273259   1.245   3.389  16.310 -0.7294  1.1535 -0.1464
17282TIP3   OH273260   3.090   6.745   4.288 -0.4172 -0.1688  0.2867
17282TIP3    H173261   3.077   6.714   4.198  0.5017  0.5845 -0.1340
17282TIP3    H273262   3.185   6.741   4.301 -0.4793  0.3793  0.9799
17283TIP3   OH273263   0.340   2.269   1.684 -0.3926  0.4179  0.2456
17283TIP3    H173264   0.280   2.218   1.738 -2.1204  1.6564 -0.4167
17283TIP3    H273265   0.330   2.232   1.596 -0.1718  0.6458  0.1238
17284TIP3   OH273266   6.354   4.413  11.771  0.0930 -0.9279  0.0877
17284TIP3    H173267   6.363   4.318  11.781 -0.1835 -0.8957  0.6461
17284TIP3    H273268   6.281   4.437  11.829 -0.2837 -0.4700 -0.5618
17285TIP3   OH273269   0.524   6.321  12.710  0.3578  0.2925  0.3913
17285TIP3    H173270   0.517   6.229  12.684  1.9156  0.0378  0.7872
17285TIP3    H273271   0.614   6.346  12.688  0.1393  1.5570  0.8376
17286TIP3   OH273272   6.183   6.391  14.502 -0.3522  0.1270  0.1053
17286TIP3    H173273   6.169   6.471  14.553 -1.2884  1.0974 -1.5534
17286TIP3    H273274   6.096   6.370  14.467  0.2254 -0.5131 -1.0161
17287TIP3   OH273275   0.376   3.024  12.545 -0.7823 -0.8301 -0.1392
17287TIP3    H173276   0.330   3.052  12.624 -2.5970 -0.7050 -1.1844
17287TIP3    H273277   0.359   3.093  12.481  1.0446 -0.6948 -0.5384
17288TIP3   OH273278   1.599   5.285   0.640  0.2937  0.3187 -0.3769
17288TIP3    H173279   1.540   5.361   0.641  1.8919  1.6333  1.7394
17288TIP3    H273280   1.597   5.252   0.730  1.3084 -0.7934 -0.7473
17289TIP3   OH273281   0.365   0.827   2.434  0.0597  0.3219  0.1433
17289TIP3    H173282   0.446   0.777   2.437 -0.5389 -0.7765 -1.1040
17289TIP3    H273283   0.337   0.821   2.342 -1.3341  0.8265  0.5201
17290TIP3   OH273284   5.968   2.674  12.505  0.3428 -0.4369 -0.4321
17290TIP3    H173285   6.016   2.754  12.529 -0.9241 -0.2825  1.8750
17290TIP3    H273286   6.032   2.604  12.517  0.8200  0.0235 -0.2190
17291TIP3   OH273287   2.013   0.975  11.794 -0.3712  0.3540  0.1742
17291TIP3    H173288   1.971   0.975  11.708 -0.1909  0.9648  0.0831
17291TIP3    H273289   1.958   1.031  11.848 -0.5861 -0.1758  0.5172
17292TIP3   OH273290   2.540   2.235  14.403 -0.3759 -0.0264 -0.3809
17292TIP3    H173291   2.511   2.274  14.486  0.4110  0.9975 -0.5712
17292TIP3    H273292   2.496   2.150  14.400 -2.1703  0.8318  0.0408
17293TIP3   OH273293   4.036   2.501  16.316  0.8049 -0.1521 -0.7784
17293TIP3    H173294   4.057   2.408  16.307  0.0858 -0.3440 -0.5377
17293TIP3    H273295   4.089   2.530  16.391 -0.5927 -0.9060  0.5583
17294TIP3   OH273296   5.332   0.572   0.403 -0.3507  0.1897 -0.3408
17294TIP3    H173297   5.311   0.514   0.330  0.2151  0.2582 -0.5614
17294TIP3    H273298   5.282   0.536   0.477  0.1767 -0.7285 -0.4100
17295TIP3   OH273299   1.432   4.742   4.082  0.1731  0.0720  0.2498
17295TIP3    H173300   1.473   4.791   4.010  0.4587  0.4793  0.6834
17295TIP3    H273301   1.418   4.654   4.047  0.8916  0.0886 -0.0912
17296TIP3   OH273302   4.847   0.705   5.943  0.2320  0.0624  0.3371
17296TIP3    H173303   4.843   0.613   5.971  0.5819 -0.2196 -0.5254
17296TIP3    H273304   4.850   0.754   6.026 -1.6498 -0.5916  0.8386
17297TIP3   OH273305   5.603   2.928   1.623  0.2506  0.5834  0.0824
17297TIP3    H173306   5.560   2.872   1.558  0.4377 -2.3600  2.2718
17297TIP3    H273307   5.690   2.945   1.588  0.8893 -2.2043  0.1081
17298TIP3   OH273308   4.927   2.685   1.836 -0.0603  0.2835  0.0776
17298TIP3    H173309   4.982   2.745   1.786  1.1850 -0.3005  0.6822
17298TIP3    H273310   4.899   2.736   1.913  1.0972  0.0893  0.6542
17299TIP3   OH273311   3.114   5.597   4.353 -0.2502 -0.1197 -1.1772
17299TIP3    H173312   3.118   5.525   4.417 -3.7014 -0.2976 -0.9777
17299TIP3    H273313   3.157   5.670   4.397 -2.2650 -0.3101  1.3579
17300TIP3   OH273314   0.390   1.593  13.483  0.0170 -0.0135  0.0692
17300TIP3    H173315   0.469   1.615  13.533 -0.8324  2.1719  0.5627
17300TIP3    H273316   0.318   1.612  13.543 -0.9410 -1.8031 -0.4398
17301TIP3   OH273317   3.152   4.261  14.239 -0.2606  0.2117 -0.1379
17301TIP3    H173318   3.185   4.295  14.322 -2.6544  0.8060  0.6410
17301TIP3    H273319   3.231   4.232  14.193  1.1643 -0.0793  2.2747
17302TIP3   OH273320   3.090   2.725   5.440 -0.2236 -0.1446 -0.3457
17302TIP3    H173321   3.041   2.672   5.377 -2.0103  1.7211 -0.6520
17302TIP3    H273322   3.109   2.806   5.393  1.0145  0.1321  0.5972
17303TIP3   OH273323   1.739   5.575  12.790  0.2047 -0.4383  0.0195
17303TIP3    H173324   1.750   5.625  12.709 -0.1043 -0.4146 -0.0093
17303TIP3    H273325   1.699   5.637  12.852 -1.3008 -0.9596 -0.3736
17304TIP3   OH273326   2.942   6.275   3.756 -0.0971 -0.4901 -0.2139
17304TIP3    H173327   2.998   6.309   3.685  1.9198 -0.7460  1.1543
17304TIP3    H273328   2.913   6.189   3.725 -0.9155  0.2317 -1.5331
17305TIP3   OH273329   5.561   0.441  16.686  0.5579  0.1754  0.3081
17305TIP3    H173330   5.523   0.428  16.774  1.6288 -0.6476  0.6742
17305TIP3    H273331   5.503   0.392  16.628  0.7867 -0.6872  0.7935
17306TIP3   OH273332   0.214   2.705  13.647  0.3062 -0.1889  0.0260
17306TIP3    H173333   0.218   2.770  13.576  2.2490 -0.1616  0.1137
17306TIP3    H273334   0.261   2.745  13.719 -1.6755 -0.2071  1.4126
17307TIP3   OH273335   4.602   4.982   3.476  0.0174 -0.1974 -0.4220
17307TIP3    H173336   4.548   4.903   3.476  0.7508 -0.7078 -0.9412
17307TIP3    H273337   4.688   4.953   3.447  0.5525  0.6264  0.2897
17308TIP3   OH273338   3.248   5.425  15.469  0.1217  0.5900  0.0117
17308TIP3    H173339   3.222   5.510  15.504  0.8671  0.3586  1.1834
17308TIP3    H273340   3.186   5.363  15.507  0.0021  0.5193 -0.2944
17309TIP3   OH273341   0.832   3.064   4.055 -0.0469 -0.3900  0.0131
17309TIP3    H173342   0.915   3.047   4.099 -0.6609 -3.0449  0.3337
17309TIP3    H273343   0.797   2.977   4.035 -2.5484  0.6319 -0.4856
17310TIP3   OH273344   4.282   1.920  11.931  0.0037  0.1622 -0.3497
17310TIP3    H173345   4.344   1.932  11.859  0.0070 -1.1877 -0.5964
17310TIP3    H273346   4.196   1.914  11.888  0.0575 -1.1072 -0.2923
17311TIP3   OH273347   2.261   6.511   1.116 -0.3078 -0.2504  0.3592
17311TIP3    H173348   2.351   6.481   1.129  0.1780 -0.5030 -2.6840
17311TIP3    H273349   2.207   6.432   1.129  0.1769 -0.6694 -0.1337
17312TIP3   OH273350   2.768   0.089   0.345 -0.8869 -0.0294  0.5039
17312TIP3    H173351   2.775   0.078   0.250  1.9007  1.0274  0.5185
17312TIP3    H273352   2.713   0.015   0.373 -0.2621 -1.4313 -1.6952
17313TIP3   OH273353   4.082   2.081   6.687  0.0415 -0.2600 -0.2188
17313TIP3    H173354   4.160   2.080   6.743 -0.9581  1.2659  1.3199
17313TIP3    H273355   4.116   2.085   6.598  1.7506  0.8500  0.4378
17314TIP3   OH273356   0.453   3.494   4.814 -0.1536 -0.0147  0.3217
17314TIP3    H173357   0.407   3.570   4.778 -0.3412  0.7317  2.0572
17314TIP3    H273358   0.536   3.492   4.766 -1.8908 -1.4281 -2.9160
17315TIP3   OH273359   2.864   4.939   1.525  0.0761 -0.1369 -0.0839
17315TIP3    H173360   2.891   5.021   1.566  0.6544  0.3277 -1.3349
17315TIP3    H273361   2.943   4.906   1.482  0.1692 -1.9942  1.3791
17316TIP3   OH273362   3.295   3.202   3.523 -0.2773  0.0169 -0.2357
17316TIP3    H173363   3.379   3.200   3.570 -1.3468  1.8712  1.9413
17316TIP3    H273364   3.320   3.211   3.431  1.9045 -2.4692 -0.0006
17317TIP3   OH273365   5.776   5.164  12.501  0.0909  0.1597 -0.3580
17317TIP3    H173366   5.741   5.076  12.513 -0.2451  0.4821  1.1862
17317TIP3    H273367   5.704   5.212  12.459 -0.7936  0.4053  1.3568
17318TIP3   OH273368   6.653   1.174   5.521  0.1712  0.2853 -0.0738
17318TIP3    H173369   6.662   1.229   5.599 -1.2004 -0.1719  0.4376
17318TIP3    H273370   6.560   1.174   5.502  0.0762 -2.0562  0.1137
17319TIP3   OH273371   6.149   2.977   1.068  0.1957 -0.8061 -0.0523
17319TIP3    H173372   6.056   2.976   1.047  0.2472 -1.0554 -0.2740
17319TIP3    H273373   6.173   3.069   1.068 -0.4099 -0.6163  1.5850
17320TIP3   OH273374   4.504   2.295   4.922 -0.1740  0.3013  0.4587
17320TIP3    H173375   4.579   2.257   4.875  1.4576  2.3668  1.2236
17320TIP3    H273376   4.491   2.235   4.996  0.3753 -0.3865  0.0216
17321TIP3   OH273377   0.058   5.469   4.985 -0.1214 -0.0567 -0.8769
17321TIP3    H173378   0.102   5.437   5.064 -0.3294  0.7039 -0.4466
17321TIP3    H273379   0.063   5.564   4.991  1.0502  0.0211 -2.4550
17322TIP3   OH273380   5.368   5.272  14.366 -0.2222 -0.1533  0.6710
17322TIP3    H173381   5.365   5.367  14.374  0.1757 -0.0381 -0.3511
17322TIP3    H273382   5.422   5.256  14.288 -3.0446 -1.0892 -1.2402
17323TIP3   OH273383   3.729   5.054  15.619  0.6464  0.0850  0.1886
17323TIP3    H173384   3.723   5.099  15.535  1.1445  1.0800  0.6701
17323TIP3    H273385   3.729   4.961  15.596  1.3064  0.3417 -0.9498
17324TIP3   OH273386   0.718   4.420  11.672  0.1292  0.7773 -0.2131
17324TIP3    H173387   0.635   4.451  11.636  0.0471  2.6122  1.4391
17324TIP3    H273388   0.780   4.490  11.653  0.6227  0.7116  1.0692
17325TIP3   OH273389   3.725   1.651   2.599  0.3505  0.1984 -0.4573
17325TIP3    H173390   3.642   1.604   2.613  0.4968 -0.6747 -2.2737
17325TIP3    H273391   3.707   1.741   2.626 -1.1070 -0.0515 -0.5306
17326TIP3   OH273392   2.142   1.364  14.631 -0.2314  0.7817  0.2320
17326TIP3    H173393   2.211   1.400  14.574 -0.3141  2.7243  1.2721
17326TIP3    H273394   2.061   1.389  14.587 -0.3538  3.8225  1.8897
17327TIP3   OH273395   4.509   4.579   0.256  0.1121 -0.0250 -0.0241
17327TIP3    H173396   4.588   4.616   0.296  0.3337 -0.8554  0.3191
17327TIP3    H273397   4.444   4.649   0.263  0.5409  0.3239  0.5694
17328TIP3   OH273398   4.980   0.880   4.400 -0.5315  0.0202  0.6995
17328TIP3    H173399   4.921   0.944   4.440 -0.0850  0.1882  1.0888
17328TIP3    H273400   4.928   0.799   4.395 -0.2052 -0.3959  2.8425
17329TIP3   OH273401   6.208   6.062   5.848  0.8683  0.5305  0.9651
17329TIP3    H173402   6.119   6.081   5.877 -0.5670 -2.0116 -1.3586
17329TIP3    H273403   6.219   5.968   5.864  1.9158  0.1443 -1.5130
17330TIP3   OH273404   3.559   2.742   4.852 -0.7226 -0.5763 -0.9402
17330TIP3    H173405   3.595   2.827   4.824  1.1346 -1.2939 -0.8547
17330TIP3    H273406   3.482   2.730   4.796 -0.9243  1.0705 -1.0845
17331TIP3   OH273407   4.388   1.219  14.928 -0.7144  0.4704 -0.5358
17331TIP3    H173408   4.301   1.180  14.931 -1.6898  2.5398 -0.5579
17331TIP3    H273409   4.442   1.154  14.883 -2.5014 -0.3566 -1.5600
17332TIP3   OH273410   4.743   4.361  16.895 -0.2164  0.2623 -0.0057
17332TIP3    H173411   4.773   4.450  16.876  1.2323 -0.2556 -0.2776
17332TIP3    H273412   4.648   4.368  16.900 -0.0755  1.9624  0.7414
17333TIP3   OH273413   1.542   3.066   1.209 -0.3663 -0.5641 -0.1136
17333TIP3    H173414   1.599   2.990   1.218  1.0164  0.3418 -0.9532
17333TIP3    H273415   1.568   3.125   1.280 -0.2785 -0.1608 -0.4776
17334TIP3   OH273416   6.308   0.092   4.799  0.6217  0.5474 -0.4888
17334TIP3    H173417   6.347   0.168   4.841 -0.5794  0.1503  1.4762
17334TIP3    H273418   6.338   0.017   4.851 -0.9250  0.0389 -0.2640
17335TIP3   OH273419   2.358   6.307  16.895 -0.1768 -0.2131  0.0766
17335TIP3    H173420   2.291   6.347  16.950 -0.5359  0.6851 -0.9647
17335TIP3    H273421   2.430   6.286  16.955 -0.3861  1.1129  0.8268
17336TIP3   OH273422   5.029   6.671   6.123  0.1779 -0.2404 -0.1427
17336TIP3    H173423   5.072   6.700   6.203  1.0659 -0.1410 -0.6521
17336TIP3    H273424   4.948   6.630   6.154  0.7772 -0.7140  0.8429
17337TIP3   OH273425   3.661   5.988   5.258 -0.3069  0.2602  0.1281
17337TIP3    H173426   3.572   6.010   5.230 -1.5293 -1.5161  2.2010
17337TIP3    H273427   3.668   6.027   5.346  0.1617 -1.2810  0.8134
17338TIP3   OH273428   5.181   0.325  12.714 -0.3177 -0.6709  0.5994
17338TIP3    H173429   5.211   0.414  12.697  1.1270 -0.6681  2.8322
17338TIP3    H273430   5.247   0.269  12.673  0.0566 -0.6788  1.1957
17339TIP3   OH273431   3.249   2.130   1.960  0.3120  0.2505 -0.2098
17339TIP3    H173432   3.290   2.205   1.917 -0.6603  0.2640 -1.1480
17339TIP3    H273433   3.322   2.075   1.987  0.9866  0.8857 -0.7108
17340TIP3   OH273434   1.759   4.441   6.170 -0.3988 -0.5189 -0.1552
17340TIP3    H173435   1.683   4.480   6.127 -1.0066 -1.5200 -0.0243
17340TIP3    H273436   1.725   4.361   6.210  0.1215  0.3844  2.2606
17341TIP3   OH273437   0.616   0.368  10.801  0.7136  0.5766 -0.4579
17341TIP3    H173438   0.568   0.301  10.753  2.0764  0.3229 -1.5402
17341TIP3    H273439   0.593   0.450  10.757 -1.6595  1.0225  1.4249
17342TIP3   OH273440   3.626   1.659   0.935 -0.4397 -0.1819 -0.0529
17342TIP3    H173441   3.675   1.603   0.996 -1.1457 -1.7583 -0.8785
17342TIP3    H273442   3.536   1.657   0.966 -0.3841  0.9475  0.2108
17343TIP3   OH273443   1.341   6.186   3.817  0.4606  0.0254  0.1522
17343TIP3    H173444   1.346   6.116   3.883 -0.2686  0.4626  0.6827
17343TIP3    H273445   1.290   6.255   3.859  0.7735  0.6910 -0.5424
17344TIP3   OH273446   2.170   3.702  16.931  0.7267  0.2956  0.2001
17344TIP3    H173447   2.147   3.795  16.932  0.5011  0.3315  3.7193
17344TIP3    H273448   2.143   3.672  16.844 -2.9953  2.6322  0.3069
17345TIP3   OH273449   6.193   2.333   2.061  0.3897  0.2645  0.1841
17345TIP3    H173450   6.269   2.387   2.042 -0.5588  1.2608 -0.9270
17345TIP3    H273451   6.120   2.394   2.065 -0.4223 -0.7142  0.8324
17346TIP3   OH273452   0.951   2.751  14.940  0.4364 -0.3758  0.3440
17346TIP3    H173453   0.998   2.827  14.974  1.2884 -1.1713  0.9893
17346TIP3    H273454   0.921   2.777  14.853  1.9810  0.1945 -0.0285
17347TIP3   OH273455   1.705   2.180   3.400 -0.8220  0.5388 -0.2434
17347TIP3    H173456   1.742   2.116   3.338 -1.1556  1.3528 -1.3018
17347TIP3    H273457   1.780   2.233   3.426 -0.8526  0.8062 -0.6971
17348TIP3   OH273458   6.105   5.823  15.945  0.8432  0.4935  0.6449
17348TIP3    H173459   6.184   5.769  15.937  0.5959 -0.3152  2.7738
17348TIP3    H273460   6.069   5.797  16.030 -0.8468  2.0071  0.4216
17349TIP3   OH273461   4.259   6.725  12.137  0.1994  0.3924 -0.1773
17349TIP3    H173462   4.293   6.802  12.092 -0.2025  0.2428 -0.7474
17349TIP3    H273463   4.175   6.708  12.095  0.4137 -0.5294 -0.2591
17350TIP3   OH273464   1.525   4.631   0.346  0.0577 -0.3268 -0.2351
17350TIP3    H173465   1.541   4.657   0.437  0.0109 -0.1933 -0.2639
17350TIP3    H273466   1.598   4.668   0.298  0.3760 -0.8659 -0.1751
17351TIP3   OH273467   1.622   0.680   2.941 -0.8352  0.3247  0.0303
17351TIP3    H173468   1.596   0.602   2.893 -1.0666 -0.8935  2.0323
17351TIP3    H273469   1.718   0.679   2.939 -0.8406  0.3067 -0.3897
17352TIP3   OH273470   1.907   4.957  11.733 -0.2998  0.1892  0.3745
17352TIP3    H173471   1.826   4.922  11.693 -0.1784 -0.2545  0.5064
17352TIP3    H273472   1.964   4.881  11.739 -0.2267  0.3075  1.1725
17353TIP3   OH273473   0.291   4.052   2.327 -0.1496  0.0899 -0.6435
17353TIP3    H173474   0.243   4.083   2.250  1.4772  2.8459 -0.6871
17353TIP3    H273475   0.380   4.036   2.295  0.1442 -0.3058  0.3337
17354TIP3   OH273476   1.606   0.588   0.646 -0.0021  0.0695  0.2760
17354TIP3    H173477   1.696   0.578   0.614 -0.1485 -0.3830 -0.0037
17354TIP3    H273478   1.588   0.506   0.691 -0.2878  0.1486  0.3044
17355TIP3   OH273479   4.387   4.841   4.113 -0.1274  0.2119 -0.3547
17355TIP3    H173480   4.439   4.825   4.034  1.0917 -1.3818  0.7111
17355TIP3    H273481   4.308   4.885   4.081  0.1403 -0.7477 -2.5055
17356TIP3   OH273482   4.173   0.825  13.753  0.2917  0.4753  0.0113
17356TIP3    H173483   4.110   0.895  13.769  2.6891  2.5948  0.9036
17356TIP3    H273484   4.247   0.845  13.812  1.6909 -2.0197 -0.7335
17357TIP3   OH273485   2.840   2.087   4.048  0.1014 -0.3313  0.1275
17357TIP3    H173486   2.816   1.998   4.075 -0.3146 -0.4510 -0.6038
17357TIP3    H273487   2.896   2.119   4.118  0.2486 -1.1705  0.4032
17358TIP3   OH273488   1.439   3.398  11.407  0.2864 -0.2680  0.1822
17358TIP3    H173489   1.534   3.410  11.414  0.2986 -0.1001 -0.2574
17358TIP3    H273490   1.416   3.348  11.485  0.7183 -0.2043  0.3556
17359TIP3   OH273491   2.468   4.660  13.264  0.1551  0.4354 -0.2782
17359TIP3    H173492   2.497   4.642  13.354 -2.3752 -0.1841  0.4831
17359TIP3    H273493   2.550   4.670  13.215  1.6610 -1.3799  1.6424
17360TIP3   OH273494   0.063   5.630   2.695 -0.1012 -0.0577  0.0382
17360TIP3    H173495   0.140   5.584   2.662 -0.3793 -1.2931  1.0352
17360TIP3    H273496  -0.006   5.611   2.631  0.6765  2.0968 -1.5437
17361TIP3   OH273497   5.947   2.444   2.792  0.1486 -0.1112  0.1543
17361TIP3    H173498   5.946   2.534   2.825  2.4682  0.3601 -0.8210
17361TIP3    H273499   5.996   2.394   2.858 -0.3984 -0.4793  0.2864
17362TIP3   OH273500   3.459   2.979  12.003 -0.0430  0.3125 -0.5249
17362TIP3    H173501   3.554   2.964  12.005  0.5605  2.9936 -2.5169
17362TIP3    H273502   3.448   3.068  12.037 -1.9867 -0.2403  0.4244
17363TIP3   OH273503   4.067   6.497   3.373 -0.1874  0.1191 -0.2120
17363TIP3    H173504   4.087   6.447   3.294  2.9246  0.7003  0.0997
17363TIP3    H273505   4.133   6.470   3.436 -1.3899  1.1310  1.5660
17364TIP3   OH273506   1.461   1.247   2.059  0.4515  0.5510 -0.2955
17364TIP3    H173507   1.376   1.214   2.089  1.2667 -2.2017 -0.7004
17364TIP3    H273508   1.459   1.235   1.964  0.7832  1.8311 -0.4750
17365TIP3   OH273509   6.520   6.587   4.435 -0.1598 -0.4325 -0.3816
17365TIP3    H173510   6.480   6.674   4.430 -1.5203 -1.0772 -5.3570
17365TIP3    H273511   6.609   6.603   4.465 -0.8673  2.4128  0.4862
17366TIP3   OH273512   4.542   0.119   4.362  0.0470 -0.4816  0.3876
17366TIP3    H173513   4.525   0.027   4.378 -0.8305 -0.8389 -2.1962
17366TIP3    H273514   4.539   0.159   4.449 -2.2450 -2.4458  1.3187
17367TIP3   OH273515   4.231   3.139  16.544 -1.0116  0.0649 -0.1329
17367TIP3    H173516   4.195   3.083  16.476 -0.1315 -1.1885  0.3941
17367TIP3    H273517   4.221   3.088  16.625 -1.0677  1.0799  0.5242
17368TIP3   OH273518   1.391   3.220  14.081  0.4767 -0.2421  0.6704
17368TIP3    H173519   1.351   3.299  14.116 -0.8111 -0.4981 -0.1353
17368TIP3    H273520   1.404   3.239  13.988  0.1116 -0.9786  0.4589
17369TIP3   OH273521   0.345   3.671  14.537  0.1884  0.2023  0.5778
17369TIP3    H173522   0.337   3.715  14.452 -0.0232  0.2148  0.6030
17369TIP3    H273523   0.435   3.686  14.563  0.4715 -0.4320  0.0098
17370TIP3   OH273524   4.418   1.954  16.822  0.6401 -0.0605  0.4065
17370TIP3    H173525   4.381   1.867  16.841  1.0698 -0.3884 -0.2291
17370TIP3    H273526   4.496   1.936  16.770  1.0997  0.6801  0.8158
17371TIP3   OH273527   2.628   2.516  14.816 -0.5697 -0.1063  0.7824
17371TIP3    H173528   2.670   2.436  14.849 -1.1103 -1.5040 -1.6679
17371TIP3    H273529   2.538   2.511  14.848 -0.3284  0.0988  1.5179
17372TIP3   OH273530   2.327   5.983  14.259  0.1936  0.2204  0.1374
17372TIP3    H173531   2.296   5.973  14.349  1.6044  1.2128  0.7811
17372TIP3    H273532   2.388   5.910  14.246  0.1280  0.1827  0.0338
17373TIP3   OH273533   1.957   4.648   0.677 -0.5838 -0.5061 -0.4214
17373TIP3    H173534   1.922   4.608   0.756 -1.9047  0.0968 -0.6702
17373TIP3    H273535   2.034   4.697   0.706 -0.9408 -0.4528  0.4384
17374TIP3   OH273536   6.628   5.461  11.803 -0.0281  0.5568 -0.1442
17374TIP3    H173537   6.708   5.488  11.757  3.2669 -3.2729  2.6169
17374TIP3    H273538   6.597   5.385  11.755  0.2262 -0.1787  0.8201
17375TIP3   OH273539   6.604   0.483  15.009  0.1626  0.3764 -0.0911
17375TIP3    H173540   6.631   0.400  15.049  0.0847 -0.0695 -0.9485
17375TIP3    H273541   6.509   0.485  15.019  0.2420  0.7861  0.7081
17376TIP3   OH273542   6.638   5.915   2.993  0.1417  0.4512  0.1498
17376TIP3    H173543   6.731   5.903   2.972  0.0029 -1.7094  0.4878
17376TIP3    H273544   6.596   5.837   2.958 -1.2184  0.3653  1.8498
17377TIP3   OH273545   6.227   3.136   5.700 -0.5038  0.0535 -0.7434
17377TIP3    H173546   6.143   3.121   5.742  0.3821  0.2188  1.1932
17377TIP3    H273547   6.222   3.088   5.617 -1.7808 -1.6036  0.2303
17378TIP3   OH273548   1.242   2.344  16.218  0.0845  0.0159  0.1477
17378TIP3    H173549   1.228   2.438  16.231 -1.2413 -0.2476  0.7258
17378TIP3    H273550   1.249   2.335  16.123  2.1487  0.9285  0.1559
17379TIP3   OH273551   0.926   2.414   5.375 -0.5515 -0.0679 -0.2167
17379TIP3    H173552   0.881   2.330   5.360  0.0318 -0.3122 -0.6304
17379TIP3    H273553   0.938   2.451   5.288  0.4340 -0.2113 -0.1544
17380TIP3   OH273554   0.460   3.583   2.392  0.8218  0.0523  0.1729
17380TIP3    H173555   0.547   3.557   2.422  0.4236 -2.1475 -0.3540
17380TIP3    H273556   0.465   3.678   2.381  2.6627  0.1808  1.6405
17381TIP3   OH273557   4.270   5.533   4.635 -0.0187 -0.4716  0.3898
17381TIP3    H173558   4.335   5.588   4.679 -1.5663  1.0098  0.9647
17381TIP3    H273559   4.287   5.545   4.542 -0.1757  0.8393  0.5107
17382TIP3   OH273560   2.388   6.477  11.950 -0.2761  0.4985  0.5318
17382TIP3    H173561   2.483   6.480  11.936 -0.3236  0.6314  0.2193
17382TIP3    H273562   2.376   6.514  12.037  0.0292 -0.3290  0.9378
17383TIP3   OH273563   5.532   1.232  15.195 -0.5457  0.0096  0.2033
17383TIP3    H173564   5.540   1.178  15.116  1.9460  0.4867  0.0271
17383TIP3    H273565   5.461   1.192  15.245 -1.8036 -0.6486 -1.9842
17384TIP3   OH273566   4.370   3.656   5.286 -0.1751 -0.4130 -0.3198
17384TIP3    H173567   4.389   3.662   5.379 -2.3113 -0.1069  0.1463
17384TIP3    H273568   4.415   3.732   5.247  0.7477 -0.5582  0.4222
17385TIP3   OH273569   1.994   6.409  14.965 -0.2618  0.6671 -0.0319
17385TIP3    H173570   1.945   6.403  14.883 -1.1718 -0.5845  0.5629
17385TIP3    H273571   1.990   6.502  14.988  1.1112  1.2954 -2.0045
17386TIP3   OH273572   4.099   6.355   3.127  0.1962  0.3833 -0.2225
17386TIP3    H173573   4.185   6.324   3.098 -0.0067 -1.3372  0.8715
17386TIP3    H273574   4.061   6.280   3.173 -0.2171  2.2918  2.8784
17387TIP3   OH273575   0.649   4.859   5.704  0.4170 -0.3753  0.6311
17387TIP3    H173576   0.714   4.829   5.767 -0.0013 -2.0099  0.3465
17387TIP3    H273577   0.668   4.808   5.625  1.8862  2.6796 -1.1584
17388TIP3   OH273578   0.003   5.180  14.525 -0.7091 -0.4723  0.3164
17388TIP3    H173579   0.039   5.268  14.536  0.1812 -0.8050  0.1302
17388TIP3    H273580  -0.045   5.162  14.606  0.9415 -0.6651  1.2922
17389TIP3   OH273581   6.111   2.310  12.121  0.1766  0.0686 -0.1694
17389TIP3    H173582   6.057   2.388  12.127  1.2370  0.8071  0.0661
17389TIP3    H273583   6.133   2.303  12.028 -0.6747 -0.4948 -0.3398
17390TIP3   OH273584   3.735   5.526  12.826 -0.6604 -0.0131 -0.4301
17390TIP3    H173585   3.720   5.620  12.816  0.4012  0.0904 -1.1571
17390TIP3    H273586   3.665   5.497  12.884 -1.5222  1.0632 -0.9002
17391TIP3   OH273587   3.592   0.095   5.350 -0.0213 -0.5110 -0.3773
17391TIP3    H173588   3.656   0.032   5.383  2.9155  2.0363 -0.7595
17391TIP3    H273589   3.566   0.145   5.427 -1.2633 -1.2425 -0.3019
17392TIP3   OH273590   3.927   4.024  15.919 -0.2958  0.1671 -0.2354
17392TIP3    H173591   3.998   4.087  15.907 -2.0148  2.1745 -0.3628
17392TIP3    H273592   3.926   3.973  15.838  1.8547 -0.8847  0.3295
17393TIP3   OH273593   5.668   5.321  12.917 -0.6013  0.3247 -0.1161
17393TIP3    H173594   5.605   5.262  12.875 -0.9742  0.7338 -0.1408
17393TIP3    H273595   5.699   5.377  12.846  2.5595 -2.1731 -0.9260
17394TIP3   OH273596   0.471   3.456  14.852 -0.6248  0.6853 -0.2990
17394TIP3    H173597   0.532   3.434  14.781 -1.8494 -1.0870 -0.8560
17394TIP3    H273598   0.487   3.549  14.869  1.0301  0.6814 -1.5799
17395TIP3   OH273599   5.087   1.954  12.168 -0.7911  0.3470 -0.1438
17395TIP3    H173600   5.147   2.028  12.163 -1.4065  0.7885 -1.1891
17395TIP3    H273601   5.008   1.983  12.122 -1.0236 -0.9608 -0.6170
17396TIP3   OH273602   6.085   0.442  15.387  0.2851  0.1754 -0.1291
17396TIP3    H173603   6.174   0.428  15.355 -0.1089 -0.1485 -1.1059
17396TIP3    H273604   6.032   0.454  15.308 -0.2890  1.9685  0.4784
17397TIP3   OH273605   2.106   5.460  13.445 -0.2508  0.3855  0.1843
17397TIP3    H173606   2.056   5.379  13.453 -0.6222  0.5058 -0.7712
17397TIP3    H273607   2.193   5.432  13.417 -0.4463  0.3238 -0.3760
17398TIP3   OH273608   0.385   3.036  11.489 -0.4128 -0.0191  0.5177
17398TIP3    H173609   0.345   3.123  11.495 -2.5940 -0.9945  1.2877
17398TIP3    H273610   0.386   3.016  11.396  0.6002  1.0143  0.2889
17399TIP3   OH273611   4.379   6.704   2.211  0.0585 -0.2017  0.2878
17399TIP3    H173612   4.315   6.672   2.148  0.6024 -2.6072  0.8767
17399TIP3    H273613   4.351   6.794   2.230 -1.6614 -0.3419 -1.3102
17400TIP3   OH273614   3.594   0.068  16.979 -0.0182 -0.2568 -0.4714
17400TIP3    H173615   3.611   0.089  17.071 -0.7302  1.0477 -0.6051
17400TIP3    H273616   3.583  -0.027  16.977  3.2474 -0.7591  0.2367
17401TIP3   OH273617   5.612   1.737  11.151 -0.1194  0.3666  0.6600
17401TIP3    H173618   5.640   1.686  11.227 -2.4019  0.2129  1.5002
17401TIP3    H273619   5.543   1.795  11.186 -0.5923  0.9509 -1.1181
17402TIP3   OH273620   3.883   2.996   1.496 -0.4013 -0.2267  0.0883
17402TIP3    H173621   3.790   3.007   1.476 -0.5613 -0.9728  0.3659
17402TIP3    H273622   3.925   2.986   1.411 -0.3728  1.4442 -0.1175
17403TIP3   OH273623   2.714   6.733   1.178 -0.4089  0.3927 -0.0154
17403TIP3    H173624   2.620   6.715   1.179  0.0161 -2.2415  0.2822
17403TIP3    H273625   2.735   6.744   1.085 -0.8774  0.2722 -0.1377
17404TIP3   OH273626   1.786   5.132   3.921 -0.3953  0.0020 -0.2131
17404TIP3    H173627   1.813   5.092   4.004  1.6762 -0.3393 -1.0090
17404TIP3    H273628   1.690   5.131   3.924 -0.3826 -2.3739  1.0394
17405TIP3   OH273629   5.822   6.344   1.386 -0.6102 -0.2375 -0.0272
17405TIP3    H173630   5.799   6.334   1.478 -3.2456 -1.3699 -0.6977
17405TIP3    H273631   5.838   6.255   1.355  2.3420  0.2923 -0.2757
17406TIP3   OH273632   5.329   0.216   1.057  0.1325 -0.0025  0.1118
17406TIP3    H173633   5.384   0.158   1.110  0.5493  1.5671  1.5044
17406TIP3    H273634   5.381   0.234   0.979  2.6476  2.9519  2.2124
17407TIP3   OH273635   2.859   2.406  15.769 -1.0749  0.0346  0.1785
17407TIP3    H173636   2.932   2.387  15.711 -0.5484  1.1407  0.4671
17407TIP3    H273637   2.812   2.478  15.726 -2.2047 -0.8828 -0.1759
17408TIP3   OH273638   2.151   0.370  15.991 -0.4578  0.0402  0.1656
17408TIP3    H173639   2.192   0.317  16.059  0.8134  0.2705 -0.3884
17408TIP3    H273640   2.210   0.444  15.979 -1.9197  1.3221  0.5271
17409TIP3   OH273641   3.247   5.367  10.653  0.4316 -0.2883 -0.0666
17409TIP3    H173642   3.306   5.292  10.648  1.1498  0.0492  2.1744
17409TIP3    H273643   3.300   5.441  10.623  0.6995 -0.2255  0.5411
17410TIP3   OH273644   2.438   5.064  16.004  0.2268 -0.1214 -0.4094
17410TIP3    H173645   2.426   5.149  16.047  2.4035  0.1187 -0.1270
17410TIP3    H273646   2.441   5.084  15.911 -0.3044 -0.0524 -0.4148
17411TIP3   OH273647   1.023   3.733   3.597  0.7259  0.6142 -0.0903
17411TIP3    H173648   0.997   3.759   3.685  2.1233 -1.7682  1.1536
17411TIP3    H273649   0.950   3.678   3.566  1.2580 -0.5549  0.6430
17412TIP3   OH273650   3.802   3.988   0.112  1.1218  0.7461 -0.3825
17412TIP3    H173651   3.762   4.000   0.026 -1.3043  0.2141  0.5956
17412TIP3    H273652   3.799   4.075   0.152 -0.3737  0.4538  0.1900
17413TIP3   OH273653   6.102   3.743   0.546 -0.3614 -0.5383  0.6311
17413TIP3    H173654   6.111   3.656   0.507  0.3945 -0.3901  0.4421
17413TIP3    H273655   6.191   3.767   0.571 -0.6041  0.0638  0.9421
17414TIP3   OH273656   1.512   2.617  16.352  0.1636  0.1806  0.7454
17414TIP3    H173657   1.552   2.686  16.405 -0.9240  1.4208  0.0288
17414TIP3    H273658   1.582   2.552  16.340  1.4983  1.5653  0.7218
17415TIP3   OH273659   0.572   1.042  15.977  0.3661  0.0292 -0.3924
17415TIP3    H173660   0.590   0.963  15.926  0.7496 -1.1598  1.4495
17415TIP3    H273661   0.476   1.048  15.978  0.2465 -1.2771  0.5627
17416TIP3   OH273662   2.611   2.199  16.049 -0.4551  0.2632 -0.0968
17416TIP3    H173663   2.696   2.155  16.053 -0.7122 -0.1573  1.6664
17416TIP3    H273664   2.562   2.162  16.122 -2.4562 -0.0543 -1.5052
17417TIP3   OH273665   3.261   0.401   0.803 -0.4421  1.0097  0.2895
17417TIP3    H173666   3.169   0.413   0.829 -0.2384  0.0502  1.5224
17417TIP3    H273667   3.306   0.382   0.884  0.6010 -0.0530 -0.5179
17418TIP3   OH273668   0.435   0.432  14.303 -0.0296  0.7898  0.8440
17418TIP3    H173669   0.441   0.404  14.212  1.0414 -3.7088  2.0734
17418TIP3    H273670   0.526   0.434  14.334 -0.5046 -0.7041  2.5094
17419TIP3   OH273671   2.336   3.044   5.553  0.2984  0.2099 -0.2537
17419TIP3    H173672   2.336   3.139   5.539 -1.0441  0.3826  0.7656
17419TIP3    H273673   2.404   3.029   5.618 -0.3255  0.6364  0.5048
17420TIP3   OH273674   2.469   2.276   1.027 -0.0901  0.1088  0.2890
17420TIP3    H173675   2.378   2.304   1.025 -0.5544 -1.0595  2.0917
17420TIP3    H273676   2.489   2.267   1.120  1.3759 -1.1758 -0.1046
17421TIP3   OH273677   4.793   1.029   5.109 -0.1165 -0.1167 -0.3445
17421TIP3    H173678   4.777   1.105   5.053 -0.5450 -0.0324 -0.1140
17421TIP3    H273679   4.728   0.965   5.082 -0.5555  0.0495  0.2713
17422TIP3   OH273680   1.260   4.368  13.806 -0.0788  0.4721 -0.3335
17422TIP3    H173681   1.309   4.286  13.798  3.0682  2.0484  0.7507
17422TIP3    H273682   1.314   4.433  13.760 -1.6638  2.2155  0.1298
17423TIP3   OH273683   6.027   1.119  10.763 -0.0299 -0.2554  0.0467
17423TIP3    H173684   5.994   1.187  10.704 -1.9075 -0.6616  0.5517
17423TIP3    H273685   5.990   1.037  10.729 -0.1708 -0.6407  1.0908
17424TIP3   OH273686   3.737   3.372   1.820  0.1395 -0.1062  0.4348
17424TIP3    H173687   3.715   3.404   1.907 -0.3208  1.7833 -0.3014
17424TIP3    H273688   3.823   3.331   1.830 -0.6550 -1.4671  2.0690
17425TIP3   OH273689   6.257   5.375   4.717  0.4656 -0.3009  0.2216
17425TIP3    H173690   6.331   5.317   4.734 -0.1159 -0.8491  0.9471
17425TIP3    H273691   6.189   5.317   4.682 -0.2471 -0.1287  1.2888
17426TIP3   OH273692   5.492   2.759  11.785  0.1880  0.5461  0.3869
17426TIP3    H173693   5.431   2.693  11.752  0.8746  0.0131  0.1474
17426TIP3    H273694   5.522   2.805  11.706 -0.2786  1.1432  0.5521
17427TIP3   OH273695   5.600   3.795  11.436  0.0883 -0.2206  0.2119
17427TIP3    H173696   5.516   3.832  11.462 -0.1592 -1.1524  0.7888
17427TIP3    H273697   5.609   3.817  11.343 -0.2815  0.8175  0.4176
17428TIP3   OH273698   6.146   5.056   0.157  0.2009 -0.4743 -0.1942
17428TIP3    H173699   6.220   4.996   0.158  1.0789  0.5844  0.3718
17428TIP3    H273700   6.164   5.117   0.086 -0.3700 -0.4949 -0.3663
17429TIP3   OH273701   5.552   3.201  12.508  0.5028  0.0695  0.1971
17429TIP3    H173702   5.604   3.123  12.528 -0.5117 -0.3865  1.1531
17429TIP3    H273703   5.597   3.272  12.553  1.0317 -0.0794 -0.0856
17430TIP3   OH273704   1.147   5.531   1.927  0.4774 -0.2600  0.7116
17430TIP3    H173705   1.119   5.623   1.931  0.5933 -0.1050 -1.3312
17430TIP3    H273706   1.066   5.482   1.917  0.5195 -0.2755  0.4555
17431TIP3   OH273707   5.706   4.660  10.870  0.1523  0.5486 -0.5239
17431TIP3    H173708   5.628   4.638  10.920  0.4952  0.9202  0.1888
17431TIP3    H273709   5.711   4.592  10.802 -1.5610  1.3273 -1.4731
17432TIP3   OH273710   6.497   5.136  16.632 -0.1661 -0.0662 -0.6452
17432TIP3    H173711   6.545   5.054  16.647 -1.1656 -0.4695  0.4867
17432TIP3    H273712   6.431   5.112  16.567 -0.6144 -0.2172 -0.1321
17433TIP3   OH273713   1.209   4.037   5.334  0.5542 -0.3384  0.1467
17433TIP3    H173714   1.190   4.130   5.321  2.1357 -0.0551 -0.3513
17433TIP3    H273715   1.188   4.020   5.426  0.4901  0.5721  0.3065
17434TIP3   OH273716   5.235   1.836   4.576  0.3517 -0.4555  0.2136
17434TIP3    H173717   5.231   1.929   4.554 -0.3455 -0.2607  1.1012
17434TIP3    H273718   5.306   1.801   4.522  0.4234  0.5308 -0.3420
17435TIP3   OH273719   2.302   0.544   0.998  0.0330  0.2940  0.4098
17435TIP3    H173720   2.265   0.461   0.968 -3.1406  1.8680 -0.4099
17435TIP3    H273721   2.360   0.571   0.927 -0.2303 -0.4224 -0.0905
17436TIP3   OH273722   4.714   4.183   5.364  0.4205 -0.3562 -0.3259
17436TIP3    H173723   4.809   4.192   5.373  0.4631 -0.9369 -0.1553
17436TIP3    H273724   4.696   4.211   5.275  0.7060  0.0863 -0.2499
17437TIP3   OH273725   1.693   5.196  14.350 -0.3423 -0.4480 -0.4377
17437TIP3    H173726   1.599   5.202  14.338 -0.0848  0.9162 -2.3356
17437TIP3    H273727   1.716   5.109  14.316 -1.0050 -1.2878  1.1622
17438TIP3   OH273728   0.223   0.501  13.295 -0.2430 -0.1812  0.5551
17438TIP3    H173729   0.184   0.506  13.208  0.0493  1.1481  0.4777
17438TIP3    H273730   0.165   0.555  13.350  0.9470  1.0831  0.6296
17439TIP3   OH273731   1.367   1.913  15.513  0.1966 -0.2487 -0.1384
17439TIP3    H173732   1.274   1.931  15.523  0.2174 -0.1379 -0.1439
17439TIP3    H273733   1.391   1.866  15.593 -0.0032 -0.8503 -0.4218
17440TIP3   OH273734   0.887   2.070   1.328 -0.0600  0.3032  0.2069
17440TIP3    H173735   0.803   2.033   1.356 -0.6179  0.9402 -0.5692
17440TIP3    H273736   0.877   2.164   1.341 -0.4271  0.6703 -2.2178
17441TIP3   OH273737   0.676   5.378  11.359  0.1023  0.5707  0.0859
17441TIP3    H173738   0.739   5.416  11.421  0.1474  0.7886 -0.0885
17441TIP3    H273739   0.679   5.437  11.283  0.3339  0.0932 -0.2817
17442TIP3   OH273740   1.148   5.050  13.139 -0.7183  0.3080  0.0868
17442TIP3    H173741   1.075   5.112  13.140 -1.1709 -0.2020 -0.5066
17442TIP3    H273742   1.225   5.104  13.117 -0.5206  1.2091  2.6371
17443TIP3   OH273743   3.090   6.567  17.121  0.2423  0.0877  0.1010
17443TIP3    H173744   3.114   6.660  17.122 -1.8019  0.7586 -2.1815
17443TIP3    H273745   3.024   6.558  17.191 -1.1627  0.9396 -1.0495
17444TIP3   OH273746   4.772   1.832  17.070 -0.2441  0.3791 -0.3848
17444TIP3    H173747   4.695   1.779  17.092 -1.0400  2.1937  1.7106
17444TIP3    H273748   4.735   1.917  17.045  1.0417  1.1891  0.3603
17445TIP3   OH273749   3.338   0.341  13.863 -0.6090  0.8713  0.1966
17445TIP3    H173750   3.313   0.408  13.926  0.4540  1.8905 -0.4213
17445TIP3    H273751   3.420   0.305  13.897 -0.2711  1.1064 -0.3517
17446TIP3   OH273752   5.290   3.164   2.023 -0.3119  0.2457  0.3810
17446TIP3    H173753   5.357   3.144   2.089  0.9301  1.4349 -0.4649
17446TIP3    H273754   5.265   3.255   2.042  1.6072  1.3743 -1.9799
17447TIP3   OH273755   1.441   3.505   1.371 -0.1553  0.0474  0.6970
17447TIP3    H173756   1.421   3.490   1.464 -0.4823 -0.5317  0.5395
17447TIP3    H273757   1.369   3.462   1.324  0.4478 -0.3943  0.1601
17448TIP3   OH273758   4.933   5.319   5.142  0.2962 -0.1664 -0.9036
17448TIP3    H173759   4.993   5.245   5.156  0.6976  0.4144  0.6063
17448TIP3    H273760   4.846   5.280   5.147  0.4178 -0.2744  2.2166
17449TIP3   OH273761   6.113   5.639  14.429 -0.6266 -0.1464  0.1345
17449TIP3    H173762   6.059   5.587  14.369  0.5325  0.6791 -1.6880
17449TIP3    H273763   6.073   5.726  14.428  0.4367  0.3611 -0.9177
17450TIP3   OH273764   5.569   1.104  15.650  0.0306  0.2986 -0.4476
17450TIP3    H173765   5.532   1.030  15.698 -1.6546  0.4456 -1.4565
17450TIP3    H273766   5.633   1.142  15.711 -1.2339 -0.1760  1.2574
17451TIP3   OH273767   4.929   5.371   0.438  0.4410 -0.1517 -0.2845
17451TIP3    H173768   4.905   5.433   0.506 -0.0710 -2.3312  1.6320
17451TIP3    H273769   5.006   5.326   0.473  0.5588 -0.8862 -1.4320
17452TIP3   OH273770   5.113   6.763  12.832  0.4188 -0.1202  0.5591
17452TIP3    H173771   5.118   6.831  12.900 -1.1774  1.6805 -0.9974
17452TIP3    H273772   5.204   6.747  12.808  0.9319  0.1658  2.1830
17453TIP3   OH273773   3.393   6.285  13.015  0.4580  0.1369  0.5178
17453TIP3    H173774   3.446   6.307  12.938 -0.3631 -0.0437 -0.1070
17453TIP3    H273775   3.330   6.357  13.022  0.1020 -0.1865  0.6354
17454TIP3   OH273776   6.795   5.518   5.354 -0.3557  1.2836  0.7165
17454TIP3    H173777   6.758   5.595   5.398 -0.4345  1.2068  0.7860
17454TIP3    H273778   6.725   5.453   5.358 -0.4261  1.3342  0.3184
17455TIP3   OH273779   2.671   4.068   4.004 -0.1017  0.1477  0.6713
17455TIP3    H173780   2.679   4.160   4.030  0.0189  1.3897 -3.1629
17455TIP3    H273781   2.743   4.025   4.048 -1.0327  1.4745  3.7805
17456TIP3   OH273782   1.432   5.702  14.409 -0.4744  0.1096 -0.3714
17456TIP3    H173783   1.492   5.746  14.469  0.0968 -0.2568 -0.6639
17456TIP3    H273784   1.358   5.677  14.464  1.2487 -2.7393  0.8734
17457TIP3   OH273785   0.254   4.802   0.393 -0.3555 -0.0442 -0.0082
17457TIP3    H173786   0.293   4.782   0.478  0.3827 -1.7266 -0.6908
17457TIP3    H273787   0.302   4.747   0.331  0.0755  2.1694 -1.7594
17458TIP3   OH273788   5.079   6.805  12.426 -0.1391 -0.4883 -0.1609
17458TIP3    H173789   5.064   6.723  12.474  0.0549 -1.0690 -1.0682
17458TIP3    H273790   5.052   6.786  12.336 -0.5928  0.6151 -0.2718
17459TIP3   OH273791   1.845   0.812  16.566 -0.2539 -0.0895  0.1444
17459TIP3    H173792   1.872   0.886  16.620 -0.2076 -0.0124  0.0144
17459TIP3    H273793   1.855   0.842  16.476 -0.3554 -0.2090  0.0921
17460TIP3   OH273794   0.923   3.333  15.718 -0.5329  0.1221  0.3599
17460TIP3    H173795   1.006   3.309  15.679 -0.6297 -1.2322  0.9249
17460TIP3    H273796   0.918   3.281  15.798 -1.4808  0.9255  0.8537
17461TIP3   OH273797   4.982   0.207   6.177 -0.3756  0.2684 -0.2428
17461TIP3    H173798   4.986   0.205   6.273  1.4443 -1.5546 -0.2662
17461TIP3    H273799   4.905   0.259   6.157 -4.3602 -3.8323  2.3281
17462TIP3   OH273800   4.126   3.266  11.771 -0.0759  0.3871 -0.0347
17462TIP3    H173801   4.113   3.179  11.810 -0.1286  0.3412 -0.1540
17462TIP3    H273802   4.213   3.292  11.801 -0.1102  0.3447  0.1008
17463TIP3   OH273803   0.002   5.802  13.402 -0.2078 -0.2737  0.6408
17463TIP3    H173804   0.095   5.826  13.397 -0.6858  1.6215  0.3739
17463TIP3    H273805  -0.015   5.796  13.496 -0.5318  2.6225  0.8640
17464TIP3   OH273806   4.616   5.922  11.506  0.4439  0.0326 -0.3782
17464TIP3    H173807   4.560   5.860  11.460  0.7316 -1.6927  1.4358
17464TIP3    H273808   4.577   6.007  11.489 -0.9341 -0.7993 -1.6334
17465TIP3   OH273809   4.361   1.761   2.617 -0.0251 -0.0681 -0.2207
17465TIP3    H173810   4.344   1.841   2.567  2.3383  0.2355 -0.6480
17465TIP3    H273811   4.421   1.711   2.562  1.0819 -0.6319  1.4363
17466TIP3   OH273812   5.522   4.515  14.752  0.3782 -0.5537  0.1429
17466TIP3    H173813   5.515   4.439  14.695 -0.7133 -1.3212  1.2493
17466TIP3    H273814   5.606   4.555  14.730  0.3579 -1.2895 -1.3988
17467TIP3   OH273815   6.051   4.367  10.872  0.6541  0.0887  0.1601
17467TIP3    H173816   5.962   4.331  10.875  0.1964  1.1489 -0.3897
17467TIP3    H273817   6.103   4.306  10.925 -0.0286 -1.5543 -0.9557
17468TIP3   OH273818   5.949   2.340   4.929 -0.4675 -0.2851  0.0021
17468TIP3    H173819   6.013   2.404   4.959 -1.5052 -0.2018  2.2732
17468TIP3    H273820   5.987   2.255   4.951 -0.5328 -0.2970  0.0709
17469TIP3   OH273821   3.747   2.400   0.883  0.2923 -0.0947 -0.2667
17469TIP3    H173822   3.718   2.451   0.807 -0.5258  0.3921  0.3520
17469TIP3    H273823   3.752   2.310   0.851 -2.2773 -0.2789 -0.3771
17470TIP3   OH273824   3.706   0.614   3.268 -0.3621  0.0713  0.5530
17470TIP3    H173825   3.770   0.618   3.197 -0.6108 -2.4891  0.0899
17470TIP3    H273826   3.741   0.672   3.335  2.4955 -1.2308  0.3262
17471TIP3   OH273827   2.715   3.198   4.234 -0.4934 -0.6385  0.0458
17471TIP3    H173828   2.637   3.253   4.226 -1.4868 -1.5937  2.2079
17471TIP3    H273829   2.699   3.123   4.176 -0.8412 -0.4581 -0.0872
17472TIP3   OH273830   0.424   5.467   0.647  0.2698 -1.0124  0.6615
17472TIP3    H173831   0.491   5.399   0.636 -0.8083 -2.1450  0.9196
17472TIP3    H273832   0.351   5.422   0.688 -0.3650  0.3921  1.1215
17473TIP3   OH273833   3.279   2.653   0.212 -0.1840 -0.0903 -0.1149
17473TIP3    H173834   3.342   2.695   0.154  0.5452  0.4839  1.0704
17473TIP3    H273835   3.201   2.640   0.157  0.8331 -0.5296 -1.5060
17474TIP3   OH273836   0.666   0.622   3.481 -0.1246  0.1833  0.4129
17474TIP3    H173837   0.593   0.566   3.509 -0.4869  0.8888  0.9381
17474TIP3    H273838   0.742   0.588   3.528 -0.1277 -0.5179 -0.0843
17475TIP3   OH273839   5.323   4.553   1.927 -0.0719  0.2876  0.6887
17475TIP3    H173840   5.358   4.612   1.861 -1.7751  0.0142 -0.5316
17475TIP3    H273841   5.228   4.566   1.924 -0.2307  0.1047  2.9523
17476TIP3   OH273842   3.692   3.688  12.984 -0.4711  0.3015 -0.0530
17476TIP3    H173843   3.662   3.600  13.003  2.5038 -0.6470  0.7972
17476TIP3    H273844   3.754   3.678  12.912  1.1359  1.3939  1.0932
17477TIP3   OH273845   3.207   4.337  15.958 -0.3006  0.0993 -0.1231
17477TIP3    H173846   3.286   4.284  15.942 -2.4384 -3.2714 -0.6437
17477TIP3    H273847   3.178   4.311  16.045 -1.4647  0.3525 -0.4179
17478TIP3   OH273848   1.669   0.306  13.265 -1.0035  0.0392  0.3447
17478TIP3    H173849   1.607   0.378  13.277 -0.2704  0.6964  0.2791
17478TIP3    H273850   1.676   0.294  13.171 -0.4661  0.4802  0.3222
17479TIP3   OH273851   5.550   1.400   2.720  0.1386  0.1144 -0.3122
17479TIP3    H173852   5.470   1.452   2.714  1.4786  2.2799 -0.5683
17479TIP3    H273853   5.520   1.312   2.744 -2.1403  1.3548  1.8443
17480TIP3   OH273854   6.269   2.529  15.358  0.2885  0.3129 -0.1617
17480TIP3    H173855   6.299   2.586  15.429 -0.1041  0.7919 -0.3763
17480TIP3    H273856   6.303   2.442  15.381 -0.4094  0.3167  0.9711
17481TIP3   OH273857   4.790   6.246   2.723  0.0296 -1.0024 -0.5723
17481TIP3    H173858   4.818   6.239   2.632  1.3213  0.1101 -0.2911
17481TIP3    H273859   4.871   6.246   2.774 -0.4725  1.1783  0.3661
17482TIP3   OH273860   2.151   1.555  16.294  0.3534  0.4807  0.4275
17482TIP3    H173861   2.220   1.492  16.272  1.1602  1.4119  0.2293
17482TIP3    H273862   2.073   1.521  16.251  1.2474  0.7215 -1.4813
17483TIP3   OH273863   2.266   5.351   3.297 -0.5183  0.7205  0.9064
17483TIP3    H173864   2.195   5.368   3.360 -2.0523 -2.4592  0.2375
17483TIP3    H273865   2.221   5.318   3.219  1.6168 -3.2303  1.0775
17484TIP3   OH273866   4.007   0.166   1.711 -0.0945 -0.0099 -0.8137
17484TIP3    H173867   4.088   0.192   1.668 -0.0236  1.1021 -0.0403
17484TIP3    H273868   4.028   0.167   1.804 -1.0154  0.3814 -0.6000
17485TIP3   OH273869   5.055   1.814  11.456  0.1708 -0.0829  0.1266
17485TIP3    H173870   5.071   1.879  11.524  0.5382  0.9242 -0.8903
17485TIP3    H273871   5.057   1.730  11.502 -0.6818  0.6269  1.5343
17486TIP3   OH273872   2.114   3.946  14.332 -0.5009  0.1751 -0.3218
17486TIP3    H173873   2.033   3.937  14.381 -1.2758  0.3665 -1.5182
17486TIP3    H273874   2.168   4.005  14.385 -1.0748 -0.0710  0.5586
17487TIP3   OH273875   0.893   6.532   4.970 -0.4498 -0.2438 -0.0992
17487TIP3    H173876   0.836   6.583   4.913  0.1618  1.7440  0.9765
17487TIP3    H273877   0.978   6.531   4.925  0.3059  2.1696  1.1233
17488TIP3   OH273878   2.834   4.919   0.806  0.2421  0.2419  0.1730
17488TIP3    H173879   2.898   4.851   0.787 -0.0872  0.2276 -0.9101
17488TIP3    H273880   2.795   4.892   0.889  0.9496 -0.2551  0.3506
17489TIP3   OH273881   3.714   3.960   1.457  0.2256  0.1813 -0.3053
17489TIP3    H173882   3.655   3.890   1.486 -1.3917  1.5891 -0.0519
17489TIP3    H273883   3.671   3.996   1.379  0.9934  0.9417 -0.3874
17490TIP3   OH273884   4.721   1.597   3.703  0.0445 -0.5652 -0.2342
17490TIP3    H173885   4.639   1.635   3.671  1.1739  0.9168 -1.5467
17490TIP3    H273886   4.739   1.643   3.785  0.0289 -0.1975 -0.4348
17491TIP3   OH273887   5.547   6.093   0.782  0.6712 -0.2092 -0.1039
17491TIP3    H173888   5.628   6.143   0.794  0.7799 -0.5090  0.4305
17491TIP3    H273889   5.564   6.037   0.706  1.1417 -0.6268  0.3102
17492TIP3   OH273890   1.272   1.878  16.544  0.1594 -0.5394  0.8053
17492TIP3    H173891   1.277   1.958  16.491  0.6862 -0.4384  0.9918
17492TIP3    H273892   1.210   1.899  16.614  0.3139 -0.2797  0.8673
17493TIP3   OH273893   4.160   0.906  14.889  0.3326 -0.1870 -0.2076
17493TIP3    H173894   4.196   0.835  14.836  0.9923  1.0518 -1.4761
17493TIP3    H273895   4.216   0.907  14.967  1.6633  0.2588 -1.1340
17494TIP3   OH273896   1.715   0.696   6.764  0.2938 -0.0755 -0.3816
17494TIP3    H173897   1.678   0.763   6.822  0.4694  0.2987 -0.6930
17494TIP3    H273898   1.682   0.720   6.677 -0.8770 -1.2717 -0.2961
17495TIP3   OH273899   3.236   0.481   1.814  0.5321  0.5710  0.4209
17495TIP3    H173900   3.282   0.495   1.896  0.8563 -1.5679  0.6751
17495TIP3    H273901   3.295   0.425   1.763 -0.5680  0.1145 -0.3850
17496TIP3   OH273902   6.162   2.646   4.246  0.3223 -0.1680  0.1536
17496TIP3    H173903   6.185   2.707   4.176 -1.1432 -0.8982 -1.0159
17496TIP3    H273904   6.068   2.631   4.235  0.1455 -0.6644  2.0111
17497TIP3   OH273905   3.361   3.461   3.640 -0.5593 -0.3998 -0.2821
17497TIP3    H173906   3.426   3.397   3.668 -1.0355 -0.5198  0.5564
17497TIP3    H273907   3.299   3.410   3.587  1.0184  0.0524 -2.7184
17498TIP3   OH273908   1.944   4.281   0.609 -0.5754 -0.1718  0.3825
17498TIP3    H173909   1.885   4.342   0.654 -1.4413 -0.5035 -0.2677
17498TIP3    H273910   1.928   4.197   0.652 -1.2270 -0.4398 -0.3697
17499TIP3   OH273911   4.351   3.350   4.183  0.1835  0.3093  1.0118
17499TIP3    H173912   4.259   3.375   4.171 -0.1549 -0.4366  1.9420
17499TIP3    H273913   4.400   3.425   4.150 -0.7452  0.5639  0.1393
17500TIP3   OH273914   0.531   5.389   1.915 -0.4411 -0.3843  0.5360
17500TIP3    H173915   0.537   5.404   2.009 -0.6628 -0.1039  0.5065
17500TIP3    H273916   0.445   5.423   1.890 -1.8766 -3.4785  0.7863
17501TIP3   OH273917   5.995   4.388  13.164 -0.0792 -0.4563 -0.4445
17501TIP3    H173918   6.009   4.482  13.153  1.2608 -0.2954  1.8442
17501TIP3    H273919   5.900   4.379  13.173 -0.1423  0.9289  0.7555
17502TIP3   OH273920   4.071   0.219  11.427 -0.3183 -0.3144 -0.2406
17502TIP3    H173921   4.137   0.268  11.377 -0.2353 -0.3481 -0.1637
17502TIP3    H273922   4.121   0.175  11.496 -0.5966  0.8166  0.7104
17503TIP3   OH273923   1.309   0.030  16.466  0.3037 -0.3496 -0.0878
17503TIP3    H173924   1.338   0.121  16.480  3.0880 -1.4242  1.9903
17503TIP3    H273925   1.387  -0.015  16.433 -0.9362 -2.0990 -0.7923
17504TIP3   OH273926   2.769   1.999  16.257  0.5194  0.4378 -0.4026
17504TIP3    H173927   2.688   1.953  16.238  0.4725  0.7695 -1.0229
17504TIP3    H273928   2.804   1.956  16.335  0.4987 -0.6688 -0.9938
17505TIP3   OH273929   4.963   1.740   5.551 -0.8187 -0.1584 -0.3227
17505TIP3    H173930   5.028   1.717   5.617 -2.6288  0.5654  1.8186
17505TIP3    H273931   4.997   1.821   5.513  0.1863 -0.5119 -0.2181
17506TIP3   OH273932   6.391   3.144  12.117 -0.4116 -0.1087 -0.3599
17506TIP3    H173933   6.324   3.178  12.177  0.1893 -1.0653  0.9064
17506TIP3    H273934   6.471   3.145  12.169  0.2696 -0.3375 -1.3872
17507TIP3   OH273935   4.924   3.642   0.833  0.6955  0.4058  0.2661
17507TIP3    H173936   4.977   3.597   0.898 -0.7041 -0.9376  0.5183
17507TIP3    H273937   4.967   3.622   0.749  2.2901  1.8479  0.6850
17508TIP3   OH273938   6.620   5.568  13.440  0.0526 -1.1448  0.6728
17508TIP3    H173939   6.534   5.582  13.401  0.4317 -0.9529 -0.1179
17508TIP3    H273940   6.673   5.642  13.409  0.2610 -0.7589  1.8988
17509TIP3   OH273941   4.633   4.280   2.458  0.0655 -0.0542 -0.1004
17509TIP3    H173942   4.708   4.247   2.409 -0.1283  0.9559 -1.1351
17509TIP3    H273943   4.577   4.321   2.392  0.1141  1.9704  1.0094
17510TIP3   OH273944   0.189   5.282  11.442  0.2639  0.2640 -0.3884
17510TIP3    H173945   0.198   5.195  11.483 -0.4381  0.9408  1.3061
17510TIP3    H273946   0.262   5.332  11.477 -0.8547  1.1217  0.8441
17511TIP3   OH273947   5.859   5.186   0.917 -0.3481  0.3334  0.1206
17511TIP3    H173948   5.870   5.102   0.873 -0.5864  0.4921 -0.2447
17511TIP3    H273949   5.940   5.198   0.967 -0.1878  0.0270 -0.0649
17512TIP3   OH273950   2.064   2.349   2.683 -0.3103  0.4819 -0.1871
17512TIP3    H173951   2.054   2.278   2.746  1.2515  0.6632  0.3278
17512TIP3    H273952   2.111   2.417   2.732 -1.5530  1.7742 -0.7373
17513TIP3   OH273953   2.338   1.538   1.892  0.1256  0.5491  0.2329
17513TIP3    H173954   2.351   1.474   1.822 -1.3535 -0.6082  0.9422
17513TIP3    H273955   2.405   1.517   1.957 -0.0526 -0.0120  0.2484
17514TIP3   OH273956   4.581   6.491   2.421  0.0798  0.1966  0.1105
17514TIP3    H173957   4.553   6.561   2.480  0.1567 -0.3107  0.7556
17514TIP3    H273958   4.499   6.453   2.388  0.0044 -0.4627  1.0226
17515TIP3   OH273959   5.506   1.896  14.097  0.0032 -0.3816  0.1622
17515TIP3    H173960   5.417   1.931  14.094  0.5136  0.9667 -0.2435
17515TIP3    H273961   5.561   1.972  14.116  1.2232 -0.8897 -1.1508
17516TIP3   OH273962   6.771   1.804   2.838  0.0945  0.4004  0.4415
17516TIP3    H173963   6.775   1.812   2.743 -0.6753  0.2745  0.3933
17516TIP3    H273964   6.855   1.839   2.868  0.5577 -0.0176 -0.3056
17517TIP3   OH273965   5.572   0.248  14.337  0.3532  0.3126 -0.6513
17517TIP3    H173966   5.600   0.182  14.401  1.0044  1.2511  0.0729
17517TIP3    H273967   5.516   0.307  14.387 -1.3149 -0.4015 -1.6142
17518TIP3   OH273968   4.086   0.520  14.715  0.0510 -0.3338 -0.2326
17518TIP3    H173969   4.021   0.524  14.784 -0.1779  2.5412 -0.5086
17518TIP3    H273970   4.035   0.513  14.634 -0.1004  2.8409 -0.5245
17519TIP3   OH273971   2.678   6.402  12.267 -0.7990  0.9271 -0.2825
17519TIP3    H173972   2.589   6.384  12.296 -0.0846 -1.0485  0.8044
17519TIP3    H273973   2.728   6.414  12.348 -0.1362  2.5475 -0.8865
17520TIP3   OH273974   5.755   0.435  11.806  0.0159  0.1460 -0.4654
17520TIP3    H173975   5.796   0.452  11.721 -0.8764  0.2987 -0.8727
17520TIP3    H273976   5.693   0.364  11.789 -0.2777  0.2818  0.0288
17521TIP3   OH273977   2.575   3.784   1.166 -0.5608 -0.3161 -0.2415
17521TIP3    H173978   2.665   3.752   1.166 -0.6874 -0.6732 -0.7332
17521TIP3    H273979   2.553   3.793   1.259 -0.0115 -0.1924 -0.1207
17522TIP3   OH273980   1.905   3.838   1.879 -0.0319  0.1581  0.3698
17522TIP3    H173981   1.923   3.814   1.788 -0.0763 -1.3043  0.7266
17522TIP3    H273982   1.817   3.804   1.896 -0.5326  1.4939  0.6249
17523TIP3   OH273983   0.705   1.171   1.882 -0.7468 -0.4288  0.4817
17523TIP3    H173984   0.786   1.197   1.838  0.1240 -1.7106  1.2645
17523TIP3    H273985   0.635   1.200   1.823  0.3352 -0.8579 -1.0609
17524TIP3   OH273986   3.421   0.089   6.289 -0.7090  0.2845 -0.1544
17524TIP3    H173987   3.503   0.058   6.330  0.2510  1.7945 -0.8600
17524TIP3    H273988   3.357   0.084   6.360  0.0082 -0.7608  0.4750
17525TIP3   OH273989   5.789   1.076  14.254  0.0856  0.0776  0.2102
17525TIP3    H173990   5.839   1.091  14.334  1.2112 -0.2060 -0.4302
17525TIP3    H273991   5.840   1.117  14.185 -0.0771 -1.0486 -0.6021
17526TIP3   OH273992   0.732   0.280  14.315 -0.1304 -0.0016 -0.1707
17526TIP3    H173993   0.675   0.266  14.239  0.4046 -0.2075 -0.5448
17526TIP3    H273994   0.799   0.340  14.283  0.5008 -0.6387 -0.0738
17527TIP3   OH273995   3.712   4.149  16.520  0.3104 -0.0996  0.0046
17527TIP3    H173996   3.754   4.200  16.589  0.7851 -0.8353  0.2712
17527TIP3    H273997   3.711   4.208  16.444  0.5609  0.4124  0.3893
17528TIP3   OH273998   4.535   3.692   0.458 -0.7737 -0.5720 -0.3758
17528TIP3    H173999   4.604   3.645   0.410 -0.9527 -2.2529  0.9006
17528TIP3    H274000   4.531   3.778   0.416  1.2016 -0.8759 -1.3290
17529TIP3   OH274001   0.252   0.425  11.456 -0.5070 -0.0041  0.0525
17529TIP3    H174002   0.179   0.481  11.482  0.1976  0.4178  1.1985
17529TIP3    H274003   0.314   0.430  11.529  0.4235 -0.7882 -0.6467
17530TIP3   OH274004   5.752   6.268  13.922  0.0929  0.0901 -0.0235
17530TIP3    H174005   5.727   6.241  14.010  2.4804 -0.7117  0.4770
17530TIP3    H274006   5.799   6.193  13.886 -0.2781  0.6486 -1.7500
17531TIP3   OH274007   5.077   6.307  15.449  0.7193 -0.6433 -0.2026
17531TIP3    H174008   5.007   6.366  15.477  2.7673  1.3690  0.9804
17531TIP3    H274009   5.042   6.263  15.371 -0.9484  2.1235 -1.1521
17532TIP3   OH274010   0.354   0.214   2.715 -0.9219  0.7083  0.0256
17532TIP3    H174011   0.328   0.162   2.791 -0.9045 -0.8694 -1.0167
17532TIP3    H274012   0.447   0.195   2.704 -1.0964  0.3513 -0.8334
17533TIP3   OH274013   5.322   5.170  11.939  0.4216 -0.3567 -0.0465
17533TIP3    H174014   5.393   5.198  11.996  0.0032  0.5620  0.0410
17533TIP3    H274015   5.307   5.244  11.880 -0.1933 -0.6918 -0.3221
17534TIP3   OH274016   5.537   5.054  14.497  0.0257 -0.0433 -0.0419
17534TIP3    H174017   5.475   4.982  14.483 -0.7030  0.7109 -0.8203
17534TIP3    H274018   5.482   5.127  14.526  0.7665  0.1975  0.7927
17535TIP3   OH274019   2.152   5.781   5.523  0.0972 -0.3098 -0.0438
17535TIP3    H174020   2.166   5.872   5.497  0.6446  0.0653  1.4836
17535TIP3    H274021   2.062   5.779   5.557  0.2487 -0.2314  0.3627
17536TIP3   OH274022   4.472   5.174  15.525 -0.4518 -0.0079 -0.1610
17536TIP3    H174023   4.460   5.211  15.437 -2.7850 -0.8826 -0.3038
17536TIP3    H274024   4.426   5.090  15.521  2.3036 -1.6814  0.9536
17537TIP3   OH274025   1.804   0.609  14.006 -0.1379 -0.5157  0.3253
17537TIP3    H174026   1.750   0.544  13.961 -0.1501 -1.4227  1.5819
17537TIP3    H274027   1.888   0.567  14.019  0.4097  0.3551 -0.3257
17538TIP3   OH274028   0.037   4.254  15.117  0.4735  0.0181  0.4234
17538TIP3    H174029  -0.008   4.338  15.127 -0.1598  0.1490 -2.4791
17538TIP3    H274030   0.129   4.278  15.101  0.2982  0.1947 -0.3780
17539TIP3   OH274031   5.890   0.448  14.443 -0.6011  0.4345  0.5181
17539TIP3    H174032   5.815   0.485  14.396 -0.6724  0.3980  0.6023
17539TIP3    H274033   5.855   0.372  14.488 -0.2534 -0.3046 -0.4181
17540TIP3   OH274034   2.953   3.441  15.683 -0.2159 -0.1932 -0.1603
17540TIP3    H174035   2.883   3.460  15.746  1.4923  0.7220  1.5806
17540TIP3    H274036   3.024   3.501  15.708  0.2020  0.9968 -3.6710
17541TIP3   OH274037   2.935   1.439  11.444  0.0570  0.3242  0.2071
17541TIP3    H174038   2.874   1.389  11.500 -1.4177  2.2423  0.4282
17541TIP3    H274039   3.008   1.460  11.502  1.3436 -2.5598 -0.2336
17542TIP3   OH274040   5.312   2.498   2.481  0.3824 -0.2702 -0.2953
17542TIP3    H174041   5.233   2.544   2.449 -0.8659  0.9328  3.9250
17542TIP3    H274042   5.384   2.554   2.454 -0.6268  1.0394 -0.3996
17543TIP3   OH274043   6.681   2.796  14.675  0.0735 -0.5750  0.1477
17543TIP3    H174044   6.635   2.878  14.693  1.8392  0.2974  1.0032
17543TIP3    H274045   6.641   2.733  14.735 -2.0557 -0.6786 -1.2926
17544TIP3   OH274046   2.985   2.968  11.118 -0.5137 -0.5274 -0.5838
17544TIP3    H174047   3.061   3.005  11.073 -1.8505 -1.2915 -3.7430
17544TIP3    H274048   2.911   3.023  11.090 -1.4945 -1.3127  0.3666
17545TIP3   OH274049   0.712   0.845   4.020 -0.6823 -0.5357 -0.2481
17545TIP3    H174050   0.687   0.901   4.093  0.5287 -0.6933  0.3031
17545TIP3    H274051   0.676   0.890   3.943 -1.4084 -0.0330  0.3651
17546TIP3   OH274052   0.308   1.746   2.413  0.0498 -0.3723  0.0931
17546TIP3    H174053   0.230   1.793   2.384  1.0103  0.4924 -1.2139
17546TIP3    H274054   0.325   1.682   2.344  1.4835  0.6679 -0.5870
17547TIP3   OH274055   2.726   2.238   5.395 -0.0793  0.2419 -0.4609
17547TIP3    H174056   2.655   2.175   5.386  0.5132 -0.7634  1.3911
17547TIP3    H274057   2.735   2.277   5.308 -2.3085 -0.2034 -0.9396
17548TIP3   OH274058   0.399   2.363   3.045  0.1249 -0.0755 -0.2137
17548TIP3    H174059   0.395   2.422   2.970 -1.2219 -0.2966 -0.3435
17548TIP3    H274060   0.493   2.347   3.059  0.3830 -0.7763 -2.4321
17549TIP3   OH274061   5.657   2.196  12.590  0.2025  0.3056  0.0870
17549TIP3    H174062   5.657   2.104  12.562 -3.0443  0.3071 -0.2816
17549TIP3    H274063   5.623   2.244  12.514 -0.5910  1.4473  1.1184
17550TIP3   OH274064   5.028   2.179  15.066  0.2342  0.3949  0.4152
17550TIP3    H174065   5.074   2.153  14.986 -2.3282 -0.7831 -0.8029
17550TIP3    H274066   4.974   2.254  15.040  2.1771  2.5565  2.1166
17551TIP3   OH274067   1.159   0.421   0.395 -0.2172 -0.2449  0.3300
17551TIP3    H174068   1.182   0.466   0.314  0.2681 -0.3860  0.3837
17551TIP3    H274069   1.210   0.465   0.463  1.0348 -1.4716  0.2435
17552TIP3   OH274070   6.646   5.972  12.018 -0.0055  0.0752  0.2184
17552TIP3    H174071   6.625   5.879  12.021  0.2551 -0.0325 -0.7620
17552TIP3    H274072   6.738   5.974  11.991  0.4432  0.5957  1.6889
17553TIP3   OH274073   0.481   2.223   3.721 -0.2947  0.5082 -0.3180
17553TIP3    H174074   0.564   2.270   3.729 -0.5140  0.8859 -0.2369
17553TIP3    H274075   0.416   2.281   3.761 -0.2271 -0.8627  1.9666
17554TIP3   OH274076   1.197   5.237  16.094 -0.5256 -0.7132  0.6744
17554TIP3    H174077   1.177   5.181  16.019  0.7898 -1.2981  0.7362
17554TIP3    H274078   1.269   5.293  16.064 -1.5364  0.6750  0.7564
17555TIP3   OH274079   5.870   3.138  15.292  0.3561 -0.0295  0.4742
17555TIP3    H174080   5.791   3.083  15.296 -1.0943  1.9573  3.3531
17555TIP3    H274081   5.853   3.199  15.220 -0.0312 -0.5566  0.1102
17556TIP3   OH274082   4.241   1.194  16.917  0.0389  0.4650 -0.4217
17556TIP3    H174083   4.301   1.151  16.978 -1.9438 -1.3578  0.3794
17556TIP3    H274084   4.276   1.174  16.831  0.1758 -1.2623  0.0025
17557TIP3   OH274085   4.476   5.600  15.489 -0.8668  0.1309 -0.2186
17557TIP3    H174086   4.403   5.662  15.492 -2.7031 -1.8681 -0.4618
17557TIP3    H274087   4.441   5.521  15.531  1.0170 -1.0570 -0.7847
17558TIP3   OH274088   1.748   4.924  14.292 -0.3500 -0.3355  0.1853
17558TIP3    H174089   1.807   4.909  14.366 -0.0523 -0.7019 -0.1220
17558TIP3    H274090   1.795   4.890  14.216  0.0415  1.4858 -0.4452
17559TIP3   OH274091   2.409   0.475  15.944  0.2326 -0.3226 -0.6868
17559TIP3    H174092   2.423   0.553  15.890 -0.9604  0.0942 -0.4154
17559TIP3    H274093   2.485   0.474  16.003  0.4761  0.3950 -0.9667
17560TIP3   OH274094   1.123   4.362  12.707  0.2216 -0.3346 -0.1243
17560TIP3    H174095   1.083   4.349  12.621  2.1009  0.1040 -1.1183
17560TIP3    H274096   1.183   4.436  12.695  1.0041 -0.6790  1.3917
17561TIP3   OH274097   6.650   5.179   2.275 -0.5774  0.3710  0.4673
17561TIP3    H174098   6.697   5.210   2.197 -2.3789 -0.7282 -1.1461
17561TIP3    H274099   6.558   5.177   2.248 -1.1438 -0.9794  2.3296
17562TIP3   OH274100   1.747   6.381  11.254 -0.8734  0.1528 -0.2632
17562TIP3    H174101   1.684   6.416  11.318  0.0976  1.5473 -0.0384
17562TIP3    H274102   1.809   6.452  11.240  1.5931 -1.6523  0.7041
17563TIP3   OH274103   5.089   5.138  13.676  0.4342  0.3958 -0.3011
17563TIP3    H174104   5.084   5.045  13.699 -0.0381  0.3635 -0.5265
17563TIP3    H274105   5.128   5.179  13.753 -0.5614  0.1943  0.3265
17564TIP3   OH274106   4.902   6.507   0.257 -0.5053 -0.1206 -0.4557
17564TIP3    H174107   4.943   6.521   0.342 -0.6609  0.2479 -0.4376
17564TIP3    H274108   4.970   6.528   0.194 -0.7710  0.8750 -0.4302
17565TIP3   OH274109   3.741   6.406  14.756 -0.7167  0.0894 -0.0370
17565TIP3    H174110   3.792   6.325  14.755  0.2889  0.7106 -0.1856
17565TIP3    H274111   3.778   6.459  14.685 -3.0701 -0.3322 -1.7057
17566TIP3   OH274112   4.101   2.091  16.022 -0.1909  0.0505 -0.2279
17566TIP3    H174113   4.014   2.088  16.059 -0.1186  0.4132 -0.0233
17566TIP3    H274114   4.093   2.152  15.948  0.0176  0.5602  0.1575
17567TIP3   OH274115   4.651   0.170  12.201 -0.5327 -0.6315 -0.1612
17567TIP3    H174116   4.733   0.141  12.160 -0.9574 -1.4839 -0.4236
17567TIP3    H274117   4.678   0.201  12.288  0.2793  0.5744 -0.8100
17568TIP3   OH274118   0.665   5.912  15.542  0.1945 -0.1178 -0.0967
17568TIP3    H174119   0.716   5.992  15.531 -0.1099  0.0682 -0.1431
17568TIP3    H274120   0.636   5.914  15.634  0.3294 -0.2606 -0.0503
17569TIP3   OH274121   3.607   0.246  16.310  0.5909 -0.3954 -0.2337
17569TIP3    H174122   3.680   0.184  16.309 -0.1704 -1.3193  0.1454
17569TIP3    H274123   3.555   0.222  16.234  0.7186  0.3052 -0.5407
17570TIP3   OH274124   4.479   3.218  15.917  0.1369  0.2194 -0.4684
17570TIP3    H174125   4.449   3.234  16.006  0.3464 -2.0569  0.0698
17570TIP3    H274126   4.574   3.219  15.923  0.1600  1.2385 -0.9153
17571TIP3   OH274127   4.298   4.713  16.835  0.1339  0.1613 -0.3849
17571TIP3    H174128   4.318   4.773  16.763 -1.0483  0.9602 -0.0672
17571TIP3    H274129   4.372   4.652  16.835  1.5764  1.8138 -0.4698
17572TIP3   OH274130   6.765   0.279   3.166 -0.3240  0.1517  0.2905
17572TIP3    H174131   6.682   0.246   3.202 -0.2539 -0.0732  0.2487
17572TIP3    H274132   6.749   0.372   3.152 -0.0128  0.4809  1.9028
17573TIP3   OH274133   4.210   4.312   0.181 -0.2936  0.1062 -0.4777
17573TIP3    H174134   4.220   4.266   0.098  3.8587 -1.2067  0.5349
17573TIP3    H274135   4.186   4.244   0.244 -2.2256  0.8887 -0.2951
17574TIP3   OH274136   5.837   3.939   3.226  0.2159  0.1465 -0.1178
17574TIP3    H174137   5.811   4.026   3.195 -0.6887 -0.4183 -1.0197
17574TIP3    H274138   5.765   3.911   3.282  1.1768  0.5568  1.3790
17575TIP3   OH274139   4.804   3.681   5.880 -0.1475 -0.4398 -0.0163
17575TIP3    H174140   4.821   3.598   5.925 -0.4274  0.6025  2.1451
17575TIP3    H274141   4.883   3.733   5.894 -1.1521  0.7802  1.4358
17576TIP3   OH274142   4.404   0.127  11.684 -0.3613 -0.1822 -0.0692
17576TIP3    H174143   4.393   0.215  11.646  0.6779  0.7819  1.7251
17576TIP3    H274144   4.329   0.078  11.651  0.1405  0.7049 -2.8464
17577TIP3   OH274145   4.128   0.242  17.100  0.0055 -0.4062 -0.1236
17577TIP3    H174146   4.050   0.204  17.140  0.7408 -1.9884 -0.1000
17577TIP3    H274147   4.199   0.218  17.160  0.8702 -1.2487 -1.4353
17578TIP3   OH274148   2.005   2.805  14.639 -0.7433 -0.3179  0.1864
17578TIP3    H174149   1.974   2.724  14.679 -0.8010 -0.7680 -0.7545
17578TIP3    H274150   1.953   2.813  14.559 -0.2722  0.3063 -0.0594
17579TIP3   OH274151   3.069   4.290   3.032 -0.2479  0.0961  0.6561
17579TIP3    H174152   2.982   4.328   3.043 -0.7281 -0.7299 -0.0954
17579TIP3    H274153   3.130   4.363   3.044 -1.1102  1.0236 -0.4255
17580TIP3   OH274154   1.131   2.529  12.345  0.3934  0.5562 -0.2642
17580TIP3    H174155   1.066   2.487  12.402  0.6399  1.2940  0.5933
17580TIP3    H274156   1.170   2.457  12.296 -0.1105 -0.0586  0.2171
17581TIP3   OH274157   2.772   2.428  14.444 -0.5159  0.4510  0.2680
17581TIP3    H174158   2.856   2.385  14.461  0.6768  2.1126 -1.1087
17581TIP3    H274159   2.711   2.356  14.427  1.4731 -0.7639 -2.3389
17582TIP3   OH274160   0.636   4.530   5.219 -0.2678  0.0638 -0.0691
17582TIP3    H174161   0.608   4.610   5.176  0.1967  0.2072 -0.1101
17582TIP3    H274162   0.570   4.514   5.287  0.6753  1.5790  1.2853
17583TIP3   OH274163   5.058   2.275   3.875 -0.5954 -0.1347  0.0476
17583TIP3    H174164   5.149   2.258   3.900 -0.7082 -1.3995 -0.3248
17583TIP3    H274165   5.035   2.355   3.922  1.2073  1.1397 -1.0945
17584TIP3   OH274166   4.379   4.127   0.544  0.4561 -0.0161 -0.4873
17584TIP3    H174167   4.371   4.183   0.622  0.9698 -0.4970 -0.0817
17584TIP3    H274168   4.301   4.147   0.493 -0.6936 -0.8199  0.8873
17585TIP3   OH274169   3.848   2.669  13.242 -0.2091 -0.0711  0.2951
17585TIP3    H174170   3.784   2.735  13.215 -0.0179 -0.3707 -0.9927
17585TIP3    H274171   3.802   2.614  13.304 -0.1301  1.7187  2.0451
17586TIP3   OH274172   6.208   2.541  10.425  0.0414 -0.1222  0.4276
17586TIP3    H174173   6.122   2.499  10.432  0.2636 -0.5116  0.8135
17586TIP3    H274174   6.262   2.478  10.379 -0.1942  0.6137 -0.9326
17587TIP3   OH274175   2.035   3.001  13.528 -0.5100 -0.0190 -0.0570
17587TIP3    H174176   2.020   2.919  13.481 -1.5694 -0.8994  1.6816
17587TIP3    H274177   2.119   3.033  13.495  0.2770 -2.1800 -0.3168
17588TIP3   OH274178   2.568   1.809  12.472 -0.1229 -0.1429 -0.0615
17588TIP3    H174179   2.602   1.886  12.425  0.5534 -0.6262 -0.3927
17588TIP3    H274180   2.527   1.844  12.551 -2.6094  0.8480 -1.6776
17589TIP3   OH274181   6.078   5.764   5.867  0.2461 -0.1475  0.5532
17589TIP3    H174182   6.062   5.679   5.908 -2.2885  0.5859  1.3070
17589TIP3    H274183   6.019   5.823   5.913  0.7820  1.7037 -1.0283
17590TIP3   OH274184   1.583   3.425   4.918 -0.3011  0.1669 -0.0608
17590TIP3    H174185   1.493   3.456   4.930 -0.6769 -0.8390 -0.1236
17590TIP3    H274186   1.638   3.499   4.943 -1.1219  0.1887  1.8500
17591TIP3   OH274187   0.363   5.260  14.982 -0.2656  0.2445 -0.0624
17591TIP3    H174188   0.310   5.320  15.035 -2.0580 -1.1923 -0.1425
17591TIP3    H274189   0.333   5.173  15.006  1.1406 -0.5839 -1.1341
17592TIP3   OH274190   6.608   1.694  11.670  0.0152  0.3112  0.2415
17592TIP3    H174191   6.550   1.618  11.662 -0.6568  0.5230  2.4598
17592TIP3    H274192   6.675   1.667  11.733 -1.1088  1.9576  2.2867
17593TIP3   OH274193   2.534   2.769   2.506 -0.0230  0.4091  0.2323
17593TIP3    H174194   2.520   2.771   2.411  1.5810  0.5158 -0.0307
17593TIP3    H274195   2.598   2.839   2.522  4.0612 -3.0047  0.5582
17594TIP3   OH274196   5.425   3.032  16.034  0.2968 -0.0637 -0.1501
17594TIP3    H174197   5.364   2.974  15.987 -0.8272  1.6966 -0.9891
17594TIP3    H274198   5.475   3.074  15.964 -2.1277  3.4111 -0.0701
17595TIP3   OH274199   4.809   1.733  13.725  0.4134 -0.3652 -0.2507
17595TIP3    H174200   4.878   1.787  13.764 -0.9396  0.9577  0.4286
17595TIP3    H274201   4.732   1.751  13.778 -0.7592 -0.8737 -1.7097
17596TIP3   OH274202   4.584   4.045   6.546  0.5829 -0.2358 -0.3854
17596TIP3    H174203   4.524   4.100   6.597  0.8573  0.2223 -0.5532
17596TIP3    H274204   4.638   4.107   6.497  0.9235 -0.6552 -0.5473
17597TIP3   OH274205   4.212   6.610  15.940  0.5637  0.5819 -0.2962
17597TIP3    H174206   4.182   6.562  15.863  0.5155 -0.3110  0.2632
17597TIP3    H274207   4.251   6.690  15.905  1.5212 -0.3014 -1.3351
17598TIP3   OH274208   6.316   2.655   0.504 -0.3805  0.2625 -0.3820
17598TIP3    H174209   6.347   2.627   0.418 -0.1007  0.3256 -0.3025
17598TIP3    H274210   6.347   2.746   0.512  1.7815 -0.5061  0.8137
17599TIP3   OH274211   2.572   5.500   1.338  0.4371 -0.3473 -0.3198
17599TIP3    H174212   2.558   5.421   1.286  0.5716 -0.4948 -0.1319
17599TIP3    H274213   2.505   5.496   1.406 -0.4140  0.3742 -1.0959
17600TIP3   OH274214   2.929   6.091  10.443 -0.7454 -0.0913  0.7023
17600TIP3    H174215   2.992   6.020  10.457 -0.4569 -0.2814 -1.2452
17600TIP3    H274216   2.964   6.165  10.492  0.4341 -0.5057  0.5144
17601TIP3   OH274217   3.420   0.013  14.994  0.4933  0.5304 -0.0608
17601TIP3    H174218   3.386   0.096  14.962  1.0266  1.1895  1.0629
17601TIP3    H274219   3.389   0.006  15.084  1.4776  0.1171  0.2704
17602TIP3   OH274220   5.853   5.345  16.378 -0.3893  0.1554 -0.5427
17602TIP3    H174221   5.849   5.360  16.473 -1.2356 -1.4097 -0.2990
17602TIP3    H274222   5.908   5.267  16.368 -1.2449 -0.3733 -1.2480
17603TIP3   OH274223   5.607   3.503  16.495  0.0281 -0.0308  0.0838
17603TIP3    H174224   5.519   3.498  16.533 -0.8792 -0.5254 -1.9738
17603TIP3    H274225   5.606   3.439  16.424  2.2747 -0.4845  0.4021
17604TIP3   OH274226   1.731   5.994  14.596  0.1986 -0.1499 -0.0240
17604TIP3    H174227   1.666   5.941  14.644  0.8060 -0.1260  0.8418
17604TIP3    H274228   1.802   5.933  14.577  0.9000  0.3382  0.9764
17605TIP3   OH274229   0.700   2.858   3.861  0.4838  0.1935  0.1638
17605TIP3    H174230   0.668   2.774   3.895 -0.5300  0.2641 -0.5704
17605TIP3    H274231   0.757   2.834   3.788  1.1387  0.1123  0.6921
17606TIP3   OH274232   2.497   6.505   5.916  0.3147  0.0289 -0.3918
17606TIP3    H174233   2.446   6.489   5.996 -0.1102 -0.9905 -0.8448
17606TIP3    H274234   2.584   6.527   5.948 -0.4370  2.1190  0.4075
17607TIP3   OH274235   1.492   4.628   4.374  0.0599  0.2606  0.2666
17607TIP3    H174236   1.508   4.689   4.302 -0.2871  0.9013  0.7171
17607TIP3    H274237   1.558   4.559   4.363 -0.9761 -0.4896 -1.5517
17608TIP3   OH274238   5.859   3.259   1.784  0.1401 -0.4017 -0.8760
17608TIP3    H174239   5.910   3.215   1.717  0.1818 -0.2784 -0.9233
17608TIP3    H274240   5.768   3.233   1.766  0.3131 -1.7846  0.0578
17609TIP3   OH274241   2.342   3.121   4.421  0.3435 -0.1357  0.0081
17609TIP3    H174242   2.268   3.071   4.388 -0.4048  0.3518  0.8842
17609TIP3    H274243   2.407   3.055   4.445 -0.9014 -0.8095  1.8159
17610TIP3   OH274244   5.463   1.067  16.785 -0.3797  0.2615 -0.0172
17610TIP3    H174245   5.470   0.999  16.718 -1.2982  0.2208 -0.0917
17610TIP3    H274246   5.468   1.150  16.736  3.6369  0.3989  0.3328
17611TIP3   OH274247   6.717   0.949  11.587  0.1004 -0.3985 -0.2661
17611TIP3    H174248   6.750   0.872  11.633  1.2043  1.0177  1.4396
17611TIP3    H274249   6.752   0.941  11.499 -1.0584 -2.5763 -0.5924
17612TIP3   OH274250   6.196   2.069   2.139 -0.6483 -0.2286  0.4183
17612TIP3    H174251   6.233   1.999   2.085 -0.2622  0.3461 -0.0852
17612TIP3    H274252   6.198   2.146   2.081  1.5705  0.8848  1.8443
17613TIP3   OH274253   2.268   0.365   2.473  0.3834 -0.1769 -0.0835
17613TIP3    H174254   2.249   0.383   2.381 -0.5586 -0.3376  0.0721
17613TIP3    H274255   2.228   0.280   2.490  0.6752 -0.2141  0.4391
17614TIP3   OH274256   3.101   2.352  12.712 -0.1938  0.3309 -0.3522
17614TIP3    H174257   3.174   2.304  12.751  0.0430  0.6601 -0.3910
17614TIP3    H274258   3.093   2.431  12.765 -0.8628  0.0453 -0.0220
17615TIP3   OH274259   4.569   1.924   0.945  0.0801 -0.2584  0.6992
17615TIP3    H174260   4.577   1.905   1.038 -0.4052 -0.3779  0.7200
17615TIP3    H274261   4.561   2.019   0.941 -1.1961 -0.3272  0.8981
17616TIP3   OH274262   2.572   6.345   0.941  0.3528 -0.2529 -0.2394
17616TIP3    H174263   2.555   6.356   1.035  0.4226  0.4718 -0.3098
17616TIP3    H274264   2.531   6.421   0.900  4.4094  2.1305 -0.3651
17617TIP3   OH274265   1.135   5.624  11.882  0.2893  0.0842 -0.3538
17617TIP3    H174266   1.122   5.660  11.794  0.6702  1.9837  0.3406
17617TIP3    H274267   1.185   5.543  11.867 -1.0919 -0.5266 -1.9859
17618TIP3   OH274268   0.535   3.562  15.335  0.1215 -0.9197 -0.3103
17618TIP3    H174269   0.488   3.634  15.292 -2.5144 -2.3145  0.0183
17618TIP3    H274270   0.574   3.601  15.413  2.4290  1.0011 -2.2712
17619TIP3   OH274271   6.433   1.514   0.570  0.0744  0.0745 -0.0130
17619TIP3    H174272   6.503   1.493   0.509  0.0809  0.7513 -0.2391
17619TIP3    H274273   6.471   1.578   0.630  0.0944 -0.6478  0.7579
17620TIP3   OH274274   1.656   1.926   5.350  0.2397  0.3083 -0.3884
17620TIP3    H174275   1.724   1.990   5.369  1.2690 -1.1635  1.2554
17620TIP3    H274276   1.665   1.907   5.257  1.1086  1.1845 -0.5014
17621TIP3   OH274277   4.420   6.498   0.218  0.4073  0.4477 -0.1204
17621TIP3    H174278   4.479   6.468   0.148 -0.0759 -0.0002 -0.3458
17621TIP3    H274279   4.336   6.458   0.197 -0.1226  1.5006 -0.1001
17622TIP3   OH274280   3.473   3.318   4.290 -0.0817 -0.1826 -0.0234
17622TIP3    H174281   3.409   3.353   4.228  0.7967 -0.5196 -1.1597
17622TIP3    H274282   3.435   3.236   4.321 -1.3166  0.8240  1.2510
17623TIP3   OH274283   0.342   2.352   4.541 -0.6631 -0.0873 -0.1137
17623TIP3    H174284   0.256   2.377   4.576 -1.3674 -1.2686 -0.9467
17623TIP3    H274285   0.323   2.299   4.464  0.8410  1.4211 -1.6317
17624TIP3   OH274286   1.128   6.775  16.268  0.4433  0.1840 -0.3801
17624TIP3    H174287   1.115   6.680  16.271 -0.1469  0.0862 -3.2949
17624TIP3    H274288   1.202   6.790  16.328  0.7966 -2.1452 -0.1138
17625TIP3   OH274289   4.327   5.689   2.811  0.3388  0.2374 -0.1828
17625TIP3    H174290   4.380   5.748   2.864  0.0567  0.7921 -0.5069
17625TIP3    H274291   4.375   5.606   2.813  0.6663  0.4317  0.3956
17626TIP3   OH274292   2.235   4.904   5.270 -0.0505 -0.4444  0.0144
17626TIP3    H174293   2.276   4.903   5.184 -0.3114 -0.0798 -0.1184
17626TIP3    H274294   2.285   4.840   5.322  0.0858 -0.6881 -0.4139
17627TIP3   OH274295   4.742   1.975   0.722 -0.2235  0.2162  0.1397
17627TIP3    H174296   4.662   2.011   0.684 -0.9777 -1.3983  0.1190
17627TIP3    H274297   4.714   1.932   0.803  0.6696 -0.0584  0.3230
17628TIP3   OH274298   3.103   3.668   5.768  0.5264 -0.0395 -0.2811
17628TIP3    H174299   3.122   3.759   5.792 -1.0614  0.0811  0.6313
17628TIP3    H274300   3.181   3.620   5.797  1.4555  1.0143 -0.8967
17629TIP3   OH274301   6.263   5.187  16.830 -0.3184 -0.5384  0.0789
17629TIP3    H174302   6.206   5.183  16.753 -1.1757  3.0633  0.3336
17629TIP3    H274303   6.348   5.215  16.794 -0.0057 -1.3088  0.2032
17630TIP3   OH274304   3.066   6.675  16.736 -0.0106 -0.1458  0.5437
17630TIP3    H174305   3.012   6.744  16.775  0.0682 -0.4455  1.1915
17630TIP3    H274306   3.156   6.697  16.761  0.1255  0.0889 -0.1298
17631TIP3   OH274307   3.905   2.111   0.575 -0.0070  0.1389 -0.2653
17631TIP3    H174308   3.908   2.019   0.602 -1.7786 -1.1118 -3.7308
17631TIP3    H274309   3.851   2.153   0.642 -0.3352 -1.6304  0.6568
17632TIP3   OH274310   1.197   2.481  10.731  0.4405 -0.0849 -0.1333
17632TIP3    H174311   1.284   2.499  10.696  1.1865 -0.5461  1.3874
17632TIP3    H274312   1.211   2.415  10.798 -1.0080  0.2380  0.5337
17633TIP3   OH274313   5.275   1.162   3.185 -0.9356 -0.4737 -0.1263
17633TIP3    H174314   5.351   1.189   3.134 -1.1787  0.0373 -0.2273
17633TIP3    H274315   5.300   1.177   3.276 -1.0497  0.0756 -0.1776
17634TIP3   OH274316   5.388   5.044   2.602  0.1061  0.2664  0.2780
17634TIP3    H174317   5.377   5.127   2.556  3.1274  1.5592  1.6347
17634TIP3    H274318   5.479   5.019   2.585  0.0799 -1.3436  2.1447
17635TIP3   OH274319   2.189   0.363  13.902 -0.6004  0.3023 -0.4226
17635TIP3    H174320   2.255   0.412  13.950 -1.2628  0.6872  0.1003
17635TIP3    H274321   2.133   0.430  13.861 -0.9768 -0.0114 -0.4353
17636TIP3   OH274322   3.905   4.294   1.767  0.2336  0.3090 -0.0312
17636TIP3    H174323   3.978   4.247   1.726  0.3165  0.7587 -0.3979
17636TIP3    H274324   3.929   4.299   1.860  0.1908 -0.4332  0.0254
17637TIP3   OH274325   0.271   6.358  12.798  0.8884 -0.6370  0.0144
17637TIP3    H174326   0.274   6.437  12.852 -2.9765  0.0153 -0.3873
17637TIP3    H274327   0.362   6.336  12.782  2.1829  3.5187  0.4879
17638TIP3   OH274328   5.907   2.235   3.610 -0.1654 -0.3445  0.0428
17638TIP3    H174329   5.855   2.158   3.588 -2.1927 -0.0383  3.0557
17638TIP3    H274330   5.854   2.310   3.582 -0.0975 -0.0392  0.6963
17639TIP3   OH274331   4.184   5.910   0.299  0.3500 -0.2627  0.0052
17639TIP3    H174332   4.201   6.001   0.275  1.4851 -0.6268 -0.6217
17639TIP3    H274333   4.114   5.882   0.240 -0.1458  0.2448  0.3349
17640TIP3   OH274334   4.116   5.620   1.971  0.2229  0.3658  0.1418
17640TIP3    H174335   4.208   5.642   1.984  0.3025 -0.8404  1.9614
17640TIP3    H274336   4.117   5.549   1.907  0.5770  0.2367  0.2920
17641TIP3   OH274337   6.293   6.140  13.046 -0.2937  0.3786  0.3983
17641TIP3    H174338   6.312   6.047  13.054  1.3431  0.6102 -0.2639
17641TIP3    H274339   6.341   6.180  13.118  0.6922  0.8669 -0.4940
17642TIP3   OH274340   6.314   2.919  11.248 -0.5408  0.5804 -0.0983
17642TIP3    H174341   6.265   2.965  11.317  1.7581  1.2547  1.1954
17642TIP3    H274342   6.363   2.988  11.203 -0.9657 -0.0356 -1.5722
17643TIP3   OH274343   1.877   5.199   4.653 -0.0330  0.0381 -0.2180
17643TIP3    H174344   1.865   5.175   4.745 -0.1560  1.9008  0.2916
17643TIP3    H274345   1.789   5.197   4.617 -0.0286 -0.3592 -0.2114
17644TIP3   OH274346   4.608   3.129  12.791  0.2046  0.2012  0.0464
17644TIP3    H174347   4.527   3.113  12.742  0.2749 -0.9611  0.2811
17644TIP3    H274348   4.587   3.201  12.850 -0.4155  0.4273 -0.4412
17645TIP3   OH274349   6.312   2.492  15.060  0.0989  0.2393  0.4654
17645TIP3    H174350   6.387   2.533  15.104  0.4389 -0.9384  1.0211
17645TIP3    H274351   6.251   2.472  15.132 -0.1471 -0.0547  0.1739
17646TIP3   OH274352   4.566   3.227   1.200 -0.1475 -0.5068  0.0581
17646TIP3    H174353   4.529   3.304   1.158 -1.3408 -1.0049  0.1396
17646TIP3    H274354   4.496   3.161   1.194  0.7502 -1.5012  0.2032
17647TIP3   OH274355   3.720   3.947  16.795 -0.2645 -0.5638 -0.3026
17647TIP3    H174356   3.708   4.023  16.853 -1.2186 -1.6995  1.0510
17647TIP3    H274357   3.805   3.963  16.752  1.5226 -0.6091  2.9139
17648TIP3   OH274358   3.434   4.479  13.176  0.0383 -0.5245 -0.5399
17648TIP3    H174359   3.428   4.553  13.236  3.1170  0.1076 -0.8103
17648TIP3    H274360   3.418   4.516  13.090  0.0367 -0.4899 -0.5247
17649TIP3   OH274361   2.607   5.067  14.708 -0.4642 -0.7607 -0.7476
17649TIP3    H174362   2.614   5.141  14.768  0.5500 -0.8007 -0.7927
17649TIP3    H274363   2.537   5.013  14.744  0.0635 -0.7389  0.3651
17650TIP3   OH274364   4.465   4.222   1.411 -0.0273 -0.0379  0.5892
17650TIP3    H174365   4.410   4.161   1.459 -0.5036  0.6761  0.9697
17650TIP3    H274366   4.530   4.252   1.475  1.5196 -1.6897 -0.1296
17651TIP3   OH274367   4.225   0.466   3.072 -0.4117 -0.0810 -0.0221
17651TIP3    H174368   4.186   0.535   3.017  0.7493 -0.0133 -0.7819
17651TIP3    H274369   4.213   0.498   3.162 -1.4791  0.2545 -0.2623
17652TIP3   OH274370   4.054   6.443  13.693  0.0989  0.6160 -0.2682
17652TIP3    H174371   4.086   6.353  13.679  0.3984  0.1499  2.8086
17652TIP3    H274372   3.997   6.459  13.618  0.1843 -2.0696 -1.0382
17653TIP3   OH274373   4.770   3.712  12.605 -0.4739 -0.1040 -0.1035
17653TIP3    H174374   4.681   3.706  12.570 -1.2472  1.1910  1.5446
17653TIP3    H274375   4.773   3.796  12.650  0.8433 -1.1254  1.8380
17654TIP3   OH274376   3.549   0.700  16.339  0.1694  0.5157 -0.3396
17654TIP3    H174377   3.610   0.771  16.318  1.1948  0.3287  1.7800
17654TIP3    H274378   3.600   0.620  16.328 -0.8220  0.0708 -2.1723
17655TIP3   OH274379   1.542   4.223  13.780  0.0494  0.4771 -0.1581
17655TIP3    H174380   1.538   4.307  13.735  1.7986  1.3129  1.1207
17655TIP3    H274381   1.635   4.201  13.782  0.0463  0.3497  2.6700
17656TIP3   OH274382   4.907   0.490   2.452 -0.2997 -0.4766 -0.4105
17656TIP3    H174383   4.851   0.462   2.524  0.4107  0.5848  0.5871
17656TIP3    H274384   4.988   0.517   2.494  0.2286 -0.0994 -1.6413
17657TIP3   OH274385   6.601   1.205  13.013  0.2864 -0.3804 -0.0158
17657TIP3    H174386   6.689   1.221  12.977  0.6486 -2.4400 -0.1434
17657TIP3    H274387   6.614   1.200  13.107  0.1648  0.0306  0.0267
17658TIP3   OH274388   1.458   5.808   1.793 -0.4577 -0.2288  0.3735
17658TIP3    H174389   1.486   5.878   1.734 -2.9162  0.6868  0.1662
17658TIP3    H274390   1.539   5.774   1.830  0.8646  3.0194  0.8050
17659TIP3   OH274391   3.970   4.730   0.945 -0.4359  0.1610 -0.4415
17659TIP3    H174392   3.922   4.657   0.983 -0.3063  0.3878  0.1724
17659TIP3    H274393   4.017   4.769   1.018 -0.4285  0.8019 -0.7742
17660TIP3   OH274394   1.056   0.530   3.250  0.7105 -0.0802  0.7557
17660TIP3    H174395   1.121   0.553   3.317  1.3909  2.0605 -0.5081
17660TIP3    H274396   1.109   0.500   3.175  0.2792  1.2925 -0.1427
17661TIP3   OH274397   5.357   5.553   5.891 -0.5412  0.4317 -0.3577
17661TIP3    H174398   5.431   5.558   5.951 -2.1325  2.4205  1.6090
17661TIP3    H274399   5.300   5.486   5.930 -1.5325  1.6573  0.3690
17662TIP3   OH274400   4.923   4.306  11.455 -0.5282 -0.0505 -0.4244
17662TIP3    H174401   4.963   4.344  11.533 -0.1935  0.6633 -0.9433
17662TIP3    H274402   4.832   4.291  11.481 -0.7374  1.3305 -0.2736
17663TIP3   OH274403   6.236   4.824  12.955 -0.1489 -0.1570 -0.2581
17663TIP3    H174404   6.150   4.858  12.980 -0.4375  0.9444 -2.4989
17663TIP3    H274405   6.283   4.815  13.038 -1.8456  0.7895  0.8788
17664TIP3   OH274406   4.195   1.080   2.466 -0.1550  0.0354 -0.3546
17664TIP3    H174407   4.217   1.174   2.464 -0.3945  0.0824 -2.1474
17664TIP3    H274408   4.280   1.036   2.465 -0.0014  0.1925  1.6359
17665TIP3   OH274409   0.981   2.936  14.122  0.0168  0.6298  0.3154
17665TIP3    H174410   1.007   3.027  14.128  0.8151  0.4367 -0.1543
17665TIP3    H274411   0.915   2.934  14.052  1.5655  0.5308 -1.2058
17666TIP3   OH274412   4.752   4.430   5.632 -1.3024  0.4230  0.3177
17666TIP3    H174413   4.753   4.493   5.705 -3.1250  0.6318  0.2096
17666TIP3    H274414   4.796   4.475   5.561  1.6199 -0.2227  1.5592
17667TIP3   OH274415   6.782   5.703  14.869  0.0964 -0.0954 -0.4071
17667TIP3    H174416   6.873   5.676  14.880 -0.5682 -1.8949  1.3961
17667TIP3    H274417   6.776   5.731  14.778  2.0071 -1.8387 -1.1590
17668TIP3   OH274418   0.196   1.631  13.665 -0.1397 -0.3646  0.2306
17668TIP3    H174419   0.117   1.599  13.708 -0.0054  1.1911  1.7832
17668TIP3    H274420   0.237   1.688  13.731  0.2722  1.8892 -1.8221
17669TIP3   OH274421   6.312   1.308   0.158 -0.2516  0.4968 -0.1485
17669TIP3    H174422   6.358   1.272   0.233  1.1613 -2.5095 -2.2587
17669TIP3    H274423   6.237   1.250   0.145  0.6453 -0.3009 -2.1589
17670TIP3   OH274424   4.346   0.376  14.746 -0.2439 -0.5921 -0.2722
17670TIP3    H174425   4.398   0.445  14.705 -1.1687  2.1727  2.7979
17670TIP3    H274426   4.282   0.352  14.680  1.4826 -0.1670 -2.2055
17671TIP3   OH274427   2.196   6.645  12.217 -0.0656  0.2797  0.6822
17671TIP3    H174428   2.146   6.565  12.201  0.0323  0.2277  0.6387
17671TIP3    H274429   2.158   6.710  12.157 -0.0317  0.2200  0.5971
17672TIP3   OH274430   1.168   2.996   1.943  0.0123 -0.7884 -0.1307
17672TIP3    H174431   1.106   2.927   1.919  1.9207 -1.7983 -2.6302
17672TIP3    H274432   1.144   3.070   1.887 -0.7648 -0.0729  1.0983
17673TIP3   OH274433   0.567   6.490  16.984 -0.4265 -0.0768  0.0651
17673TIP3    H174434   0.619   6.410  16.990  0.1822  0.1882 -1.3555
17673TIP3    H274435   0.593   6.530  16.901 -1.3353  1.1699  0.3485
17674TIP3   OH274436   0.854   1.191   5.183 -0.9765 -0.5990 -0.0341
17674TIP3    H174437   0.922   1.133   5.216  0.1254 -0.0720 -1.3144
17674TIP3    H274438   0.781   1.133   5.160  0.1063 -1.5035 -1.3152
17675TIP3   OH274439   1.626   2.701  13.468 -0.2753  0.2308 -0.4053
17675TIP3    H174440   1.676   2.747  13.535  2.5664 -0.3615 -1.9647
17675TIP3    H274441   1.605   2.768  13.403  0.1700  0.1118 -0.6705
17676TIP3   OH274442   5.064   2.033  10.326 -0.9357  0.1998 -0.1361
17676TIP3    H174443   4.971   2.057  10.327 -1.1138 -0.1553 -2.5974
17676TIP3    H274444   5.106   2.104  10.278  0.1593  0.5523  1.2980
17677TIP3   OH274445   0.228   2.128  14.693 -0.2697  0.3617 -0.1697
17677TIP3    H174446   0.149   2.089  14.658  0.9067 -1.7873 -0.5972
17677TIP3    H274447   0.285   2.139  14.617 -0.0907  1.8379  0.1322
17678TIP3   OH274448   5.303   0.642   2.916 -0.3207  0.1031  0.1161
17678TIP3    H174449   5.210   0.661   2.923 -0.0714  1.5652 -0.1163
17678TIP3    H274450   5.346   0.725   2.939  0.9932 -1.1496  2.5964
17679TIP3   OH274451   1.238   5.862  17.027  0.3820  0.5806  0.0551
17679TIP3    H174452   1.245   5.776  16.987  0.9533  0.8607 -0.4640
17679TIP3    H274453   1.284   5.921  16.966 -1.8861  1.6264 -0.7857
17680TIP3   OH274454   3.629   3.693   4.871 -0.0535  1.1037  0.1533
17680TIP3    H174455   3.562   3.742   4.918 -0.8156  0.1721  0.0592
17680TIP3    H274456   3.625   3.727   4.781 -1.0786  0.3883 -0.0877
17681TIP3   OH274457   2.793   5.498   1.583 -0.4113 -0.1646  0.0667
17681TIP3    H174458   2.777   5.483   1.490 -2.4031  2.2303 -0.0752
17681TIP3    H274459   2.889   5.502   1.591 -0.2049 -0.6734 -1.8142
17682TIP3   OH274460   1.465   6.076   0.479 -0.6165  0.1375 -0.4653
17682TIP3    H174461   1.426   6.159   0.508 -1.2869 -0.3831  0.1699
17682TIP3    H274462   1.446   6.072   0.386 -2.2465 -0.1606 -0.1592
17683TIP3   OH274463   2.648   0.796  13.087  0.0357 -0.1071 -0.0268
17683TIP3    H174464   2.654   0.885  13.054  0.4972 -1.1073 -3.0040
17683TIP3    H274465   2.739   0.770  13.103  0.1105 -0.6759 -1.2370
17684TIP3   OH274466   4.433   0.345   2.195 -0.4265 -0.2036 -0.2531
17684TIP3    H174467   4.416   0.322   2.104  2.3577  1.4901 -1.3350
17684TIP3    H274468   4.525   0.323   2.209 -1.0217 -1.3500  2.5275
17685TIP3   OH274469   2.925   1.827   3.713 -0.0743 -0.8620  0.1635
17685TIP3    H174470   2.837   1.817   3.677 -0.8911 -0.9427  2.0905
17685TIP3    H274471   2.916   1.895   3.780  1.3860 -0.6817  0.2004
17686TIP3   OH274472   2.295   0.746  14.830  0.5126  0.6748  0.1298
17686TIP3    H174473   2.241   0.704  14.897 -0.7799 -2.0110 -2.4142
17686TIP3    H274474   2.259   0.835  14.823 -1.2625  0.0728  0.9525
17687TIP3   OH274475   3.843   3.087  11.676 -0.4402  0.5388  0.1993
17687TIP3    H174476   3.886   3.046  11.750 -2.0584  0.9906  1.4398
17687TIP3    H274477   3.759   3.119  11.710 -1.7048 -0.1186 -2.0415
17688TIP3   OH274478   6.538   3.798  14.380 -0.2099 -0.0416  0.1350
17688TIP3    H174479   6.507   3.889  14.381  1.2925  0.5144 -0.6597
17688TIP3    H274480   6.615   3.800  14.324  0.2035 -1.7131  0.5976
17689TIP3   OH274481   5.563   0.069   4.778 -0.2362 -0.3430  0.4012
17689TIP3    H174482   5.603  -0.018   4.786  1.8194  0.2635 -1.9212
17689TIP3    H274483   5.584   0.112   4.861 -0.2303 -1.6466  1.1041
17690TIP3   OH274484   1.257   2.439  14.939  0.0147  0.9457 -0.3132
17690TIP3    H174485   1.195   2.475  15.002 -0.4395  0.2321 -0.3389
17690TIP3    H274486   1.204   2.415  14.864 -0.2184 -2.4076  0.7683
17691TIP3   OH274487   1.416   4.837  11.563 -0.6664  0.2926  0.4193
17691TIP3    H174488   1.359   4.785  11.619 -1.8265  0.6566 -0.4007
17691TIP3    H274489   1.357   4.897  11.518  0.0941 -0.6388 -1.9425
17692TIP3   OH274490   5.112   2.322   4.767 -0.3011  0.1113  0.2033
17692TIP3    H174491   5.070   2.373   4.698  0.0873  0.9536  0.5654
17692TIP3    H274492   5.040   2.290   4.821 -0.5532  0.2491 -0.0519
17693TIP3   OH274493   1.118   1.254  10.418  0.3651 -0.0186  0.0584
17693TIP3    H174494   1.065   1.266  10.339 -1.1962  0.0288  1.0719
17693TIP3    H274495   1.056   1.222  10.484  1.8759 -1.3061  0.9362
17694TIP3   OH274496   3.789   2.156   2.746  0.5359  0.0536  0.9402
17694TIP3    H174497   3.842   2.192   2.818  0.7782  1.1478  0.2510
17694TIP3    H274498   3.714   2.215   2.739  1.2293  0.8294 -0.5919
17695TIP3   OH274499   1.202   3.182   5.765  0.4897  0.2177 -0.2033
17695TIP3    H174500   1.216   3.262   5.816  0.1615  0.7524 -0.9393
17695TIP3    H274501   1.228   3.111   5.824 -1.4205  0.7038  1.3208
17696TIP3   OH274502   1.140   1.050   0.303 -0.1650  0.4819  0.5104
17696TIP3    H174503   1.169   0.998   0.378  1.1436 -1.6634 -1.3168
17696TIP3    H274504   1.174   1.138   0.319  1.2389 -0.2519  1.8365
17697TIP3   OH274505   3.022   4.069  10.789  0.4920 -0.0361 -0.0629
17697TIP3    H174506   2.953   4.021  10.834  0.1650  0.1336 -0.3834
17697TIP3    H274507   2.977   4.138  10.741  1.0793  1.9769  2.0596
17698TIP3   OH274508   4.196   4.499  12.673  0.0499 -0.4896  0.2255
17698TIP3    H174509   4.245   4.535  12.600 -0.6575  2.1407  0.9386
17698TIP3    H274510   4.236   4.537  12.751 -1.5421 -0.2164  0.9592
17699TIP3   OH274511   1.594   3.197   4.375 -0.0839 -0.0639  0.1175
17699TIP3    H174512   1.501   3.204   4.396  0.3016  1.0500  1.6409
17699TIP3    H274513   1.630   3.142   4.444  0.5137  0.0718 -0.0810
17700TIP3   OH274514   0.304   1.293  12.931  0.1038 -0.6359 -0.2945
17700TIP3    H174515   0.348   1.222  12.885 -0.6542 -0.8711 -0.6760
17700TIP3    H274516   0.251   1.250  12.997  2.8511 -0.2248  2.4192
17701TIP3   OH274517   5.983   2.480  11.966 -0.4222  0.2591 -0.1697
17701TIP3    H174518   6.038   2.506  11.892  0.1788 -0.9371 -0.1661
17701TIP3    H274519   5.957   2.563  12.007  2.5097  0.8672  0.6688
17702TIP3   OH274520   1.462   2.937  16.966  0.0027 -0.0671 -0.0541
17702TIP3    H174521   1.526   2.996  16.927  2.1070 -2.5472 -0.6154
17702TIP3    H274522   1.494   2.922  17.055 -1.4611  0.8784  0.6787
17703TIP3   OH274523   4.104   1.178  14.964  0.1276  0.5005 -0.1047
17703TIP3    H174524   4.119   1.087  14.940  0.1596  0.5154 -0.1404
17703TIP3    H274525   4.062   1.173  15.050 -0.2300  0.4393 -0.2815
17704TIP3   OH274526   1.574   5.351   4.462  0.0355  0.3380 -0.2093
17704TIP3    H174527   1.609   5.440   4.460  0.5234  0.1693  0.4489
17704TIP3    H274528   1.484   5.361   4.493  1.2437  0.3012  3.7900
17705TIP3   OH274529   3.009   0.499  15.594  0.5702 -0.1870  0.4279
17705TIP3    H174530   2.960   0.480  15.514  3.5567  0.7566 -1.8030
17705TIP3    H274531   2.982   0.587  15.620  0.5403  0.0266 -0.3296
17706TIP3   OH274532   0.534   3.449   0.124  0.7954  0.3200 -0.0294
17706TIP3    H174533   0.583   3.367   0.126  0.4930  0.1441  0.3916
17706TIP3    H274534   0.566   3.494   0.046  0.9132 -0.2285 -0.3058
17707TIP3   OH274535   4.248   5.273   4.698  0.2735 -0.0746  0.0457
17707TIP3    H174536   4.261   5.355   4.650  0.0889 -0.4722 -0.7025
17707TIP3    H274537   4.330   5.225   4.684  1.0539  0.6401  1.8527
17708TIP3   OH274538   4.231   3.014  13.977 -0.6023 -0.0382 -0.3136
17708TIP3    H174539   4.244   3.050  13.890  0.5901  0.2779 -0.0261
17708TIP3    H274540   4.177   2.936  13.963  0.1053 -0.3530 -1.4144
17709TIP3   OH274541   3.102   2.716  15.933 -0.0467 -0.1340 -0.6327
17709TIP3    H174542   3.103   2.621  15.944 -0.4598  0.0699  1.8304
17709TIP3    H274543   3.011   2.742  15.952 -0.4308  0.6263 -3.1675
17710TIP3   OH274544   5.154   3.467  13.716  0.1351 -0.4180 -0.1860
17710TIP3    H174545   5.101   3.472  13.637  0.4808 -0.4007 -0.4221
17710TIP3    H274546   5.117   3.532  13.775 -0.3683 -0.7047 -0.1852
17711TIP3   OH274547   3.802   3.942   1.770 -0.1376  0.5957 -0.4188
17711TIP3    H174548   3.832   3.966   1.683 -0.1925  0.9845 -0.3330
17711TIP3    H274549   3.754   4.019   1.801 -2.2876 -0.4094 -1.0278
17712TIP3   OH274550   2.918   1.692   0.361 -0.1643 -0.2876 -0.7232
17712TIP3    H174551   2.850   1.752   0.329 -2.1255 -2.0287 -0.0565
17712TIP3    H274552   2.984   1.692   0.291 -0.3817  2.0904 -1.0267
17713TIP3   OH274553   0.927   3.796   4.341  0.0950 -0.7847  0.0010
17713TIP3    H174554   0.887   3.772   4.425 -2.1081  0.3510 -0.6405
17713TIP3    H274555   0.889   3.736   4.278  0.4940 -0.5959 -0.4253
17714TIP3   OH274556   5.495   5.893  13.103  0.1954 -0.3128 -0.1666
17714TIP3    H174557   5.487   5.988  13.098  0.4999 -0.3366 -1.3581
17714TIP3    H274558   5.589   5.876  13.092  0.5167 -0.6428  2.4980
17715TIP3   OH274559   0.818   1.428  17.125 -0.3156 -0.0219 -0.5930
17715TIP3    H174560   0.904   1.445  17.085 -0.0215 -0.9285 -0.3754
17715TIP3    H274561   0.762   1.499  17.094  0.0281 -0.4422 -2.2478
17716TIP3   OH274562   4.257   3.955  14.438  0.1143  0.3930  0.0283
17716TIP3    H174563   4.233   4.047  14.446  0.8035  0.5906 -0.0432
17716TIP3    H274564   4.241   3.918  14.524  1.0146  0.8881  0.4265
17717TIP3   OH274565   3.528   6.600   0.534 -0.6031  0.5064 -0.5346
17717TIP3    H174566   3.607   6.599   0.588  0.2243 -1.2455 -1.6831
17717TIP3    H274567   3.549   6.660   0.462 -0.2646 -0.0491 -0.9024
17718TIP3   OH274568   2.662   0.831  10.950  0.1006  0.0609  0.1121
17718TIP3    H174569   2.620   0.750  10.922  1.4738 -0.3792 -0.8059
17718TIP3    H274570   2.670   0.882  10.869  0.6554  0.4336  0.3988
17719TIP3   OH274571   3.523   5.822   3.031 -0.5736 -0.4674  0.3849
17719TIP3    H174572   3.568   5.891   2.983 -2.6619 -0.7428 -2.1818
17719TIP3    H274573   3.590   5.783   3.086  1.9782  0.0198 -2.1902
17720TIP3   OH274574   4.966   6.043  16.013  0.2843  0.1233  0.0176
17720TIP3    H174575   4.911   5.979  15.968  1.2711 -1.3519  0.8399
17720TIP3    H274576   5.056   6.021  15.986  0.5940  1.9277 -0.6142
17721TIP3   OH274577   1.355   5.863   3.535 -0.6134  0.2883 -0.0364
17721TIP3    H174578   1.428   5.835   3.481  0.0320  0.8214  0.5463
17721TIP3    H274579   1.353   5.800   3.608 -0.2076  0.7564  0.3864
17722TIP3   OH274580   5.295   0.202  11.468 -0.2965 -0.2090 -0.5346
17722TIP3    H174581   5.249   0.285  11.450  0.8129  0.8603  1.2620
17722TIP3    H274582   5.231   0.134  11.446 -1.5819  1.1402 -1.1452
17723TIP3   OH274583   3.673   2.400  12.313  0.1476  0.0679 -0.3062
17723TIP3    H174584   3.590   2.446  12.329  0.1062  0.1549 -0.7805
17723TIP3    H274585   3.690   2.354  12.395 -0.5410 -0.2151 -0.3172
17724TIP3   OH274586   6.664   6.030   5.796  0.1318  0.0529  0.1757
17724TIP3    H174587   6.604   6.035   5.870 -1.7863  0.1870 -1.3180
17724TIP3    H274588   6.618   5.976   5.731  1.6499  0.1136 -1.0180
17725TIP3   OH274589   2.355   4.375  15.550  0.0869  0.3604  0.2802
17725TIP3    H174590   2.349   4.364  15.645 -3.4447  2.4925  0.4740
17725TIP3    H274591   2.354   4.285  15.516 -0.7281 -0.4251  2.2146
17726TIP3   OH274592   4.760   6.552   6.095 -0.3402  0.1747  0.4222
17726TIP3    H174593   4.741   6.611   6.168 -3.0116  0.1008 -0.1199
17726TIP3    H274594   4.694   6.483   6.101 -1.0874  0.4922 -2.3573
17727TIP3   OH274595   1.172   1.719  14.456  0.1286  0.5158 -0.0319
17727TIP3    H174596   1.205   1.630  14.470 -1.1383  0.3033  2.0744
17727TIP3    H274597   1.133   1.717  14.369  3.3111  0.1086 -1.5626
17728TIP3   OH274598   0.955   0.861   5.022 -0.2964 -0.1262 -0.2143
17728TIP3    H174599   0.916   0.805   5.089  0.7565 -0.3320  0.2542
17728TIP3    H274600   0.883   0.883   4.963 -0.8675 -1.4184 -0.0262
17729TIP3   OH274601   2.335   0.447   4.384  0.1901  0.7401 -0.6598
17729TIP3    H174602   2.393   0.436   4.460 -0.2464  0.7519 -0.3215
17729TIP3    H274603   2.328   0.360   4.346 -1.2765  0.2741  0.5606
17730TIP3   OH274604   2.029   2.015   5.776 -0.1731  0.2694  0.2702
17730TIP3    H174605   2.071   2.037   5.859  2.4412 -1.1997 -0.5486
17730TIP3    H274606   1.995   1.926   5.788 -1.1051  0.6035  0.2057
17731TIP3   OH274607   0.813   4.156  16.367  0.0243  0.1938 -0.1013
17731TIP3    H174608   0.860   4.217  16.310  0.8360 -0.4004 -0.0918
17731TIP3    H274609   0.882   4.114  16.419 -0.6251  0.0776  0.6777
17732TIP3   OH274610   1.856   5.433   0.536 -0.8189  0.0392 -0.0238
17732TIP3    H174611   1.929   5.374   0.518 -0.5315  0.5244 -0.5010
17732TIP3    H274612   1.804   5.389   0.603 -0.2981 -0.4888  0.0344
17733TIP3   OH274613   1.529   5.480  11.919 -0.3519  0.1040 -0.0943
17733TIP3    H174614   1.482   5.445  11.844 -0.7496  1.7971 -0.6596
17733TIP3    H274615   1.469   5.467  11.993 -0.8067  0.3080 -0.4291
17734TIP3   OH274616   3.354   6.670   5.424 -0.2275 -0.3463 -0.6591
17734TIP3    H174617   3.445   6.692   5.407  0.0049 -1.6361 -1.2108
17734TIP3    H274618   3.306   6.708   5.351 -0.2825  1.1444  0.1104
17735TIP3   OH274619   5.353   1.756   4.121 -0.2816 -0.1110 -0.0757
17735TIP3    H174620   5.309   1.758   4.036 -2.0805 -0.6675  0.7844
17735TIP3    H274621   5.444   1.777   4.102 -0.4873 -0.9429 -2.2280
17736TIP3   OH274622   5.426   5.774  11.734  0.2328  0.2683 -0.2009
17736TIP3    H174623   5.357   5.717  11.698  0.6408  0.4947 -1.3914
17736TIP3    H274624   5.382   5.824  11.803 -0.5450 -0.2924 -0.2709
17737TIP3   OH274625   0.865   1.847  14.436  0.1443  0.4025 -0.1147
17737TIP3    H174626   0.877   1.783  14.506 -1.5798  0.6921  0.4873
17737TIP3    H274627   0.953   1.861  14.400  1.4299  1.6352  3.1858
17738TIP3   OH274628   6.359   0.441  13.293 -0.3306 -0.0467 -0.3357
17738TIP3    H174629   6.377   0.350  13.316 -0.3183  0.0837  0.1734
17738TIP3    H274630   6.415   0.492  13.351 -1.2479  0.3233  0.2361
17739TIP3   OH274631   0.373   4.623  14.340  0.1396  0.4248 -0.2176
17739TIP3    H174632   0.292   4.665  14.369 -0.3167 -0.3753 -0.3228
17739TIP3    H274633   0.345   4.548  14.288  0.9422 -0.1977  0.2256
17740TIP3   OH274634   1.337   5.392   1.486 -0.5035 -0.0513 -0.0593
17740TIP3    H174635   1.341   5.452   1.411 -1.4506 -1.2221 -1.0964
17740TIP3    H274636   1.319   5.448   1.561  0.8610  1.1999 -0.6216
17741TIP3   OH274637   2.151   2.263   3.145 -0.3689 -0.1536  0.7134
17741TIP3    H174638   2.204   2.205   3.199  1.2030 -1.2251 -1.7928
17741TIP3    H274639   2.208   2.337   3.125 -0.5485 -0.2441 -0.2200
17742TIP3   OH274640   0.279   6.208  12.167  0.1591 -0.1807 -0.5984
17742TIP3    H174641   0.325   6.153  12.104 -0.6124 -1.3428 -0.1608
17742TIP3    H274642   0.302   6.172  12.252 -1.3014 -0.5974 -0.3578
17743TIP3   OH274643   5.274   4.303   4.225  0.1691 -0.2227 -0.0111
17743TIP3    H174644   5.249   4.307   4.317  1.6783 -0.5373  0.4276
17743TIP3    H274645   5.337   4.231   4.219  3.0994  2.1690 -0.4900
17744TIP3   OH274646   4.745   6.492   3.407  0.1963  0.1333  0.2842
17744TIP3    H174647   4.733   6.399   3.424 -0.5959  0.3474  0.9505
17744TIP3    H274648   4.706   6.536   3.483  1.9091  0.9841  0.7287
17745TIP3   OH274649   4.063   4.891  12.467  0.3935 -0.0123 -0.1571
17745TIP3    H174650   4.057   4.935  12.382  0.4079 -2.6895 -1.6178
17745TIP3    H274651   4.154   4.863  12.473  0.8199  1.4959  1.5470
17746TIP3   OH274652   2.306   5.233   1.960  0.0418  0.2520 -0.3816
17746TIP3    H174653   2.337   5.144   1.945 -0.5229  0.1959 -1.3038
17746TIP3    H274654   2.305   5.243   2.055  0.6987 -0.5109 -0.2885
17747TIP3   OH274655   4.622   0.351  15.579  0.1612 -0.4614  0.2740
17747TIP3    H174656   4.599   0.442  15.599 -0.6859 -0.7020  0.4302
17747TIP3    H274657   4.694   0.358  15.516  0.2016  0.3134  0.3966
17748TIP3   OH274658   0.448   4.021  13.679 -0.4321 -0.3930 -0.5640
17748TIP3    H174659   0.413   3.949  13.627 -0.2189 -0.0772 -1.1504
17748TIP3    H274660   0.508   3.978  13.741  0.2375 -0.6541 -1.3775
17749TIP3   OH274661   4.865   5.671   2.261  0.3527 -0.5769  0.0544
17749TIP3    H174662   4.951   5.631   2.272  1.3568  1.4456  0.0007
17749TIP3    H274663   4.873   5.758   2.301 -2.0634 -0.8063  1.1851
17750TIP3   OH274664   4.900   0.177   1.180 -0.3910 -0.0192 -0.0982
17750TIP3    H174665   4.966   0.247   1.186 -1.3011  0.9391 -0.9206
17750TIP3    H274666   4.948   0.097   1.201  1.5459  0.3739 -2.4983
17751TIP3   OH274667   4.703   1.087  11.616 -0.3330  0.3061  0.4606
17751TIP3    H174668   4.709   1.173  11.659  2.3098  0.3167  0.2435
17751TIP3    H274669   4.674   1.107  11.527  1.8903  1.2446 -0.1163
17752TIP3   OH274670   0.520   0.722   0.489 -0.0120  0.3546  0.5923
17752TIP3    H174671   0.554   0.807   0.515  1.2970 -0.0632  0.3120
17752TIP3    H274672   0.597   0.665   0.487 -0.8577 -0.8396  0.7738
17753TIP3   OH274673   5.790   6.179   3.861  0.4300  0.5109 -0.8017
17753TIP3    H174674   5.770   6.213   3.948  0.0066 -0.8758 -0.3200
17753TIP3    H274675   5.881   6.202   3.846  0.2481  1.5420 -0.3737
17754TIP3   OH274676   3.330   1.857  12.030  0.8163 -0.5010  0.1831
17754TIP3    H174677   3.318   1.899  11.945  1.8494 -0.2185  0.1600
17754TIP3    H274678   3.408   1.802  12.018  0.3261 -1.3106  0.6357
17755TIP3   OH274679   0.305   0.266   4.142  0.3651  0.1734 -0.3946
17755TIP3    H174680   0.365   0.302   4.078  1.3233  0.5247  0.6710
17755TIP3    H274681   0.343   0.181   4.166  0.9363  0.7810  0.9226
17756TIP3   OH274682   0.183   0.605   4.888 -0.0459  0.1385  0.3053
17756TIP3    H174683   0.205   0.614   4.981  0.3995 -0.1111  0.2286
17756TIP3    H274684   0.264   0.572   4.848 -0.1683  0.4573 -0.2052
17757TIP3   OH274685   4.281   2.364  14.689  0.1412 -0.4995  0.1136
17757TIP3    H174686   4.201   2.416  14.696 -0.1121 -0.4486 -2.3695
17757TIP3    H274687   4.254   2.275  14.712 -0.5389 -0.4091 -0.3224
17758TIP3   OH274688   0.344   2.751  12.502  0.5765  0.2876 -0.2796
17758TIP3    H174689   0.341   2.846  12.504  3.0861  0.4260  1.0639
17758TIP3    H274690   0.254   2.724  12.486  0.0505  2.8715 -2.2764
17759TIP3   OH274691   3.716   2.077  12.501  0.3594 -0.0941  0.2426
17759TIP3    H174692   3.783   2.017  12.469  1.1548  0.2971  1.1305
17759TIP3    H274693   3.765   2.153  12.531 -0.5604  0.5611  0.1060
17760TIP3   OH274694   2.517   0.737   1.668  0.1124  0.4525  0.5831
17760TIP3    H174695   2.542   0.701   1.583 -0.3378  0.0463  0.6157
17760TIP3    H274696   2.544   0.828   1.665 -1.0396  0.7878 -0.4878
17761TIP3   OH274697   5.840   4.006   4.937 -0.8410  0.1098  0.2458
17761TIP3    H174698   5.847   3.925   4.887  0.3366 -0.7736  1.7690
17761TIP3    H274699   5.752   4.005   4.974 -1.0149 -0.2020 -0.1776
17762TIP3   OH274700   1.346   6.546   6.351  0.5271  1.0770  0.3674
17762TIP3    H174701   1.413   6.615   6.351  3.2172 -1.3433  0.0174
17762TIP3    H274702   1.390   6.470   6.391 -1.8713 -0.8058 -0.3420
17763TIP3   OH274703   5.247   2.450   0.872 -0.6052 -0.6050  0.1150
17763TIP3    H174704   5.182   2.513   0.901  0.3862  0.2858  0.4666
17763TIP3    H274705   5.259   2.392   0.948  0.5101  0.5004  0.8242
17764TIP3   OH274706   6.356   0.243  11.497  0.3176  0.2684 -0.4593
17764TIP3    H174707   6.391   0.168  11.544 -1.6936  0.9101  2.2868
17764TIP3    H274708   6.276   0.210  11.455  1.7116 -0.1138 -3.0068
17765TIP3   OH274709   1.354   0.757   3.171 -0.1324 -0.1194  0.1966
17765TIP3    H174710   1.430   0.786   3.222  0.9795 -1.4165 -0.6381
17765TIP3    H274711   1.389   0.741   3.083 -1.4912 -0.2492 -0.3400
17766TIP3   OH274712   4.217   5.722  10.835  0.2900  0.0214  0.4389
17766TIP3    H174713   4.195   5.635  10.869  0.7533 -0.0634  0.5318
17766TIP3    H274714   4.277   5.705  10.762 -0.6923  0.2093 -0.4283
17767TIP3   OH274715   1.860   6.085  12.191 -0.1578  0.0192 -0.9119
17767TIP3    H174716   1.812   6.038  12.259 -1.5942  1.9970 -0.4712
17767TIP3    H274717   1.941   6.114  12.235  1.0319 -2.3898 -1.3494
17768TIP3   OH274718   2.019   3.933   2.382  0.1566  0.6253 -0.5556
17768TIP3    H174719   2.086   3.971   2.439 -0.8875 -0.4811  1.5427
17768TIP3    H274720   1.939   3.982   2.403 -0.2431  0.2035 -1.0749
17769TIP3   OH274721   0.260   3.417  16.877  0.2096  0.0091 -0.2120
17769TIP3    H174722   0.221   3.500  16.852  0.5392  0.3340  0.3328
17769TIP3    H274723   0.199   3.351  16.845 -0.7507  0.5062  0.5565
17770TIP3   OH274724   0.444   4.924   5.407  0.1766 -0.3583 -0.3176
17770TIP3    H174725   0.408   4.905   5.493  2.2180 -0.7883  0.5075
17770TIP3    H274726   0.408   5.010   5.384  1.2645  0.7796  1.9627
17771TIP3   OH274727   5.627   0.310  16.251 -0.8300  0.1420 -0.6499
17771TIP3    H174728   5.604   0.378  16.188  0.4277  1.9630  0.7493
17771TIP3    H274729   5.543   0.280  16.285 -1.4264  0.8063 -1.4953
17772TIP3   OH274730   4.123   1.761  15.753  0.2793 -0.2762  0.5075
17772TIP3    H174731   4.127   1.750  15.848 -2.1847 -0.5959  0.6460
17772TIP3    H274732   4.032   1.785  15.736  0.1468 -2.1718 -1.9693
17773TIP3   OH274733   2.847   2.850  15.521  0.1153  0.1751 -0.1217
17773TIP3    H174734   2.915   2.816  15.580  0.7748 -2.1490 -2.0585
17773TIP3    H274735   2.894   2.871  15.441 -1.2250 -0.1221 -1.0170
17774TIP3   OH274736   0.898   1.976   5.123  0.2750  0.9152 -0.1371
17774TIP3    H174737   0.852   1.941   5.047  1.2442  1.0239 -0.7994
17774TIP3    H274738   0.893   1.907   5.189  0.5976  0.2502 -0.7904
17775TIP3   OH274739   3.290   4.884   1.699  0.1986 -0.5767 -0.2779
17775TIP3    H174740   3.306   4.804   1.749 -1.2503 -0.2603  0.7766
17775TIP3    H274741   3.304   4.954   1.761 -1.5525 -0.1663 -0.2737
17776TIP3   OH274742   1.266   1.998   0.854  0.2539 -0.1351  0.8168
17776TIP3    H174743   1.279   1.910   0.892  2.2239 -1.1694 -1.9713
17776TIP3    H274744   1.248   1.982   0.762 -1.0831  2.3954  0.5590
17777TIP3   OH274745   2.135   4.292   3.709 -0.1480 -0.1376 -0.1325
17777TIP3    H174746   2.045   4.308   3.682 -0.2466 -1.1042 -0.3982
17777TIP3    H274747   2.188   4.316   3.633 -0.0354  1.9675  0.5539
17778TIP3   OH274748   4.192   4.155   0.870 -0.2244  0.2113 -0.3907
17778TIP3    H174749   4.148   4.108   0.799 -0.6779  0.3886 -0.2323
17778TIP3    H274750   4.193   4.094   0.943  0.3161 -0.0011 -0.5704
17779TIP3   OH274751   5.382   3.595   1.380  0.1145  0.2097  0.0904
17779TIP3    H174752   5.300   3.546   1.374  0.4603 -0.4844  0.9366
17779TIP3    H274753   5.355   3.685   1.396 -0.4731 -0.3200  2.3536
17780TIP3   OH274754   2.842   1.468  14.318 -0.6860  0.0948 -0.5586
17780TIP3    H174755   2.879   1.472  14.406  1.1340  1.8105 -1.3340
17780TIP3    H274756   2.861   1.379  14.289  2.4540  0.6571 -0.6544
17781TIP3   OH274757   2.359   2.810   1.591 -0.4167  0.0592 -0.1385
17781TIP3    H174758   2.333   2.760   1.513  0.2486  0.2678 -0.4994
17781TIP3    H274759   2.442   2.851   1.567 -1.0156  1.4771  0.0800
17782TIP3   OH274760   6.342   6.746   3.892 -0.0701  0.2264 -0.3632
17782TIP3    H174761   6.358   6.835   3.923  1.0578 -0.5553  1.5501
17782TIP3    H274762   6.332   6.695   3.973  1.1011 -1.6746 -1.3587
17783TIP3   OH274763   3.453   1.087   5.654  0.0129 -0.2480  0.3737
17783TIP3    H174764   3.470   0.994   5.668 -1.9881 -0.5905  0.8978
17783TIP3    H274765   3.428   1.094   5.562 -3.5391 -0.9716  1.1315
17784TIP3   OH274766   4.406   0.641   3.469 -0.0867 -0.0617  0.2007
17784TIP3    H174767   4.390   0.633   3.563  0.1375 -1.6588  0.1290
17784TIP3    H274768   4.501   0.650   3.461 -0.0616 -0.3626  0.1199
17785TIP3   OH274769   0.821   4.204  16.964  0.0759  0.6608 -0.3390
17785TIP3    H174770   0.754   4.262  17.001 -2.7892 -3.1923  1.1539
17785TIP3    H274771   0.867   4.169  17.041 -1.8715 -2.8358 -0.5487
17786TIP3   OH274772   4.388   5.208   2.646  0.6560 -0.3442 -0.2223
17786TIP3    H174773   4.459   5.146   2.630  0.9548 -0.2611  0.6873
17786TIP3    H274774   4.432   5.290   2.670  0.2556 -0.0427 -0.4909
17787TIP3   OH274775   5.919   6.478  10.464 -0.3723  0.5041  0.5183
17787TIP3    H174776   5.841   6.451  10.512 -0.2857 -0.6311  0.0444
17787TIP3    H274777   5.958   6.396  10.432  0.4053  1.1250 -0.1874
17788TIP3   OH274778   5.471   5.098   3.854  0.0778 -0.0639 -0.3525
17788TIP3    H174779   5.424   5.015   3.846  0.0495 -0.0811 -0.0105
17788TIP3    H274780   5.409   5.163   3.822 -0.5611  0.0307  1.0221
17789TIP3   OH274781   3.965   5.374   5.254  0.4034  0.1287  0.3562
17789TIP3    H174782   3.942   5.467   5.253 -1.7626 -0.2934  2.1904
17789TIP3    H274783   3.911   5.335   5.186  1.6886  0.2269 -0.7675
17790TIP3   OH274784   4.115   3.129   5.856 -0.0512 -0.3170 -0.3064
17790TIP3    H174785   4.158   3.210   5.828 -0.7661  0.0072 -0.4795
17790TIP3    H274786   4.179   3.087   5.914 -0.5875  1.5294  1.7288
17791TIP3   OH274787   2.186   6.485   5.157  0.5626 -0.1759  0.3499
17791TIP3    H174788   2.111   6.429   5.139  1.8591 -1.8469 -0.1771
17791TIP3    H274789   2.202   6.531   5.074 -0.3715  0.8607  0.7204
17792TIP3   OH274790   5.513   0.775   0.366 -0.3376  0.3810  0.0714
17792TIP3    H174791   5.432   0.726   0.376 -0.4106  0.2420 -1.0208
17792TIP3    H274792   5.566   0.751   0.442  0.1929 -2.5088 -1.0884
17793TIP3   OH274793   5.522   1.331  14.855 -0.6689 -0.2405 -0.5992
17793TIP3    H174794   5.589   1.276  14.816  0.5561  1.7282 -1.3997
17793TIP3    H274795   5.569   1.389  14.915 -1.4546  1.7595 -1.7908
17794TIP3   OH274796   2.884   4.660  15.781 -0.1508  0.5831  0.4586
17794TIP3    H174797   2.803   4.609  15.789 -1.5801  2.5251 -0.4968
17794TIP3    H274798   2.887   4.686  15.689  0.9662  1.4729  0.7173
17795TIP3   OH274799   0.340   2.143   4.035 -0.2052  0.1930 -0.1174
17795TIP3    H174800   0.396   2.116   3.963 -0.3387  1.0959 -0.5750
17795TIP3    H274801   0.277   2.072   4.045  0.9654 -0.8123  0.3733
17796TIP3   OH274802   5.690   6.120  15.735 -0.3771 -0.6342 -0.2148
17796TIP3    H174803   5.697   6.212  15.708 -2.3242 -0.1603  0.7451
17796TIP3    H274804   5.781   6.089  15.735  0.4129  1.4603  0.0404
17797TIP3   OH274805   4.430   1.542  10.738  0.6181 -0.0834  0.3059
17797TIP3    H174806   4.515   1.566  10.701  1.0261  0.0773  1.3055
17797TIP3    H274807   4.366   1.571  10.674  1.3613 -1.1243 -0.9487
17798TIP3   OH274808   3.665   1.148  11.647 -0.3911  0.2670 -0.0092
17798TIP3    H174809   3.694   1.234  11.677 -1.5932  0.9979 -0.8436
17798TIP3    H274810   3.740   1.090  11.662 -0.6008  0.6885  3.5928
17799TIP3   OH274811   0.460   6.082  13.564  0.2841 -0.0140 -0.1702
17799TIP3    H174812   0.461   5.994  13.601 -1.3368 -0.1613 -0.4289
17799TIP3    H274813   0.369   6.109  13.566  0.5599  1.1481 -1.3044
17800TIP3   OH274814   5.977   0.100  11.982  0.0650 -0.3359 -0.6934
17800TIP3    H174815   5.988   0.045  12.059  0.7442  1.0229  0.2217
17800TIP3    H274816   5.901   0.063  11.936 -0.9669 -0.5852  1.1459
17801TIP3   OH274817   5.257   6.689   3.079 -0.0973 -0.9342  0.2292
17801TIP3    H174818   5.253   6.644   3.164  0.9365 -0.5652  0.4847
17801TIP3    H274819   5.337   6.656   3.038  0.0353 -0.2278 -0.0951
17802TIP3   OH274820   5.745   4.185   2.122  0.3037  0.2715  0.1222
17802TIP3    H174821   5.708   4.254   2.067  0.2931 -0.3431 -0.6709
17802TIP3    H274822   5.837   4.180   2.097  0.3570  0.1510  0.3364
17803TIP3   OH274823   1.150   6.496  14.835 -0.2530  0.6006 -0.5107
17803TIP3    H174824   1.134   6.587  14.809 -0.4562  0.5254 -0.6510
17803TIP3    H274825   1.245   6.486  14.830 -0.0343  1.3700  1.3633
17804TIP3   OH274826   2.510   0.611   3.039  0.0776 -0.4841 -0.0794
17804TIP3    H174827   2.522   0.663   3.119  0.1023 -1.1407  0.3555
17804TIP3    H274828   2.457   0.536   3.067 -0.2948 -0.4889 -0.7839
17805TIP3   OH274829   2.975   5.325   2.047 -0.5093 -0.6565 -0.3030
17805TIP3    H174830   2.992   5.362   2.134  1.0840 -1.4634 -0.2406
17805TIP3    H274831   3.055   5.340   1.998 -0.2660 -2.8630 -0.6715
17806TIP3   OH274832   5.045   6.338  12.426 -0.1211  0.0263  0.0122
17806TIP3    H174833   5.023   6.271  12.361  2.9326 -0.3435 -0.7678
17806TIP3    H274834   5.068   6.288  12.505 -1.3264  0.3726  0.6134
17807TIP3   OH274835   1.557   2.410   2.645  0.0082  0.5392  0.0879
17807TIP3    H174836   1.517   2.455   2.570  1.1228 -1.1068 -1.6057
17807TIP3    H274837   1.650   2.433   2.639  0.3248 -0.6559  0.1321
17808TIP3   OH274838   3.980   4.541  16.470  0.0216 -0.7876  0.2207
17808TIP3    H174839   3.907   4.601  16.456 -0.4340 -0.5782  2.9811
17808TIP3    H274840   3.943   4.471  16.524  1.9362 -0.4732  2.0271
17809TIP3   OH274841   1.671   3.208   0.950 -0.0240 -0.5497  0.7801
17809TIP3    H174842   1.654   3.200   0.857 -2.9811  0.4307  1.1356
17809TIP3    H274843   1.662   3.119   0.985  0.1590 -0.7674  0.2733
17810TIP3   OH274844   1.343   2.021  15.816 -0.7863  0.2072  1.0989
17810TIP3    H174845   1.258   2.058  15.789  0.4268  1.2923 -1.5559
17810TIP3    H274846   1.406   2.090  15.798  1.0912 -1.7226 -0.1771
17811TIP3   OH274847   3.228   0.940  13.580 -0.4148  0.0735  0.0540
17811TIP3    H174848   3.248   0.934  13.673  0.2186 -3.1132 -0.1773
17811TIP3    H274849   3.303   0.988  13.543  1.0316 -1.4746  0.8123
17812TIP3   OH274850   2.024   0.553  16.336  0.6657 -0.0784  0.7005
17812TIP3    H174851   2.057   0.558  16.425  1.4102  0.5755  0.4032
17812TIP3    H274852   1.930   0.569  16.344  0.6115 -0.7181  1.4318
17813TIP3   OH274853   2.749   0.972  16.011  0.5442 -0.2507  0.1155
17813TIP3    H174854   2.662   0.995  16.045  1.2202 -0.2007  1.9462
17813TIP3    H274855   2.784   1.056  15.979 -0.0016 -0.2425 -0.4890
17814TIP3   OH274856   6.185   3.121   1.375 -0.0094  0.4646 -0.3198
17814TIP3    H174857   6.209   3.213   1.374 -0.5525  0.6115 -0.7712
17814TIP3    H274858   6.107   3.116   1.319 -0.0481 -0.2481 -0.2167
17815TIP3   OH274859   0.466   4.491  16.303 -0.2546  0.4174  0.0246
17815TIP3    H174860   0.531   4.549  16.264  0.3302  0.4623  1.0540
17815TIP3    H274861   0.511   4.449  16.376 -1.2051  0.0049  0.3904
17816TIP3   OH274862   5.822   0.563   2.254 -0.3029  0.2875 -0.7024
17816TIP3    H174863   5.798   0.598   2.168 -0.1301  2.4096  0.0688
17816TIP3    H274864   5.765   0.609   2.316 -1.0370 -1.8346  0.3029
17817TIP3   OH274865   3.401   5.745   0.292  0.1255 -0.1810 -0.1958
17817TIP3    H174866   3.310   5.750   0.263 -0.1477  1.4265  0.8092
17817TIP3    H274867   3.451   5.786   0.221 -0.2020  0.9455  0.1985
17818TIP3   OH274868   2.478   1.846  15.041  0.1688 -0.3485  0.1734
17818TIP3    H174869   2.479   1.839  15.137  2.2413 -2.1523  0.0901
17818TIP3    H274870   2.403   1.792  15.015 -0.4799  0.2450  0.7620
17819TIP3   OH274871   2.185   2.889  11.434 -0.3954  0.5636  0.2412
17819TIP3    H174872   2.153   2.979  11.442 -1.4287  0.2448 -0.0999
17819TIP3    H274873   2.252   2.893  11.366 -0.0842  1.1532  0.5715
17820TIP3   OH274874   5.844   4.583  11.856  0.0969  0.1083 -0.1796
17820TIP3    H174875   5.798   4.532  11.923 -1.1727  0.8597 -0.4455
17820TIP3    H274876   5.792   4.571  11.777 -0.2174  1.7685 -0.2567
17821TIP3   OH274877   4.153   4.165   3.601 -0.9804 -0.0003 -0.4431
17821TIP3    H174878   4.106   4.236   3.557 -1.8207  0.2794  0.8547
17821TIP3    H274879   4.205   4.208   3.668 -1.3031 -0.5901  0.1924
17822TIP3   OH274880   2.279   5.206   0.910 -0.2010 -0.8230  0.2963
17822TIP3    H174881   2.361   5.207   0.861  0.3762 -1.3358  1.2371
17822TIP3    H274882   2.239   5.291   0.891 -0.7649 -1.5666 -2.3181
17823TIP3   OH274883   0.888   3.816  15.348 -0.1839 -0.1100 -0.2312
17823TIP3    H174884   0.806   3.856  15.318  0.3119  2.0426  1.1168
17823TIP3    H274885   0.861   3.754  15.416 -0.7997 -0.6686 -0.9654
17824TIP3   OH274886   0.788   4.899  13.206 -0.1550 -0.5634 -0.3690
17824TIP3    H174887   0.760   4.808  13.211 -1.1862 -0.2715 -0.6910
17824TIP3    H274888   0.846   4.910  13.281  0.9544 -1.7974 -0.9837
17825TIP3   OH274889   1.531   1.542  15.297  0.2789 -0.1352  0.4457
17825TIP3    H174890   1.535   1.484  15.373 -2.4027 -3.2705 -1.5076
17825TIP3    H274891   1.614   1.528  15.252  0.2819 -1.3785  0.7926
17826TIP3   OH274892   0.680   3.338  11.532 -0.1057 -0.1079 -0.4663
17826TIP3    H174893   0.588   3.321  11.508 -0.3729  0.9303 -0.2118
17826TIP3    H274894   0.677   3.353  11.627  0.2113  0.7291 -0.5871
17827TIP3   OH274895   0.755   1.210  16.545  0.0036  0.6855  0.1324
17827TIP3    H174896   0.833   1.178  16.498  1.5404  1.1587  2.2155
17827TIP3    H274897   0.722   1.133  16.591  0.3263  0.8628  0.6666
17828TIP3   OH274898   6.199   3.495   1.062 -0.0037  0.1075 -0.0146
17828TIP3    H174899   6.181   3.587   1.080  0.6094  0.3779 -0.7494
17828TIP3    H274900   6.137   3.448   1.117 -0.0857  0.9510  0.6362
17829TIP3   OH274901   4.759   3.409   3.588  0.4587 -0.6895 -0.2695
17829TIP3    H174902   4.792   3.371   3.507  2.0128 -0.6627  0.3161
17829TIP3    H274903   4.811   3.488   3.600  0.0264 -0.5272  0.5815
17830TIP3   OH274904   5.333   2.194   4.123  0.8536 -0.1858 -0.4075
17830TIP3    H174905   5.348   2.146   4.041  0.7107 -1.8264  0.4917
17830TIP3    H274906   5.413   2.182   4.174  1.1463  1.2651 -0.4805
17831TIP3   OH274907   2.413   3.233  11.385 -0.0510 -0.1331 -0.2726
17831TIP3    H174908   2.411   3.206  11.293  1.5998 -0.5787 -0.1979
17831TIP3    H274909   2.425   3.152  11.434  0.1311  0.2211  0.2740
17832TIP3   OH274910   5.121   1.582  11.613  0.1786  0.0528 -0.5109
17832TIP3    H174911   5.139   1.560  11.704 -0.7889 -0.0864 -0.3478
17832TIP3    H274912   5.136   1.500  11.565 -1.4776 -0.4792 -0.1672
17833TIP3   OH274913   6.127   2.488   1.201  0.3558  0.4133  0.1387
17833TIP3    H174914   6.163   2.575   1.186  1.3725 -0.0883 -0.4786
17833TIP3    H274915   6.200   2.429   1.182 -0.4715 -0.5943  0.0061
17834TIP3   OH274916   3.410   1.658  14.010  0.1313  0.0277  0.7304
17834TIP3    H174917   3.324   1.668  14.051 -0.8388 -1.9045 -0.6142
17834TIP3    H274918   3.390   1.653  13.916  1.5753 -1.4872  0.4675
17835TIP3   OH274919   5.567   3.313  14.848  0.2017 -0.3741 -0.0881
17835TIP3    H174920   5.625   3.378  14.887 -0.2322  0.0694 -0.1667
17835TIP3    H274921   5.589   3.231  14.893  0.1061  0.0147  0.6799
17836TIP3   OH274922   1.438   2.967   2.023 -0.1339 -0.0796 -0.1049
17836TIP3    H174923   1.353   2.927   2.003 -0.6553  0.4827  0.9250
17836TIP3    H274924   1.502   2.899   1.999 -1.0468 -2.1772  2.8433
17837TIP3   OH274925   3.286   3.502   2.218  0.3685 -0.7058 -0.1655
17837TIP3    H174926   3.319   3.417   2.247  0.4933 -0.5075  0.2698
17837TIP3    H274927   3.204   3.513   2.265  0.6498 -0.3120  0.2392
17838TIP3   OH274928   3.501   4.192   0.974  0.3550 -0.4596 -0.0411
17838TIP3    H174929   3.429   4.152   1.023 -0.0172  2.6547  2.2432
17838TIP3    H274930   3.483   4.169   0.883 -2.7241 -1.0409  0.5970
17839TIP3   OH274931   0.144   5.032   0.997 -0.3270  0.0429 -0.2552
17839TIP3    H174932   0.194   5.018   0.916  0.2647  0.4827  0.0284
17839TIP3    H274933   0.127   5.126   0.998 -1.4197 -0.1408 -0.4890
17840TIP3   OH274934   2.790   3.957   5.172 -0.5650 -0.5712  0.2431
17840TIP3    H174935   2.736   4.035   5.158 -0.7568 -0.8690 -0.7454
17840TIP3    H274936   2.830   3.971   5.257 -1.2469  0.2266  0.4489
17841TIP3   OH274937   0.849   3.968  12.787  0.1430 -0.0281  0.0457
17841TIP3    H174938   0.902   4.017  12.724  0.3334 -1.8923 -1.3206
17841TIP3    H274939   0.762   4.007  12.782  0.0774 -0.3533 -1.6491
17842TIP3   OH274940   4.020   4.063   4.317  0.2644 -0.3819 -0.0425
17842TIP3    H174941   3.959   4.042   4.247  0.6511 -2.0199  0.0690
17842TIP3    H274942   4.081   4.125   4.278 -0.8662  0.4962 -0.4485
17843TIP3   OH274943   2.590   2.782   4.435 -0.2997 -0.1184  0.2966
17843TIP3    H174944   2.611   2.875   4.445  0.4543 -0.1469 -0.8417
17843TIP3    H274945   2.550   2.776   4.348  1.4328 -1.1148 -0.4934
17844TIP3   OH274946   0.592   0.198  11.510 -0.6887  0.4079 -0.2296
17844TIP3    H174947   0.535   0.149  11.451 -0.9651  0.8267 -0.3197
17844TIP3    H274948   0.619   0.135  11.576  0.8510 -0.4622 -1.6178
17845TIP3   OH274949   3.326   6.382  11.967  0.3917 -0.1323  0.5112
17845TIP3    H174950   3.302   6.407  11.878 -1.2693 -0.7915  0.7194
17845TIP3    H274951   3.257   6.320  11.994  1.9460 -1.5055  1.5440
17846TIP3   OH274952   3.761   2.613  10.483 -0.4089 -0.2474  0.0755
17846TIP3    H174953   3.846   2.645  10.454 -0.9805  1.1548 -0.1043
17846TIP3    H274954   3.759   2.521  10.453  1.1577 -0.4106  0.3929
17847TIP3   OH274955   2.868   2.359  15.465  0.2838 -0.0453 -0.5277
17847TIP3    H174956   2.960   2.352  15.491 -0.1394  0.2507  1.1689
17847TIP3    H274957   2.870   2.403  15.380  1.6382  1.8111  0.3914
17848TIP3   OH274958   6.043   0.630   2.971 -0.4901  0.7202 -0.8666
17848TIP3    H174959   6.127   0.655   3.009 -1.2425  3.8660 -0.9953
17848TIP3    H274960   6.023   0.546   3.011  2.4039  0.1462 -0.3927
17849TIP3   OH274961   2.871   2.269  13.003 -0.2607 -0.6099  0.4898
17849TIP3    H174962   2.903   2.342  12.950 -1.4118 -0.5170 -0.1076
17849TIP3    H274963   2.916   2.279  13.087  0.8415 -0.1868 -0.1203
17850TIP3   OH274964   0.066   5.322  11.778  0.0453 -0.0691 -0.2600
17850TIP3    H174965   0.061   5.407  11.736 -0.5481  0.9588  1.7839
17850TIP3    H274966   0.132   5.333  11.847 -0.4843 -1.0780  0.4355
17851TIP3   OH274967   5.783   4.564  14.690 -0.3315 -0.2720  0.2229
17851TIP3    H174968   5.822   4.602  14.769  1.0473  0.0038 -0.5707
17851TIP3    H274969   5.854   4.517  14.647 -1.0416 -0.3676 -0.9018
17852TIP3   OH274970   2.508   5.140   3.532 -0.3856  0.3101 -0.2197
17852TIP3    H174971   2.441   5.116   3.469 -0.7284  0.5894  0.0366
17852TIP3    H274972   2.585   5.088   3.507 -1.8792 -3.3221  1.9817
17853TIP3   OH274973   3.625   4.103  16.118 -0.0212  0.7908  0.4832
17853TIP3    H174974   3.647   4.016  16.087  1.3950  0.2277  2.8040
17853TIP3    H274975   3.551   4.089  16.178 -0.9440  1.4733 -0.4467
17854TIP3   OH274976   0.732   1.340   4.538 -0.6069  0.1830  0.8316
17854TIP3    H174977   0.679   1.419   4.548  0.3388  0.8059  1.0550
17854TIP3    H274978   0.814   1.360   4.583 -0.1660 -0.7463  0.4696
17855TIP3   OH274979   4.488   2.596   2.597  0.0904  0.2778 -0.3397
17855TIP3    H174980   4.431   2.538   2.547  0.7245 -0.1898 -0.5327
17855TIP3    H274981   4.528   2.652   2.530  0.5073  0.0315 -0.2966
17856TIP3   OH274982   5.036   4.101  11.816  0.0471 -0.1952 -0.2265
17856TIP3    H174983   4.959   4.092  11.760 -0.0355 -0.5932 -0.0549
17856TIP3    H274984   5.066   4.011  11.830  1.4574  0.0133 -1.5425
17857TIP3   OH274985   1.139   1.522  16.066 -0.0021  0.0893  0.0388
17857TIP3    H174986   1.207   1.548  16.004 -0.1673  0.4310 -0.0028
17857TIP3    H274987   1.182   1.458  16.123  0.0865 -0.3884 -0.5595
17858TIP3   OH274988   6.682   4.871   0.866  0.3641 -0.1067 -0.4796
17858TIP3    H174989   6.663   4.910   0.781  0.1899 -0.0031 -0.3921
17858TIP3    H274990   6.719   4.942   0.918  2.5259 -0.6516 -1.1524
17859TIP3   OH274991   1.900   3.664  16.560 -0.1000  0.1631 -0.0468
17859TIP3    H174992   1.867   3.585  16.518  2.5089 -0.3346 -1.3949
17859TIP3    H274993   1.841   3.733  16.530 -1.8554 -1.0801  0.3770
17860TIP3   OH274994   3.302   0.591   0.584  0.7716  0.0918  0.1844
17860TIP3    H174995   3.272   0.591   0.675 -0.3157  1.4027 -0.1305
17860TIP3    H274996   3.395   0.568   0.589  0.3243 -1.6495  1.4351
17861TIP3   OH274997   5.415   5.023   0.050 -0.4145  0.4444  0.5040
17861TIP3    H174998   5.345   4.959   0.032 -0.2118  0.6871 -1.3231
17861TIP3    H274999   5.411   5.084  -0.023  1.3415  0.8197  0.6821
17862TIP3   OH275000   5.658   5.886  17.099 -0.3621 -0.4278  0.8664
17862TIP3    H175001   5.697   5.940  17.030  0.5622  0.2234  1.8614
17862TIP3    H275002   5.569   5.868  17.068 -0.3252  0.7525 -0.0010
17863TIP3   OH275003   1.001   1.378   1.501  0.0281  0.1193 -0.1026
17863TIP3    H175004   0.942   1.444   1.536  0.6657 -0.2487  1.7791
17863TIP3    H275005   0.972   1.365   1.410 -1.5629  1.2781  0.2049
17864TIP3   OH275006   6.330   4.987  13.835 -0.2090  0.4571  0.6859
17864TIP3    H175007   6.368   5.029  13.912  1.5137 -1.5130  0.9910
17864TIP3    H275008   6.238   4.973  13.858 -0.1433  1.4699  1.6580
17865TIP3   OH275009   2.213   0.114   1.992  0.3711  0.1032  0.4482
17865TIP3    H175010   2.239   0.071   2.073  1.5227 -0.1036 -0.0092
17865TIP3    H275011   2.276   0.185   1.981  0.8573 -0.4893 -0.7685
17866TIP3   OH275012   6.418   0.692  12.639 -0.2154  0.6687 -0.4600
17866TIP3    H175013   6.364   0.615  12.655  0.0061  0.8420  1.2932
17866TIP3    H275014   6.489   0.661  12.582 -0.8827 -0.0833 -0.8964
17867TIP3   OH275015   0.085   4.735   1.551  0.1722 -0.4192 -0.3389
17867TIP3    H175016   0.053   4.824   1.536 -1.0092 -0.3480  2.1880
17867TIP3    H275017   0.136   4.741   1.632  2.0105 -1.6581 -1.3306
17868TIP3   OH275018   3.451   1.039   4.584 -0.2638 -0.1174  0.0015
17868TIP3    H175019   3.457   1.008   4.493  0.5075  1.4062 -0.5011
17868TIP3    H275020   3.386   1.109   4.582  0.9947  1.1106  0.2283
17869TIP3   OH275021   1.675   1.755   2.781  0.2101 -0.4453 -0.4673
17869TIP3    H175022   1.677   1.833   2.837 -0.0913 -0.7156 -0.0812
17869TIP3    H275023   1.602   1.772   2.721 -0.5140 -0.8733  0.2693
17870TIP3   OH275024   4.793   0.322  15.979  0.4989  0.6450 -0.1006
17870TIP3    H175025   4.827   0.306  16.067  2.5275  1.4549 -0.6793
17870TIP3    H275026   4.701   0.342  15.993  0.1215 -1.7705  1.5665
17871TIP3   OH275027   3.754   2.151  15.145  0.0643  0.4058  0.1706
17871TIP3    H175028   3.724   2.193  15.064 -2.4185 -0.7332  0.3851
17871TIP3    H275029   3.848   2.139  15.132 -0.4337 -1.2104 -3.3286
17872TIP3   OH275030   1.262   5.955  11.447 -0.0963  0.0074 -0.0230
17872TIP3    H175031   1.339   6.007  11.423  0.0420  0.5566  1.4927
17872TIP3    H275032   1.192   5.987  11.390  0.8197 -0.6738 -1.5960
17873TIP3   OH275033   0.168   6.248   0.935  0.2841  0.1086  0.0788
17873TIP3    H175034   0.159   6.155   0.915 -0.9099 -0.0439  1.1252
17873TIP3    H275035   0.162   6.252   1.031  0.0354  1.2739  0.0304
17874TIP3   OH275036   6.759   2.652  10.531 -0.4067 -0.2670  0.2996
17874TIP3    H175037   6.758   2.734  10.482  3.1460 -0.1288  0.2015
17874TIP3    H275038   6.680   2.605  10.502  0.1874  0.8557 -3.6826
17875TIP3   OH275039   0.716   1.048  16.197 -0.3277  0.3104 -0.1239
17875TIP3    H175040   0.680   1.073  16.112  1.7298 -1.7366 -1.7429
17875TIP3    H275041   0.672   0.966  16.219  0.2502  0.0330  0.0191
17876TIP3   OH275042   1.028   3.395   3.358 -0.2772  0.3773 -0.2506
17876TIP3    H175043   0.987   3.329   3.414  0.0479 -0.5113 -1.0345
17876TIP3    H275044   0.982   3.390   3.275  1.1442 -0.4057 -1.0380
17877TIP3   OH275045   1.485   6.674  12.133  0.0054  0.0760  0.1926
17877TIP3    H175046   1.477   6.712  12.045  1.0235  2.3835  1.0153
17877TIP3    H275047   1.554   6.608  12.123  1.5289  1.6521 -0.4323
17878TIP3   OH275048   5.881   1.231   6.201 -0.2720  0.1700 -0.1947
17878TIP3    H175049   5.864   1.210   6.109 -0.7710  0.9127 -0.2811
17878TIP3    H275050   5.847   1.155   6.249 -0.7046  0.1136 -0.5766
17879TIP3   OH275051   0.523   6.532   4.053  0.1955  0.5205 -0.1664
17879TIP3    H175052   0.523   6.457   3.993  1.7066  1.5849 -1.5758
17879TIP3    H275053   0.549   6.606   3.999  2.4908  1.4088  1.9391
17880TIP3   OH275054   6.706   5.421   6.448  0.4355 -0.4684  0.1792
17880TIP3    H175055   6.668   5.368   6.518  1.4709 -1.4299  0.0364
17880TIP3    H275056   6.717   5.361   6.374 -1.1801  0.6623 -1.0578
17881TIP3   OH275057   1.419   1.010  11.494 -0.1017  0.2972 -0.7773
17881TIP3    H175058   1.390   1.100  11.479 -0.6614  0.1634 -0.5504
17881TIP3    H275059   1.444   1.008  11.586  3.1613  1.0739 -1.5377
17882TIP3   OH275060   0.135   4.517  14.237 -0.0131 -0.6459  0.2568
17882TIP3    H175061   0.099   4.501  14.324 -0.2942 -1.5687 -0.0192
17882TIP3    H275062   0.060   4.547  14.185  0.0549 -0.5736  0.1988
17883TIP3   OH275063   1.910   1.650   1.484  0.0083 -0.1024 -0.3120
17883TIP3    H175064   1.835   1.708   1.499 -0.4912 -1.0063  0.8657
17883TIP3    H275065   1.960   1.655   1.565 -0.7957 -2.3438  0.3937
17884TIP3   OH275066   3.041   2.165  15.281 -0.5086 -0.0722 -0.0729
17884TIP3    H175067   3.027   2.114  15.202  2.5199 -2.4486  0.7218
17884TIP3    H275068   3.127   2.206  15.268 -0.9065  1.2367  1.1531
17885TIP3   OH275069   0.744   2.179  14.309 -0.3247  0.7059 -0.4579
17885TIP3    H175070   0.704   2.124  14.376  0.9886  0.7726  0.4117
17885TIP3    H275071   0.689   2.257  14.306  0.2611  1.2241  1.4100
17886TIP3   OH275072   1.543   1.145   3.217  0.1721 -0.2887 -0.3138
17886TIP3    H175073   1.494   1.197   3.281  1.3180  2.1318 -1.2619
17886TIP3    H275074   1.577   1.071   3.267 -1.8388 -0.3749  1.0287
17887TIP3   OH275075   0.016   3.239   0.656  0.5847 -0.0551  0.3122
17887TIP3    H175076   0.041   3.177   0.587  1.8606  0.3246  0.4032
17887TIP3    H275077  -0.037   3.305   0.611  0.4423 -0.4313 -0.0766
17888TIP3   OH275078   1.616   6.051   3.742  0.6208  0.4541 -0.1311
17888TIP3    H175079   1.648   5.992   3.810  1.7056 -0.7134 -1.5784
17888TIP3    H275080   1.625   6.139   3.780  1.7539 -0.1262  1.0204
17889TIP3   OH275081   5.308   3.455  15.781 -0.3154  0.0899  0.5481
17889TIP3    H175082   5.254   3.401  15.840 -0.6898  1.2046  1.2417
17889TIP3    H275083   5.245   3.489  15.717 -0.5733  1.7553  1.6186
17890TIP3   OH275084   1.889   4.622   4.375 -0.0049 -0.0219  0.0784
17890TIP3    H175085   1.825   4.561   4.338 -0.5439 -0.5906  1.8224
17890TIP3    H275086   1.839   4.702   4.392 -0.3443 -0.5156  1.5770
17891TIP3   OH275087   2.149   0.325   0.237 -0.4231 -0.5028 -0.6870
17891TIP3    H175088   2.182   0.414   0.248 -1.7977  0.5182 -3.5906
17891TIP3    H275089   2.068   0.336   0.186 -1.5479 -3.3143  0.2883
17892TIP3   OH275090   5.544   3.796  17.032  0.6900 -0.1912  0.9996
17892TIP3    H175091   5.579   3.832  16.951 -0.8185  1.9693  1.2517
17892TIP3    H275092   5.502   3.714  17.006 -0.7246  1.0021 -0.6322
17893TIP3   OH275093   0.041   3.414  12.844 -0.4482  0.0342  0.6664
17893TIP3    H175094   0.116   3.468  12.820  0.3386 -0.8039  1.1578
17893TIP3    H275095   0.077   3.327  12.858 -0.9690  0.1611  3.6890
17894TIP3   OH275096   0.912   5.276   3.951 -0.2901 -0.1949  0.1511
17894TIP3    H175097   0.857   5.271   3.873 -0.1811  1.5824 -0.1013
17894TIP3    H275098   0.884   5.203   4.006  1.2616 -3.0021 -2.5182
17895TIP3   OH275099   5.173   3.377   1.456  0.3801  0.2089  0.7337
17895TIP3    H175100   5.105   3.318   1.490  1.4392 -2.3735 -1.2545
17895TIP3    H275101   5.132   3.421   1.382  0.3986 -0.2084  0.4694
17896TIP3   OH275102   3.733   0.969  17.070  0.1206  0.1988  0.6995
17896TIP3    H175103   3.706   1.059  17.083  1.2036  0.6891 -0.2456
17896TIP3    H275104   3.779   0.969  16.986 -1.8110 -1.6947 -0.4451
17897TIP3   OH275105   1.963   6.315  15.901 -0.0537 -0.0807 -0.4289
17897TIP3    H175106   2.046   6.341  15.862  0.0990  0.6089  0.3086
17897TIP3    H275107   1.987   6.250  15.967 -0.0086  0.5570  0.2032
17898TIP3   OH275108   5.460   6.743   0.765  0.0419  0.0378  0.4355
17898TIP3    H175109   5.382   6.690   0.751  0.6661 -0.6609 -0.5604
17898TIP3    H275110   5.487   6.725   0.855  0.2617 -1.3786  0.1040
17899TIP3   OH275111   1.566   5.877   2.122 -0.2333  0.2831 -0.6146
17899TIP3    H175112   1.628   5.857   2.052 -0.9444  0.0680 -1.2055
17899TIP3    H275113   1.482   5.890   2.077 -0.6235  0.5540  0.1592
17900TIP3   OH275114   1.733   0.576   3.767  0.4281  0.1088  0.0857
17900TIP3    H175115   1.765   0.569   3.677 -0.5906  3.4865 -0.6951
17900TIP3    H275116   1.736   0.669   3.786 -4.6607  0.3302  1.4423
17901TIP3   OH275117   1.307   0.707   5.701 -0.5303  0.3148 -0.5943
17901TIP3    H175118   1.241   0.638   5.713 -1.7072  1.4707 -0.2481
17901TIP3    H275119   1.303   0.727   5.608  0.2569 -0.4847 -0.8183
17902TIP3   OH275120   2.271   1.375  14.383  0.0446 -1.0590  0.3893
17902TIP3    H175121   2.204   1.340  14.323  2.3436 -0.6035 -2.6509
17902TIP3    H275122   2.329   1.301  14.399  0.9477 -0.4974 -0.2081
17903TIP3   OH275123   4.235   1.218  11.085 -0.3878  0.0269 -0.4585
17903TIP3    H175124   4.278   1.133  11.095  1.8020  0.9716 -1.1524
17903TIP3    H275125   4.249   1.241  10.993 -0.2674  1.4495 -0.1169
17904TIP3   OH275126   3.720   5.473   0.160  0.3432  0.4878  0.4493
17904TIP3    H175127   3.635   5.442   0.128  0.2577 -0.1287  1.2546
17904TIP3    H275128   3.767   5.393   0.187  1.0246  0.8554  0.3872
17905TIP3   OH275129   1.865   5.112   4.918  0.5964  0.5454 -0.0753
17905TIP3    H175130   1.827   5.177   4.977 -2.2904 -1.3020  0.3395
17905TIP3    H275131   1.919   5.057   4.974 -1.4655 -0.7007  0.7974
17906TIP3   OH275132   5.586   3.200   1.668  0.0482 -0.2104 -0.3482
17906TIP3    H175133   5.542   3.269   1.619 -0.0307  0.4647  0.6599
17906TIP3    H275134   5.519   3.132   1.678 -0.5256  0.4562  0.4532
17907TIP3   OH275135   0.553   4.768   5.162 -0.4958  0.0667 -0.1070
17907TIP3    H175136   0.531   4.788   5.071 -1.0412  0.3025  0.0735
17907TIP3    H275137   0.498   4.827   5.214 -0.8046 -0.6451  0.3956
17908TIP3   OH275138   4.621   4.643   3.774  1.0142  0.7215  0.6603
17908TIP3    H175139   4.648   4.630   3.865 -0.4393  1.5710  1.2486
17908TIP3    H275140   4.700   4.670   3.728  1.6159  0.9873  1.8363
17909TIP3   OH275141   0.037   0.468  16.393 -0.0470 -0.0479 -0.6568
17909TIP3    H175142   0.082   0.507  16.468 -0.6107  1.2278 -0.9391
17909TIP3    H275143   0.041   0.536  16.326 -0.6689 -0.6772 -1.3442
17910TIP3   OH275144   5.711   6.462   0.767 -0.6212 -0.1009  0.1317
17910TIP3    H175145   5.735   6.370   0.760 -0.2138  0.0676 -0.9619
17910TIP3    H275146   5.662   6.480   0.686 -0.4770  0.6985  0.2158
17911TIP3   OH275147   1.511   1.900   0.371 -0.0273  0.1390  0.5653
17911TIP3    H175148   1.450   1.963   0.334 -0.4972 -0.6015  0.0350
17911TIP3    H275149   1.596   1.924   0.335 -0.1213  0.7345  0.7305
17912TIP3   OH275150   4.650   2.389   6.311  0.2680 -0.4842 -0.5565
17912TIP3    H175151   4.591   2.463   6.296 -0.7827 -1.5319 -1.8469
17912TIP3    H275152   4.697   2.411   6.392 -2.1383  0.2360  0.7264
17913TIP3   OH275153   4.945   0.592   0.573 -0.6509  0.3365  1.0775
17913TIP3    H175154   5.030   0.590   0.617  0.1052  1.5785 -0.2441
17913TIP3    H275155   4.961   0.550   0.488 -1.4986  0.0994  1.0262
17914TIP3   OH275156   1.733   4.460   2.324  0.8390 -0.0690  0.2196
17914TIP3    H175157   1.702   4.530   2.381  0.7337 -0.2615  0.3994
17914TIP3    H275158   1.719   4.379   2.374  0.2405 -0.2921 -0.2857
17915TIP3   OH275159   0.319   6.004  12.370 -0.0721  0.2710 -0.2731
17915TIP3    H175160   0.336   5.911  12.386  0.2955  0.6962  2.2108
17915TIP3    H275161   0.307   6.041  12.457  1.2395  2.8367 -1.0850
17916TIP3   OH275162   4.103   0.621  12.787  0.4679 -0.8532 -0.0141
17916TIP3    H175163   4.039   0.643  12.855 -0.2515 -0.8117 -0.6829
17916TIP3    H275164   4.058   0.555  12.733  0.6030 -0.1187 -1.0641
17917TIP3   OH275165   5.673   0.068   4.389 -0.0444  0.1378  0.2613
17917TIP3    H175166   5.700   0.145   4.439  2.0316  0.1088 -0.7199
17917TIP3    H275167   5.732  -0.002   4.418 -0.8820 -0.7042  0.0154
17918TIP3   OH275168   5.846   0.851  17.019 -0.2666  0.0036  0.4732
17918TIP3    H175169   5.755   0.881  17.013  0.2721  1.7927  0.7247
17918TIP3    H275170   5.872   0.868  17.110 -0.0414 -1.7025  0.7701
17919TIP3   OH275171   5.078   0.483  16.770 -0.2722 -0.2845 -0.2999
17919TIP3    H175172   4.984   0.496  16.755 -0.2402 -0.2349 -0.4590
17919TIP3    H275173   5.085   0.395  16.808 -0.4125 -0.1643  0.0061
17920TIP3   OH275174   5.464   2.213  13.571  0.3803 -0.2983  0.2226
17920TIP3    H175175   5.449   2.274  13.499  2.0454 -0.4933 -0.3263
17920TIP3    H275176   5.390   2.227  13.630  0.8550  2.4741  0.2971
17921TIP3   OH275177   6.369   2.009   3.272  0.1860 -0.1139 -0.4942
17921TIP3    H175178   6.292   2.046   3.229 -1.0322 -0.9255  0.9113
17921TIP3    H275179   6.417   2.085   3.304 -0.3633  0.3829 -0.8263
17922TIP3   OH275180   3.409   1.003   1.759 -0.2266  0.4157  0.0376
17922TIP3    H175181   3.417   0.911   1.735 -0.3660  0.1885  0.8260
17922TIP3    H275182   3.334   1.036   1.710  0.4174  0.3784 -1.0093
17923TIP3   OH275183   6.673   0.794  14.817 -0.3525  0.1985 -0.0023
17923TIP3    H175184   6.758   0.759  14.791 -1.2295 -1.4575 -0.8069
17923TIP3    H275185   6.638   0.729  14.877 -1.6245  0.1374 -0.7765
17924TIP3   OH275186   0.598   4.797   4.845  0.0296 -0.3232 -0.3928
17924TIP3    H175187   0.576   4.859   4.776  1.8218 -2.0816 -2.7367
17924TIP3    H275188   0.541   4.722   4.830  0.9915 -1.0510 -0.5032
17925TIP3   OH275189   0.379   1.548   0.192  0.0911  0.3887  0.3291
17925TIP3    H175190   0.419   1.633   0.208 -0.8167  0.6942  1.1289
17925TIP3    H275191   0.287   1.559   0.218 -0.3516 -0.4758 -0.7768
17926TIP3   OH275192   1.713   4.916  10.709 -0.1647 -0.2910 -0.2827
17926TIP3    H175193   1.759   4.957  10.782  3.7760 -0.9055 -2.1493
17926TIP3    H275194   1.672   4.839  10.747  1.6932 -0.5570  1.3678
17927TIP3   OH275195   2.032   1.492  12.734  0.5716 -0.5468 -0.2223
17927TIP3    H175196   1.963   1.508  12.798 -0.9076 -3.0549 -1.0711
17927TIP3    H275197   2.084   1.573  12.734 -2.5019  1.5724  0.2305
17928TIP3   OH275198   1.193   0.191   0.101  0.7786  0.6611  0.6751
17928TIP3    H175199   1.187   0.098   0.120  0.9983  0.2020 -1.3193
17928TIP3    H275200   1.273   0.200   0.048  0.2111  1.8030 -0.0255
17929TIP3   OH275201   0.847   3.409  16.696 -0.0020 -0.1420  0.2255
17929TIP3    H175202   0.894   3.341  16.745  1.0729  1.0839  0.9635
17929TIP3    H275203   0.800   3.459  16.763 -1.5645 -0.6887 -0.3989
17930TIP3   OH275204   0.064   0.144  14.257  0.2593  0.0335  0.3916
17930TIP3    H175205   0.051   0.113  14.347 -0.3831  0.3012  0.3999
17930TIP3    H275206   0.044   0.238  14.261  0.3392  0.0686 -0.0085
17931TIP3   OH275207   0.169   3.435   1.363 -0.1083 -0.3522 -0.1323
17931TIP3    H175208   0.239   3.467   1.306  0.3250 -0.9432  0.0687
17931TIP3    H275209   0.140   3.514   1.410  2.7588 -0.5582  2.3489
17932TIP3   OH275210   2.459   1.684   0.825 -0.3654  0.3741 -0.3329
17932TIP3    H175211   2.502   1.644   0.901  0.6741  1.0524 -0.5432
17932TIP3    H275212   2.510   1.763   0.807 -2.5478  2.0495  0.2908
17933TIP3   OH275213   2.146   2.568  10.703 -0.5888 -0.5867 -0.2072
17933TIP3    H175214   2.193   2.627  10.644 -0.0276 -1.8647 -1.0729
17933TIP3    H275215   2.077   2.622  10.741  0.8583  1.0477  0.2436
17934TIP3   OH275216   2.186   3.377   1.690  0.3108 -0.5870  0.1137
17934TIP3    H175217   2.134   3.314   1.641 -0.7247  0.2569  0.0926
17934TIP3    H275218   2.125   3.448   1.711  1.3999  0.3557  0.2391
17935TIP3   OH275219   1.811   1.800  15.339 -0.0988 -0.1354 -0.5465
17935TIP3    H175220   1.819   1.717  15.386  4.3783  0.3476  0.0576
17935TIP3    H275221   1.754   1.854  15.394 -2.0716 -2.3157 -0.3145
17936TIP3   OH275222   0.506   4.961   3.881 -0.3223 -0.2156  0.2364
17936TIP3    H175223   0.493   4.874   3.918 -1.1398 -0.6519 -1.0208
17936TIP3    H275224   0.509   5.019   3.957  2.2514 -1.5059  1.2661
17937TIP3   OH275225   2.591   3.414  12.753 -0.1946  0.0575  0.4306
17937TIP3    H175226   2.680   3.446  12.770 -0.8827  1.5298  1.5411
17937TIP3    H275227   2.535   3.471  12.806 -2.0413  0.8730 -2.1971
17938TIP3   OH275228   5.292   5.198  16.433  0.3681 -0.4253 -0.0725
17938TIP3    H175229   5.293   5.226  16.341 -0.4385  0.5109  0.1946
17938TIP3    H275230   5.324   5.108  16.430 -0.2133 -0.6135 -1.3389
17939TIP3   OH275231   4.780   4.684   0.214 -0.0199 -0.6040  0.0014
17939TIP3    H175232   4.798   4.691   0.307  0.6634 -0.9078 -0.1027
17939TIP3    H275233   4.759   4.773   0.187  3.4120  0.2649 -0.2741
17940TIP3   OH275234   2.487   0.791   3.267  0.4133 -0.0888 -0.3041
17940TIP3    H175235   2.551   0.851   3.228  0.6115  1.5423  2.2753
17940TIP3    H275236   2.408   0.844   3.276 -1.4158 -2.0257 -3.3080
17941TIP3   OH275237   4.713   1.522   1.439  0.3387 -0.1477 -0.2505
17941TIP3    H175238   4.764   1.546   1.361  0.5138 -0.2542 -0.1695
17941TIP3    H275239   4.778   1.515   1.509  0.0525  1.0640  0.1712
17942TIP3   OH275240   5.677   1.305  11.275  0.8151 -0.1747 -0.0979
17942TIP3    H175241   5.674   1.396  11.303  0.4777  0.0302 -0.7653
17942TIP3    H275242   5.682   1.254  11.356 -0.4716  0.3825  0.3664
17943TIP3   OH275243   6.436   6.747  13.912 -0.0222  0.0417  0.2565
17943TIP3    H175244   6.467   6.824  13.864 -0.0331 -0.0359  0.1240
17943TIP3    H275245   6.424   6.777  14.002 -0.8718  0.4275  0.0243
17944TIP3   OH275246   4.488   1.298  12.185  0.2428 -0.5852  0.4975
17944TIP3    H175247   4.524   1.275  12.099 -1.1358 -0.7718 -0.0586
17944TIP3    H275248   4.451   1.217  12.219  1.4796 -0.6977  1.6562
17945TIP3   OH275249   3.747   2.090  11.641 -0.1598  0.3212 -0.6479
17945TIP3    H175250   3.715   2.105  11.729  0.1984 -1.6500 -0.1268
17945TIP3    H275251   3.673   2.051  11.595  0.0490  0.1253 -0.8220
17946TIP3   OH275252   1.983   0.960  11.504 -0.2913  0.6860 -0.2109
17946TIP3    H175253   2.025   0.894  11.449 -1.9023 -1.0359  0.5094
17946TIP3    H275254   1.915   0.998  11.448  0.5992  1.7230 -0.6070
17947TIP3   OH275255   0.196   2.802  10.660  0.0630 -0.1333 -0.2407
17947TIP3    H175256   0.256   2.763  10.597  2.1654  1.7182  0.4871
17947TIP3    H275257   0.156   2.876  10.613 -0.3291 -0.2959 -0.1701
17948TIP3   OH275258   0.256   1.342  11.127  0.1895 -0.5209  0.6028
17948TIP3    H175259   0.282   1.279  11.195 -2.0378 -1.5889  0.5480
17948TIP3    H275260   0.169   1.314  11.100  0.0176  1.3328 -1.0023
17949TIP3   OH275261   1.351   5.915   5.071  0.0931  0.0397 -0.5147
17949TIP3    H175262   1.271   5.965   5.056 -0.5367 -0.7956 -0.0247
17949TIP3    H275263   1.333   5.862   5.149  0.3219 -1.7474 -1.6097
17950TIP3   OH275264   4.382   1.750  12.154  0.5766 -0.0370 -0.0677
17950TIP3    H175265   4.362   1.802  12.076 -1.8563  2.4329  1.9634
17950TIP3    H275266   4.345   1.664  12.135 -1.1171  0.8812 -1.2075
17951TIP3   OH275267   2.732   0.603   2.514 -0.6564  0.3977 -0.2579
17951TIP3    H175268   2.640   0.628   2.518 -0.6534  0.9525 -2.3285
17951TIP3    H275269   2.730   0.511   2.487 -0.5928 -0.0936  1.3310
17952TIP3   OH275270   0.977   1.355  14.500 -0.1734 -0.7021  0.0971
17952TIP3    H175271   1.047   1.345  14.565 -0.9359  2.0654  1.5099
17952TIP3    H275272   1.014   1.416  14.436 -1.2130  0.8015  0.8700
17953TIP3   OH275273   6.734   0.976   4.050  0.6884  0.5250 -0.2502
17953TIP3    H175274   6.807   1.010   3.999 -0.5176  1.0559 -1.6820
17953TIP3    H275275   6.661   1.034   4.029 -0.8267 -1.5032 -0.8659
17954TIP3   OH275276   5.173   2.853   3.717 -0.0047 -0.7009  0.2836
17954TIP3    H175277   5.269   2.856   3.709  0.1222 -2.8573  0.3925
17954TIP3    H275278   5.142   2.844   3.627 -0.1884  0.6914  0.1806
17955TIP3   OH275279   3.426   1.137  15.280  0.4774  0.2064  0.1056
17955TIP3    H175280   3.383   1.101  15.358  0.5090 -0.8573 -0.3411
17955TIP3    H275281   3.356   1.141  15.215  0.7326 -0.1237 -0.1879
17956TIP3   OH275282   2.162   5.871  11.124 -0.1663  0.1671 -0.2629
17956TIP3    H175283   2.106   5.798  11.097  0.6985 -0.7091  0.2155
17956TIP3    H275284   2.177   5.921  11.044  0.1456 -0.8414 -0.8638
17957TIP3   OH275285   3.213   4.243  16.920  0.1708  0.8313  0.5777
17957TIP3    H175286   3.119   4.256  16.913  0.1599 -0.1725 -2.7097
17957TIP3    H275287   3.249   4.281  16.841  2.4470  0.3614  1.3018
17958TIP3   OH275288   5.453   0.647   0.724 -0.0778  0.1834  0.5346
17958TIP3    H175289   5.481   0.559   0.748 -1.0796 -0.2246  0.2776
17958TIP3    H275290   5.502   0.667   0.644  0.4972  0.0477  0.8518
17959TIP3   OH275291   2.443   2.132   2.584  0.0170 -0.2592 -0.3594
17959TIP3    H175292   2.524   2.085   2.604 -0.1221 -0.5424 -0.4639
17959TIP3    H275293   2.425   2.184   2.663  1.0873  0.9380 -0.8613
17960TIP3   OH275294   0.624   3.247  15.169  0.4805  0.5579 -0.4993
17960TIP3    H175295   0.650   3.155  15.163  1.5657  0.9303 -2.0124
17960TIP3    H275296   0.542   3.245  15.219  1.4813 -1.0209  1.2203
17961TIP3   OH275297   0.823   0.546   6.469  0.0196  0.4182 -0.6040
17961TIP3    H175298   0.888   0.595   6.419  0.8532 -0.3675 -0.3210
17961TIP3    H275299   0.783   0.487   6.405 -0.3407  0.8159 -0.7520
17962TIP3   OH275300   5.320   6.028   2.030  0.1994 -0.1900  0.0020
17962TIP3    H175301   5.299   6.001   1.940  1.1973  0.2419 -0.3726
17962TIP3    H275302   5.396   5.975   2.054 -1.0300 -1.4727  1.2051
17963TIP3   OH275303   6.796   4.345   1.992  0.5802  0.0341 -0.0682
17963TIP3    H175304   6.843   4.411   2.043  0.0550 -0.5793  1.2452
17963TIP3    H275305   6.704   4.371   1.999  0.4585 -0.3232 -0.3135
17964TIP3   OH275306   1.803   3.617  11.389  0.6836 -0.1112  0.3052
17964TIP3    H175307   1.781   3.575  11.306 -1.0677  0.6645  0.3254
17964TIP3    H275308   1.780   3.552  11.456  0.3954 -0.0859  0.2348
17965TIP3   OH275309   5.494   4.824   5.157  0.1316  0.4104 -0.5089
17965TIP3    H175310   5.510   4.854   5.068 -0.5458 -0.4474 -0.9421
17965TIP3    H275311   5.461   4.900   5.203 -0.6915  0.5697 -1.3324
17966TIP3   OH275312   3.349   0.546   2.076 -0.2307  0.6558 -0.0988
17966TIP3    H175313   3.379   0.531   2.166 -0.5234  0.8168  0.0272
17966TIP3    H275314   3.372   0.637   2.058 -0.4285  0.7084 -0.0859
17967TIP3   OH275315   6.211   0.570   5.528 -0.2665  0.3807 -0.2388
17967TIP3    H175316   6.216   0.663   5.509 -0.6020  0.5628  0.5096
17967TIP3    H275317   6.227   0.564   5.622  1.0526 -0.4467 -0.4860
17968TIP3   OH275318   0.097   0.658  12.697 -0.4854 -0.5198  0.8853
17968TIP3    H175319   0.153   0.641  12.773  0.2028 -0.4094  0.4152
17968TIP3    H275320   0.157   0.654  12.622 -0.8901  0.6883  0.4649
17969TIP3   OH275321   5.875   6.169   4.478  0.4006 -0.2183  0.3632
17969TIP3    H175322   5.792   6.134   4.510 -1.2441  2.0545 -1.0677
17969TIP3    H275323   5.935   6.160   4.552 -1.4816 -0.7490  1.9124
17970TIP3   OH275324   0.208   5.553  16.909 -0.4201  0.5837  0.3514
17970TIP3    H175325   0.118   5.548  16.878 -0.3674  0.4378  0.2233
17970TIP3    H275326   0.249   5.472  16.878 -0.0510  0.9779 -0.2157
17971TIP3   OH275327   4.421   5.461  15.732 -0.5730 -0.3682 -0.4921
17971TIP3    H175328   4.370   5.381  15.743  0.2844 -0.8671  0.0435
17971TIP3    H275329   4.510   5.430  15.714 -0.3090  0.4665 -0.6783
17972TIP3   OH275330   4.965   3.487   6.370  0.5109 -0.2329  0.3499
17972TIP3    H175331   4.946   3.547   6.298  1.0212 -0.4002  0.0676
17972TIP3    H275332   5.002   3.409   6.328  0.2271 -0.5855  0.7449
17973TIP3   OH275333   5.681   1.293  12.750  0.7932 -0.2070 -0.9794
17973TIP3    H175334   5.675   1.207  12.790  0.4556 -0.1162 -0.8328
17973TIP3    H275335   5.679   1.276  12.655  0.4966 -0.3436 -0.9481
17974TIP3   OH275336   1.617   5.924  10.300  0.5146  0.4159 -0.0181
17974TIP3    H175337   1.652   5.839  10.325 -0.0352  0.4455  0.8842
17974TIP3    H275338   1.594   5.914  10.208 -0.1920 -0.6312  0.2571
17975TIP3   OH275339   2.317   0.244  15.785  0.5217 -0.7718 -0.7812
17975TIP3    H175340   2.276   0.290  15.859  0.8415 -1.6236 -0.0541
17975TIP3    H275341   2.402   0.216  15.819  0.6497 -1.2218 -1.4560
17976TIP3   OH275342   3.222   2.320  13.970  0.0533 -0.6761 -0.0187
17976TIP3    H175343   3.292   2.368  14.014 -2.7440  1.0557  2.9452
17976TIP3    H275344   3.231   2.344  13.878  1.1888  2.5204  0.7949
17977TIP3   OH275345   5.119   1.161   0.793 -0.7068 -0.2085  0.3009
17977TIP3    H175346   5.081   1.128   0.874 -0.0406 -1.8724 -0.0332
17977TIP3    H275347   5.214   1.163   0.810 -0.5335 -0.8704 -0.5159
17978TIP3   OH275348   3.360   5.066   0.726  0.2206 -0.2484  0.2264
17978TIP3    H175349   3.333   5.039   0.638 -1.6517  1.1114  0.3251
17978TIP3    H275350   3.279   5.067   0.777  1.1533 -0.2200  1.7816
17979TIP3   OH275351   3.960   5.110   4.086 -0.3771  0.1597 -0.1984
17979TIP3    H175352   3.955   5.123   4.181 -0.5078 -0.5212 -0.1036
17979TIP3    H275353   3.892   5.046   4.067 -1.2413  1.2664 -0.9575
17980TIP3   OH275354   4.472   1.501   0.129  0.8651  0.0954  0.0900
17980TIP3    H175355   4.461   1.551   0.210  1.9243  0.2884  0.1228
17980TIP3    H275356   4.382   1.489   0.097  0.4536  0.2816  1.1230
17981TIP3   OH275357   3.438   0.982  11.832 -0.5006  0.3246  0.6988
17981TIP3    H175358   3.451   1.066  11.788  1.7481  0.2422  1.1078
17981TIP3    H275359   3.445   1.003  11.925  1.0487 -0.4387  0.7730
17982TIP3   OH275360   3.042   6.108   5.631  0.1598  0.1690  0.3639
17982TIP3    H175361   2.980   6.044   5.596  0.6047 -0.7955  1.2601
17982TIP3    H275362   3.036   6.097   5.726  1.3823  0.3497  0.4836
17983TIP3   OH275363   1.699   5.186   5.602 -0.1517  0.4606 -0.0950
17983TIP3    H175364   1.676   5.097   5.577  0.3111  0.4590 -0.5132
17983TIP3    H275365   1.707   5.183   5.698 -1.0624  0.2740 -0.0154
17984TIP3   OH275366   5.066   3.562  16.748 -0.5159  0.1595 -0.7688
17984TIP3    H175367   5.087   3.606  16.830 -0.1762  2.1210 -1.8650
17984TIP3    H275368   5.082   3.469  16.767 -0.9243  0.4783  1.5091
17985TIP3   OH275369   5.208   1.615   5.970 -0.4038 -0.0635  0.4714
17985TIP3    H175370   5.270   1.566   6.024 -0.0369 -1.1140 -0.8321
17985TIP3    H275371   5.130   1.622   6.025  0.2017 -0.4348  1.4148
17986TIP3   OH275372   3.245   5.115   2.160  0.2228  0.0567 -0.2531
17986TIP3    H175373   3.193   5.170   2.219 -0.1619  0.8969 -1.3175
17986TIP3    H275374   3.330   5.160   2.154  0.8259 -0.8883  0.8710
17987TIP3   OH275375   1.725   5.126   2.412 -0.4802 -0.4913 -0.0104
17987TIP3    H175376   1.784   5.057   2.443 -1.0610 -1.0609 -0.1513
17987TIP3    H275377   1.710   5.182   2.488 -1.5217 -1.6084  0.6367
17988TIP3   OH275378   6.365   6.762  11.343 -0.0669 -0.2938 -0.3019
17988TIP3    H175379   6.387   6.711  11.420 -1.3354 -0.5812 -0.0952
17988TIP3    H275380   6.445   6.763  11.290  0.9400  0.2332  1.1748
17989TIP3   OH275381   5.045   0.789  14.544 -0.4924  0.0961 -0.6782
17989TIP3    H175382   5.018   0.817  14.457 -2.0145  0.1860 -0.2202
17989TIP3    H275383   5.138   0.768  14.536  0.0554  2.5830 -1.7079
17990TIP3   OH275384   5.107   6.382  10.461 -0.4110 -0.7757 -0.3074
17990TIP3    H175385   5.030   6.348  10.506  0.4066 -0.0168  1.7925
17990TIP3    H275386   5.084   6.471  10.437 -0.6866 -1.0290 -0.9966
17991TIP3   OH275387   2.268   3.947   6.353 -0.3164 -0.1643  0.2333
17991TIP3    H175388   2.354   3.931   6.392 -0.9159 -2.0941  0.8958
17991TIP3    H275389   2.252   3.870   6.298 -1.2107  0.6244 -0.6467
17992TIP3   OH275390   2.774   1.670  10.602  0.2316 -0.2328  0.0892
17992TIP3    H175391   2.848   1.659  10.541 -0.3863 -0.3599 -0.6580
17992TIP3    H275392   2.769   1.764  10.618  0.9076 -0.2774  0.6000
17993TIP3   OH275393   2.462   2.937   1.885  0.6150 -0.1942 -0.6418
17993TIP3    H175394   2.393   2.977   1.832  1.6150  0.5873 -1.4001
17993TIP3    H275395   2.543   2.974   1.851  1.3128  0.3965  1.4670
17994TIP3   OH275396   1.281   5.299   0.172 -0.6342  0.3843 -0.9071
17994TIP3    H175397   1.263   5.206   0.159  0.7516 -0.0522  0.0238
17994TIP3    H275398   1.354   5.301   0.234 -0.1871  2.0795 -1.4156
17995TIP3   OH275399   3.958   3.341  11.004  0.1535  0.5400  0.3300
17995TIP3    H175400   3.992   3.256  10.978 -1.0012  0.3641 -0.7059
17995TIP3    H275401   4.030   3.382  11.053  1.2244 -0.4687 -0.3426
17996TIP3   OH275402   3.741   2.923  11.027 -0.6823  0.1264  0.0423
17996TIP3    H175403   3.671   2.988  11.028  0.2659  1.2224 -1.3584
17996TIP3    H275404   3.702   2.845  10.988 -1.3177  0.4768 -0.0276
17997TIP3   OH275405   5.454   3.504   1.743 -0.0278  0.6471  0.1601
17997TIP3    H175406   5.464   3.514   1.648 -1.8364  0.3692 -0.1054
17997TIP3    H275407   5.430   3.591   1.774 -3.0017  0.0758 -0.2332
17998TIP3   OH275408   0.332   6.744   6.358 -0.9670 -0.4960  0.7423
17998TIP3    H175409   0.397   6.755   6.427 -0.0934  0.0567 -0.1449
17998TIP3    H275410   0.283   6.826   6.357 -0.2996 -0.0971  0.0326
17999TIP3   OH275411   2.594   0.639  12.309 -0.1976 -0.0382  0.4628
17999TIP3    H175412   2.670   0.599  12.268 -0.3976  0.5940 -0.5796
17999TIP3    H275413   2.532   0.651  12.237 -1.5675 -1.1512  1.4068
18000TIP3   OH275414   5.293   0.981  15.719  0.2254 -0.0126  0.0348
18000TIP3    H175415   5.199   0.974  15.704  0.2287  0.3015 -0.1419
18000TIP3    H275416   5.316   1.068  15.686  0.3869  0.3542  1.0592
18001TIP3   OH275417   2.583   0.136   1.741  0.0892  0.4650 -0.4742
18001TIP3    H175418   2.571   0.230   1.755 -1.9560  0.6857 -2.9801
18001TIP3    H275419   2.658   0.130   1.681 -0.5223  0.5940 -1.2565
18002TIP3   OH275420   5.216   0.320   4.418  0.0824  0.1661  0.2687
18002TIP3    H175421   5.305   0.347   4.442  0.8628 -2.8856  1.1398
18002TIP3    H275422   5.223   0.227   4.399 -2.7431  0.0839 -0.8663
18003TIP3   OH275423   1.764   3.470  11.170  0.3590  0.4075  0.7236
18003TIP3    H175424   1.795   3.395  11.222  3.8404  1.1681  0.0264
18003TIP3    H275425   1.721   3.431  11.094  0.6952 -0.8604  1.1577
18004TIP3   OH275426   3.633   6.274  11.499  0.4293 -0.3698 -0.1167
18004TIP3    H175427   3.622   6.223  11.579 -0.8774 -0.0207 -0.0390
18004TIP3    H275428   3.710   6.328  11.514  1.7507 -2.1721 -0.1366
18005TIP3   OH275429   3.121   4.988  16.930 -0.5069 -0.0930  0.1656
18005TIP3    H175430   3.151   5.074  16.899  0.7469 -0.3610  0.5826
18005TIP3    H275431   3.134   4.930  16.855 -2.0067  0.2006 -0.3432
18006TIP3   OH275432   1.843   5.465   0.877  0.0851  0.7930 -0.0274
18006TIP3    H175433   1.844   5.549   0.832  2.2828  0.9523  0.2213
18006TIP3    H275434   1.935   5.446   0.894 -0.4097 -1.3582  0.5084
18007TIP3   OH275435   0.068   4.325   3.246 -0.2259  0.1829  0.2887
18007TIP3    H175436   0.121   4.370   3.311 -2.7347 -1.0319  3.4267
18007TIP3    H275437   0.091   4.233   3.255 -0.4426  0.0042 -0.7862
18008TIP3   OH275438   5.586   2.139   0.427 -0.5016  0.4338  0.4284
18008TIP3    H175439   5.516   2.094   0.380 -0.5576  0.7961  0.1604
18008TIP3    H275440   5.661   2.080   0.421 -0.8317 -0.0391  0.8797
18009TIP3   OH275441   3.556   3.158   5.003 -0.5688  0.7710  0.2521
18009TIP3    H175442   3.575   3.097   4.932 -2.8321 -2.3818  2.1280
18009TIP3    H275443   3.581   3.244   4.967  0.7051 -0.8877 -3.3673
18010TIP3   OH275444   4.168   1.756   4.976 -0.4994  0.2233 -0.5725
18010TIP3    H175445   4.143   1.666   4.999  1.2642 -0.2520 -0.3666
18010TIP3    H275446   4.172   1.802   5.060 -0.7418  0.3197 -0.6131
18011TIP3   OH275447   2.340   4.805   5.991  0.2815 -0.1851  0.1497
18011TIP3    H175448   2.290   4.885   6.009 -0.8489 -1.2090  1.9051
18011TIP3    H275449   2.431   4.834   5.985 -0.1613  1.2963  0.2462
18012TIP3   OH275450   3.124   5.216   1.746  0.6046  0.3557 -0.6243
18012TIP3    H175451   3.196   5.199   1.685 -0.4519  1.0650 -2.0976
18012TIP3    H275452   3.154   5.291   1.798  1.0169  0.5056 -1.0742
18013TIP3   OH275453   4.188   2.309  13.084  0.6964 -0.0857 -0.0783
18013TIP3    H175454   4.188   2.403  13.065 -0.6293 -0.4520 -2.1493
18013TIP3    H275455   4.111   2.296  13.139  0.5080 -0.0736 -0.3427
18014TIP3   OH275456   6.345   1.167  16.176  0.2633 -0.7648  0.4245
18014TIP3    H175457   6.391   1.250  16.162 -1.5277  0.2992  0.4884
18014TIP3    H275458   6.268   1.191  16.228 -0.2602 -2.4941  0.5178
18015TIP3   OH275459   4.294   3.325  12.784 -0.0170 -0.4283  0.0182
18015TIP3    H175460   4.290   3.383  12.860  2.3246 -0.1686  0.0095
18015TIP3    H275461   4.334   3.379  12.716 -0.3943 -1.2285 -0.8495
18016TIP3   OH275462   1.729   6.245   4.832  0.4027 -0.6558  0.7622
18016TIP3    H175463   1.757   6.172   4.887  2.9953 -0.7233 -0.5045
18016TIP3    H275464   1.658   6.286   4.881  0.3172 -2.7316  2.5069
18017TIP3   OH275465   5.630   2.337   3.196 -0.1520  0.4452  0.3742
18017TIP3    H175466   5.612   2.403   3.130 -0.7425  1.5878  1.6220
18017TIP3    H275467   5.718   2.305   3.175  0.0040  1.3637 -0.4678
18018TIP3   OH275468   1.586   6.228  11.684 -0.1143  0.5723  0.2655
18018TIP3    H175469   1.626   6.215  11.598 -0.2139  0.3915  0.2453
18018TIP3    H275470   1.614   6.152  11.735  1.0062  1.3198  0.7959
18019TIP3   OH275471   2.520   6.720  15.410  0.4109  0.0654  0.2479
18019TIP3    H175472   2.430   6.699  15.384  1.0388 -2.2769 -0.1971
18019TIP3    H275473   2.537   6.804  15.367 -0.7295 -0.6584 -1.7455
18020TIP3   OH275474   4.828   0.649   4.391 -0.2590  0.1190 -0.2065
18020TIP3    H175475   4.734   0.632   4.395 -0.2154  0.0364  0.8345
18020TIP3    H275476   4.868   0.564   4.374 -0.3244  0.0039  0.2095
18021TIP3   OH275477   1.612   1.387   0.827  0.0518  0.0714 -0.4295
18021TIP3    H175478   1.601   1.308   0.880  0.0396 -0.4240 -1.1526
18021TIP3    H275479   1.609   1.459   0.889 -2.1025 -0.3445  0.0178
18022TIP3   OH275480   5.933   6.249  16.438 -0.1633 -0.4278  0.0302
18022TIP3    H175481   5.926   6.342  16.417 -1.6101 -0.6191 -0.4245
18022TIP3    H275482   5.973   6.210  16.360 -1.9310 -0.5498 -0.8551
18023TIP3   OH275483   3.757   5.419   5.984 -0.6978 -0.1450  0.5659
18023TIP3    H175484   3.688   5.391   6.044  0.1892 -2.1997  0.6982
18023TIP3    H275485   3.838   5.412   6.035 -0.3537  3.3288  0.8004
18024TIP3   OH275486   4.497   5.440  14.326 -0.2689  1.0577  0.5977
18024TIP3    H175487   4.429   5.437  14.258 -0.9786  1.9589  1.2376
18024TIP3    H275488   4.451   5.416  14.406  0.3709  0.8244  0.8934
18025TIP3   OH275489   1.469   0.740  11.799  0.0739  0.0046  0.8244
18025TIP3    H175490   1.428   0.825  11.788 -1.6575 -0.4922  2.7367
18025TIP3    H275491   1.399   0.683  11.829  1.1139 -2.2102 -0.6706
18026TIP3   OH275492   4.716   4.830   2.151 -0.4461  0.4279 -0.5082
18026TIP3    H175493   4.806   4.854   2.131 -0.6646 -0.1904 -2.5336
18026TIP3    H275494   4.724   4.753   2.208  0.2956  0.7654 -0.1491
18027TIP3   OH275495   1.223   3.327  13.386 -0.1597  0.6608 -0.1721
18027TIP3    H175496   1.140   3.336  13.434 -0.4853  0.8382 -0.7673
18027TIP3    H275497   1.241   3.415  13.353 -0.3477  0.3721 -1.0569
18028TIP3   OH275498   6.270   2.881   3.233  0.0557 -0.2134 -0.2731
18028TIP3    H175499   6.191   2.845   3.271  0.0814  0.8920  0.9044
18028TIP3    H275500   6.250   2.891   3.140 -1.6562  1.1664  0.1783
18029TIP3   OH275501   2.088   5.651  12.716  0.9465  0.1506  0.5699
18029TIP3    H175502   2.121   5.590  12.782 -0.6165  0.3646  1.6010
18029TIP3    H275503   2.032   5.711  12.765 -0.6082  0.0570 -0.9991
18030TIP3   OH275504   1.201   0.381   3.517 -0.4503  0.3774 -0.0963
18030TIP3    H175505   1.195   0.319   3.444 -0.6043 -0.4192  0.5677
18030TIP3    H275506   1.242   0.459   3.480  1.8803 -0.9339 -0.4709
18031TIP3   OH275507   2.350   3.455   1.493  0.3847 -0.3174 -0.0487
18031TIP3    H175508   2.300   3.433   1.572  0.3937  1.5113  0.5344
18031TIP3    H275509   2.291   3.435   1.420 -0.1821 -0.6827  0.4991
18032TIP3   OH275510   6.533   6.480  16.191 -0.0940  0.4661 -0.3322
18032TIP3    H175511   6.543   6.400  16.138 -0.2563  0.2699 -0.0649
18032TIP3    H275512   6.551   6.551  16.129  0.5558  0.2085 -0.4555
18033TIP3   OH275513   3.644   6.310  10.816 -0.1296  0.3779 -0.2379
18033TIP3    H175514   3.597   6.230  10.792  0.7302 -0.3918  0.5563
18033TIP3    H275515   3.662   6.353  10.732 -0.5873 -0.2599 -0.6775
18034TIP3   OH275516   6.078   6.347  14.820 -0.8247  0.4171 -0.5347
18034TIP3    H175517   6.062   6.317  14.910 -0.1776  1.2132 -0.1432
18034TIP3    H275518   6.145   6.289  14.786 -0.6356  0.4945 -0.2912
18035TIP3   OH275519   2.767   5.477   2.538 -0.6749 -0.2886  0.5991
18035TIP3    H175520   2.727   5.467   2.624 -0.2104 -1.5663  0.6916
18035TIP3    H275521   2.855   5.438   2.548 -0.4306  0.0052 -0.3118
18036TIP3   OH275522   2.621   0.189  16.809  0.2113 -0.1329  0.3325
18036TIP3    H175523   2.659   0.240  16.738 -1.7191 -0.7548 -1.2300
18036TIP3    H275524   2.556   0.246  16.848  1.0334  0.0863  1.4160
18037TIP3   OH275525   2.455   4.948  17.058  0.9647 -0.2872  0.1518
18037TIP3    H175526   2.407   4.943  17.141  2.8137 -0.9716  1.2445
18037TIP3    H275527   2.432   4.868  17.012  1.1973 -0.6924  0.7382
18038TIP3   OH275528   1.495   0.513   3.235  0.1992  0.3180 -0.1742
18038TIP3    H175529   1.413   0.512   3.186  0.1708 -0.3708 -0.1136
18038TIP3    H275530   1.514   0.421   3.252  1.0081  0.4728 -0.2238
18039TIP3   OH275531   6.618   4.210   2.815 -0.0525  0.5297 -0.7126
18039TIP3    H175532   6.654   4.203   2.726  1.2657 -0.4126 -0.1355
18039TIP3    H275533   6.661   4.286   2.853 -2.1008  2.1716 -1.4898
18040TIP3   OH275534   3.423   2.329  11.427 -0.1823 -0.1351 -0.1405
18040TIP3    H175535   3.373   2.252  11.453  0.4178 -0.4294  0.1694
18040TIP3    H275536   3.514   2.299  11.424  0.3070  0.9596  1.7130
18041TIP3   OH275537   5.177   4.429  13.070  0.1611 -0.2174 -0.2070
18041TIP3    H175538   5.183   4.341  13.032  1.2646  0.1233 -0.8642
18041TIP3    H275539   5.266   4.448  13.102 -0.4824 -0.0578  1.6079
18042TIP3   OH275540   0.812   1.918  13.495 -0.0488  0.3931  0.1758
18042TIP3    H175541   0.853   1.977  13.430 -0.5937 -0.0567 -0.5899
18042TIP3    H275542   0.876   1.913  13.566  0.5569  0.9118 -0.3189
18043TIP3   OH275543   4.229   5.775  16.574  0.1868  0.6094 -0.1089
18043TIP3    H175544   4.321   5.749  16.578 -0.2585 -1.3857  4.6924
18043TIP3    H275545   4.229   5.867  16.602  0.7119  0.4656  0.3856
18044TIP3   OH275546   0.423   1.661  16.616  0.1473  0.0079  0.5645
18044TIP3    H175547   0.478   1.709  16.678 -0.0921 -0.1397  0.8942
18044TIP3    H275548   0.485   1.617  16.557  0.3680  0.5407  0.3967
18045TIP3   OH275549   2.299   2.651  16.399  0.0081  0.4201 -0.4229
18045TIP3    H175550   2.210   2.642  16.365 -0.1217  2.0792 -0.5713
18045TIP3    H275551   2.309   2.744  16.417  0.9731 -0.0167  1.6597
18046TIP3   OH275552   3.546   3.105  10.669  0.1069 -0.2808  0.1253
18046TIP3    H175553   3.561   3.101  10.574  0.5108 -0.3516  0.1870
18046TIP3    H275554   3.624   3.150  10.703  0.9449 -2.0201  0.6403
18047TIP3   OH275555   2.091   3.350   5.229 -0.0323 -0.3465  0.3229
18047TIP3    H175556   2.038   3.349   5.149  1.0863  0.2316 -0.4467
18047TIP3    H275557   2.075   3.265   5.269 -0.1746 -0.8808 -0.8177
18048TIP3   OH275558   5.833   4.452   5.996  0.5911  0.2602 -0.0757
18048TIP3    H175559   5.803   4.393   6.066  1.1383 -0.0404 -0.0864
18048TIP3    H275560   5.760   4.512   5.982 -0.8965 -1.7952 -1.6401
18049TIP3   OH275561   5.767   2.502  12.493 -0.5378  0.0278 -0.4920
18049TIP3    H175562   5.706   2.538  12.428 -0.4662 -0.6661 -0.9522
18049TIP3    H275563   5.832   2.571  12.504 -0.8857  0.3980 -0.7048
18050TIP3   OH275564   4.008   0.941  12.341  0.4185  0.0216  0.1632
18050TIP3    H175565   3.959   0.910  12.265  2.5281  0.4353 -1.4583
18050TIP3    H275566   3.952   0.919  12.416 -1.6011 -0.6821 -1.4455
18051TIP3   OH275567   3.638   2.329   4.809 -0.5760 -0.3505 -0.2947
18051TIP3    H175568   3.657   2.359   4.720 -1.6569 -0.3490 -0.5331
18051TIP3    H275569   3.591   2.247   4.797 -0.8278 -0.2923  0.2723
18052TIP3   OH275570   4.924   2.236  12.352 -0.0203 -0.5352 -0.2944
18052TIP3    H175571   4.850   2.176  12.341 -0.0688 -0.4689 -0.3292
18052TIP3    H275572   4.998   2.179  12.370 -0.1939 -0.5754  0.3204
18053TIP3   OH275573   4.944   6.520  12.798  0.0949  0.2177 -0.3175
18053TIP3    H175574   4.991   6.573  12.862 -0.6445 -0.4017  0.7841
18053TIP3    H275575   4.932   6.577  12.723 -2.6310  2.4592  1.6062
18054TIP3   OH275576   3.483   2.070   1.627  0.3815  0.1015  0.4455
18054TIP3    H175577   3.457   2.131   1.696  0.9013 -0.1540  0.8781
18054TIP3    H275578   3.477   1.984   1.668 -0.5468 -0.1685 -0.2231
18055TIP3   OH275579   6.615   0.416   2.358  0.8633 -1.1186  0.2266
18055TIP3    H175580   6.658   0.341   2.400  1.0606 -0.8357  0.5326
18055TIP3    H275581   6.674   0.489   2.374 -0.3279 -0.4535  1.7416
18056TIP3   OH275582   6.417   0.385   1.834 -0.1700  0.2548  0.2436
18056TIP3    H175583   6.449   0.344   1.914  1.5527  0.7756 -0.1383
18056TIP3    H275584   6.487   0.444   1.807 -0.6892  0.0780 -1.6687
18057TIP3   OH275585   2.750   4.028  14.725 -0.0065 -0.3320  0.2551
18057TIP3    H175586   2.759   3.985  14.810 -0.8661 -0.1271  0.4571
18057TIP3    H275587   2.831   4.006  14.679 -0.8219 -3.0091 -0.0460
18058TIP3   OH275588   1.306   5.043  11.806 -0.4499 -0.4577 -0.2340
18058TIP3    H175589   1.375   5.088  11.757 -0.4604 -0.6723 -0.4479
18058TIP3    H275590   1.249   5.114  11.837 -0.3202 -0.3050 -0.3437
18059TIP3   OH275591   3.278   4.163   2.195  0.0265 -0.2443 -0.8115
18059TIP3    H175592   3.244   4.175   2.284  0.7014 -0.4898 -0.5103
18059TIP3    H275593   3.266   4.069   2.177 -1.0609 -0.0184 -1.3968
18060TIP3   OH275594   1.800   2.195   4.082  0.2976  0.1063  0.2624
18060TIP3    H175595   1.832   2.215   4.170 -0.6832 -1.6216  1.0521
18060TIP3    H275596   1.727   2.255   4.069 -2.4317 -2.4734  2.4797
18061TIP3   OH275597   6.363   6.410  13.746 -0.2004  0.2057  0.2556
18061TIP3    H175598   6.394   6.439  13.832  0.6971 -2.1869  0.7967
18061TIP3    H275599   6.268   6.404  13.756 -0.1500  0.3815  0.9325
18062TIP3   OH275600   3.219   6.321  11.669 -0.2458  0.1448  0.5319
18062TIP3    H175601   3.174   6.236  11.674 -2.5942  0.7236 -4.3834
18062TIP3    H275602   3.305   6.301  11.632 -0.4170 -0.2179  0.3249
18063TIP3   OH275603   0.708   0.781  13.825  0.6712 -0.0169 -0.4487
18063TIP3    H175604   0.615   0.777  13.803  0.6237 -0.2912 -0.2032
18063TIP3    H275605   0.714   0.851  13.890  0.7383  0.4520 -0.9459
18064TIP3   OH275606   5.005   6.338   5.181  0.1791  0.5033  0.0693
18064TIP3    H175607   5.084   6.285   5.173 -0.0991 -0.0240  0.6803
18064TIP3    H275608   4.997   6.382   5.097  1.1833  0.6575  0.0386
18065TIP3   OH275609   1.011   4.610  12.409 -1.0710  0.0778 -0.0594
18065TIP3    H175610   1.009   4.675  12.480  2.1709 -0.9316  1.1215
18065TIP3    H275611   1.046   4.657  12.334 -0.7477  0.2038  0.1704
18066TIP3   OH275612   1.972   4.725  13.284  0.5092 -0.2947  0.3115
18066TIP3    H175613   2.037   4.781  13.326 -1.8355  1.2269  2.0927
18066TIP3    H275614   1.939   4.777  13.211 -1.1187  0.3968  1.4985
18067TIP3   OH275615   5.300   1.140   3.501 -0.1812 -0.1562 -0.2845
18067TIP3    H175616   5.312   1.047   3.520  0.1426  0.2929  2.0385
18067TIP3    H275617   5.207   1.156   3.519  0.2906  0.4351  1.8932
18068TIP3   OH275618   0.314   3.260   6.451 -0.1923  0.0036 -0.5011
18068TIP3    H175619   0.274   3.182   6.411 -1.9075 -0.0092  1.0768
18068TIP3    H275620   0.387   3.226   6.502 -0.7954 -0.5715 -0.0010
18069TIP3   OH275621   6.622   6.643  16.424  0.7111 -0.3954  0.1282
18069TIP3    H175622   6.713   6.654  16.395 -0.0837  0.7710 -2.1892
18069TIP3    H275623   6.592   6.565  16.378 -0.0492  0.4261 -0.7961
18070TIP3   OH275624   4.711   5.416  11.035 -0.1315 -0.3341  0.2801
18070TIP3    H175625   4.619   5.428  11.060 -0.3619  0.2474 -0.7857
18070TIP3    H275626   4.709   5.414  10.939  1.1016  0.8437  0.2116
18071TIP3   OH275627   0.079   0.208   6.186  0.5844  0.6288 -0.1695
18071TIP3    H175628   0.022   0.138   6.219  0.2553  0.3185 -1.3612
18071TIP3    H275629   0.160   0.199   6.236 -0.5108  1.3289  1.8536
18072TIP3   OH275630   5.323   0.407  14.469  0.4086  0.4444  0.0783
18072TIP3    H175631   5.321   0.359  14.551  0.2718 -2.1406 -1.3414
18072TIP3    H275632   5.269   0.356  14.409  1.2980  1.6815 -1.9078
18073TIP3   OH275633   1.410   3.094  16.139  0.8561 -0.2451  0.2179
18073TIP3    H175634   1.454   3.149  16.074 -0.2516 -1.0071 -1.2340
18073TIP3    H275635   1.439   3.005  16.118  0.8504 -0.4618  1.0910
18074TIP3   OH275636   4.094   4.577   3.743 -0.3996 -0.3189 -0.1641
18074TIP3    H175637   4.048   4.498   3.773 -0.1800 -0.6355 -0.6526
18074TIP3    H275638   4.176   4.577   3.794  0.0902 -0.9953 -0.9223
18075TIP3   OH275639   3.538   3.850  15.368 -0.0025 -0.1448  0.0757
18075TIP3    H175640   3.626   3.882  15.386  1.2521 -1.9015 -2.4247
18075TIP3    H275641   3.534   3.765  15.411 -0.7081  0.1208  0.5741
18076TIP3   OH275642   2.291   2.076  14.717 -0.2985 -0.5988  0.3642
18076TIP3    H175643   2.356   2.008  14.739  1.6751  1.1373  0.2325
18076TIP3    H275644   2.343   2.155  14.703 -2.1811  0.3106 -2.4542
18077TIP3   OH275645   6.544   4.504  15.739  0.4667  0.3027  0.5456
18077TIP3    H175646   6.479   4.534  15.675  1.2773  0.5567 -0.1793
18077TIP3    H275647   6.504   4.522  15.824 -1.6143 -2.0806  0.2170
18078TIP3   OH275648   5.334   6.210  12.500 -0.3039  0.3866  0.3683
18078TIP3    H175649   5.393   6.195  12.426 -0.6777 -0.2702  0.1989
18078TIP3    H275650   5.343   6.303  12.519 -1.0711  0.8290 -1.2562
18079TIP3   OH275651   0.336   3.514   4.492 -0.2885 -0.4034 -0.5093
18079TIP3    H175652   0.342   3.544   4.582 -0.3103  1.7301 -1.1546
18079TIP3    H275653   0.257   3.461   4.489 -0.4434 -0.2515  0.6563
18080TIP3   OH275654   5.142   4.889   4.656 -0.0969 -0.0539  0.5425
18080TIP3    H175655   5.182   4.848   4.580 -0.1796  0.7413  0.0565
18080TIP3    H275656   5.174   4.980   4.654  0.2017 -0.1215  1.6707
18081TIP3   OH275657   4.058   2.422  12.436  0.2155  0.0324  0.0594
18081TIP3    H175658   3.999   2.486  12.476  0.2472  0.0837  0.0236
18081TIP3    H275659   4.062   2.448  12.343  0.7099  0.3492  0.1655
18082TIP3   OH275660   1.734   2.549  12.997 -0.2496 -0.6759 -0.4213
18082TIP3    H175661   1.668   2.592  12.942 -0.3891 -0.2662  0.0597
18082TIP3    H275662   1.692   2.467  13.024 -2.5843  1.6181  3.7823
18083TIP3   OH275663   6.045   1.619  12.177  0.2594  0.5992  0.3467
18083TIP3    H175664   5.998   1.680  12.121 -0.6520  0.5455  1.0206
18083TIP3    H275665   6.127   1.663  12.197 -0.6202  1.8992  1.2971
18084TIP3   OH275666   3.889   5.615  13.549  0.1735 -0.2626  0.0292
18084TIP3    H175667   3.944   5.662  13.487 -0.8700 -0.2759 -0.9378
18084TIP3    H275668   3.853   5.542  13.499 -2.7166  1.1684 -0.1674
18085TIP3   OH275669   4.430   5.698   3.929 -0.3198  0.0355  0.4211
18085TIP3    H175670   4.409   5.605   3.921 -0.6800  0.0929  0.6719
18085TIP3    H275671   4.367   5.742   3.872 -0.5456  0.1692  0.7698
18086TIP3   OH275672   3.994   1.137   3.912  0.1854 -0.1428 -0.6105
18086TIP3    H175673   4.002   1.227   3.946  2.3796 -0.6527  0.3693
18086TIP3    H275674   3.990   1.148   3.817  1.9420  0.9812 -0.6117
18087TIP3   OH275675   4.156   5.344   2.319 -0.4337  0.1008 -0.3541
18087TIP3    H175676   4.137   5.329   2.227  0.6288 -0.0542 -0.5588
18087TIP3    H275677   4.200   5.429   2.322  0.3369 -0.2928 -0.1114
18088TIP3   OH275678   6.666   4.395   4.847  0.1788  0.2329 -0.2610
18088TIP3    H175679   6.596   4.449   4.810  0.4173  0.5101 -0.3093
18088TIP3    H275680   6.684   4.435   4.932  0.7116  0.5377 -0.5190
18089TIP3   OH275681   5.604   4.949  15.432  0.6015  0.3505  1.2391
18089TIP3    H175682   5.616   4.931  15.338  0.8734  1.2562  1.1007
18089TIP3    H275683   5.557   5.032  15.435 -0.9046 -0.4859  1.8816
18090TIP3   OH275684   4.598   3.245  10.914  0.1547  0.2828  0.0598
18090TIP3    H175685   4.529   3.282  10.858 -0.2176 -0.1379  0.2356
18090TIP3    H275686   4.597   3.300  10.992  0.0865  0.3406  0.0194
18091TIP3   OH275687   1.321   1.173  16.820 -0.2387  0.6486 -0.5905
18091TIP3    H175688   1.346   1.258  16.782 -2.1464  1.0421 -1.0400
18091TIP3    H275689   1.226   1.175  16.823 -0.2610 -0.3317  2.0739
18092TIP3   OH275690   5.338   1.546  14.674 -0.2029  1.0010 -0.0798
18092TIP3    H175691   5.428   1.523  14.699  0.2445  1.3613 -1.2720
18092TIP3    H275692   5.312   1.613  14.737  0.3554  0.8646  0.3050
18093TIP3   OH275693   3.887   3.721   4.314 -0.2892 -0.0275 -0.6333
18093TIP3    H175694   3.977   3.690   4.326 -0.8058 -1.0323  1.0508
18093TIP3    H275695   3.847   3.657   4.255  0.2272  0.7318 -1.8370
18094TIP3   OH275696   4.438   2.372   1.287 -0.4615 -0.6194  0.4917
18094TIP3    H175697   4.365   2.416   1.330  0.8631  0.1335  2.0948
18094TIP3    H275698   4.424   2.386   1.194 -1.7219  0.5208  0.8224
18095TIP3   OH275699   3.798   4.760  17.030 -0.2553  0.1331 -0.0882
18095TIP3    H175700   3.803   4.688  17.093 -0.3789  0.1893 -0.0143
18095TIP3    H275701   3.889   4.776  17.006 -0.1869  0.2617  0.2479
18096TIP3   OH275702   2.573   4.524   5.889  0.0881 -0.2708 -1.0570
18096TIP3    H175703   2.498   4.572   5.925 -0.8697 -1.4434 -1.4358
18096TIP3    H275704   2.626   4.504   5.966 -1.6892 -2.3114 -0.2449
18097TIP3   OH275705   4.179   4.762   3.266  0.2215  0.0120 -0.1188
18097TIP3    H175706   4.178   4.851   3.232 -1.5913  0.2447  0.4409
18097TIP3    H275707   4.113   4.762   3.336  1.0351 -1.4621  0.7040
18098TIP3   OH275708   2.831   0.979  15.349  0.0812 -0.4675 -0.2517
18098TIP3    H175709   2.894   1.041  15.312  0.0400 -0.5442 -0.4512
18098TIP3    H275710   2.817   0.915  15.280 -0.0298 -0.5866 -0.1187
18099TIP3   OH275711   0.177   2.825  15.694  0.5918 -0.5615 -0.0840
18099TIP3    H175712   0.156   2.733  15.709 -1.1327 -0.1228  0.4029
18099TIP3    H275713   0.231   2.850  15.769  3.6311 -1.8578 -1.6425
18100TIP3   OH275714   6.409   5.687  13.324 -0.0167  0.1397  0.1152
18100TIP3    H175715   6.440   5.739  13.250 -1.2729 -0.1687 -0.6397
18100TIP3    H275716   6.336   5.737  13.360 -1.4117 -1.1843 -0.7767
18101TIP3   OH275717   3.982   3.854   2.119  0.2079 -0.2125  0.2704
18101TIP3    H175718   4.068   3.878   2.086  1.1332 -2.1370  1.1128
18101TIP3    H275719   3.960   3.774   2.072 -1.6153  0.7632 -0.6513
18102TIP3   OH275720   4.028   4.503   0.534 -0.0589 -0.2120 -0.1472
18102TIP3    H175721   4.062   4.542   0.615  0.4858  1.4519 -1.1402
18102TIP3    H275722   4.003   4.414   0.560  0.6893  0.0609  1.6990
18103TIP3   OH275723   6.552   6.783  11.938 -0.5690 -0.7614 -0.0057
18103TIP3    H175724   6.558   6.846  12.010  1.3201  1.5463 -1.9819
18103TIP3    H275725   6.473   6.808  11.890 -0.2956 -0.4140 -0.2883
18104TIP3   OH275726   1.262   1.305   6.614  0.1296  0.1313  0.1035
18104TIP3    H175727   1.346   1.330   6.576 -0.3756  1.3891 -0.2181
18104TIP3    H275728   1.198   1.322   6.544 -0.3397 -1.3538  0.1350
18105TIP3   OH275729   2.164   1.283   5.210 -0.2622 -0.0519 -0.1068
18105TIP3    H175730   2.205   1.353   5.261 -1.0286 -0.7260  1.5231
18105TIP3    H275731   2.221   1.207   5.224 -1.0238 -0.5133  0.6713
18106TIP3   OH275732   1.647   0.163   5.788  0.5081  0.3441 -0.5892
18106TIP3    H175733   1.575   0.225   5.778 -1.1163 -1.7855 -3.7217
18106TIP3    H275734   1.605   0.084   5.823  1.5557 -0.5545 -1.3000
18107TIP3   OH275735   1.197   0.206   3.273 -0.9209  0.4073 -0.1924
18107TIP3    H175736   1.243   0.138   3.323 -1.5025  1.7357  2.2823
18107TIP3    H275737   1.140   0.157   3.214 -0.1418 -1.2533  0.3658
18108TIP3   OH275738   2.549   0.782   5.836  0.1695  0.1910  0.0576
18108TIP3    H175739   2.642   0.803   5.843  0.3482 -0.4303 -0.3289
18108TIP3    H275740   2.510   0.815   5.917  0.7642  0.2604  0.3171
18109TIP3   OH275741   3.058   4.202   2.584 -0.4138  0.4009 -0.0251
18109TIP3    H175742   3.062   4.288   2.543 -0.1001  0.3028 -0.2085
18109TIP3    H275743   3.000   4.151   2.527  1.8639 -0.4635 -1.7930
18110TIP3   OH275744   3.178   1.141   5.152  0.3888  0.2074  0.1021
18110TIP3    H175745   3.156   1.048   5.150 -0.4125  0.3846 -1.7476
18110TIP3    H275746   3.263   1.146   5.107  0.0785  0.4226 -0.4769
18111TIP3   OH275747   6.745   2.933  15.072 -0.4360  0.7204 -0.2191
18111TIP3    H175748   6.662   2.932  15.119 -0.0005 -0.5857  0.5555
18111TIP3    H275749   6.802   2.989  15.124 -0.5181  0.7762 -0.1887
18112TIP3   OH275750   1.996   2.624   5.042 -0.8998  0.1071 -0.7148
18112TIP3    H175751   1.947   2.542   5.043 -0.7433 -0.0034 -1.5859
18112TIP3    H275752   2.014   2.642   5.134  1.0521 -2.0410 -0.5847
18113TIP3   OH275753   1.213   5.575   3.596  0.1668  0.1682 -0.2444
18113TIP3    H175754   1.180   5.642   3.656  0.9290  0.2376  0.1176
18113TIP3    H275755   1.173   5.494   3.626 -1.0083  0.4971 -0.8779
18114TIP3   OH275756   4.029   2.946   4.186 -0.5924 -0.1094  0.5106
18114TIP3    H175757   4.059   2.933   4.096 -1.6124 -0.6282  0.2285
18114TIP3    H275758   4.094   3.004   4.225 -0.3942  0.5148 -0.7005
18115TIP3   OH275759   2.188   0.428   5.877  0.8524 -0.1341 -0.4080
18115TIP3    H175760   2.105   0.475   5.872  0.5254 -0.7669 -1.3729
18115TIP3    H275761   2.175   0.352   5.820  0.9615 -1.9951  1.8721
18116TIP3   OH275762   0.128   4.277  14.411 -0.2001  0.2933  0.1144
18116TIP3    H175763   0.200   4.338  14.426  0.4387 -0.4974  0.2643
18116TIP3    H275764   0.165   4.191  14.425 -1.0662 -0.1520 -0.2492
18117TIP3   OH275765   6.611   6.029  15.401  0.3355 -0.3830  0.3704
18117TIP3    H175766   6.568   5.968  15.342  1.5264 -0.7325 -0.1790
18117TIP3    H275767   6.544   6.054  15.464 -0.7152 -0.7132 -0.5853
18118TIP3   OH275768   6.465   1.684   3.812  0.1016 -0.2175  0.2484
18118TIP3    H175769   6.555   1.691   3.845 -0.0869 -0.7589  0.8834
18118TIP3    H275770   6.414   1.655   3.887 -0.0855 -3.1100 -0.8748
18119TIP3   OH275771   6.013   5.329  13.262  0.1415  0.0499  0.2883
18119TIP3    H175772   5.980   5.267  13.327  1.0701  1.5732  2.3489
18119TIP3    H275773   6.073   5.385  13.311 -0.2749  2.2685 -1.5619
18120TIP3   OH275774   6.466   0.951  16.508  0.6225  0.9590 -0.2372
18120TIP3    H175775   6.527   0.955  16.435 -1.9524 -1.1518 -2.7858
18120TIP3    H275776   6.511   0.898  16.574  2.6568  2.1063 -0.6116
18121TIP3   OH275777   0.470   2.952   1.602  0.2468  0.0041 -0.4344
18121TIP3    H175778   0.445   2.943   1.510 -2.4831 -0.7615  0.2826
18121TIP3    H275779   0.463   3.045   1.620  1.5613  0.2684 -1.1457
18122TIP3   OH275780   2.077   5.007  11.322  0.0670  0.1180  0.3435
18122TIP3    H175781   2.109   4.916  11.319 -0.4334 -0.0848  0.9741
18122TIP3    H275782   2.000   5.006  11.265  0.8300  0.4722 -0.7215
18123TIP3   OH275783   1.028   3.469   4.411  0.4664 -0.2062  0.5115
18123TIP3    H175784   0.970   3.501   4.341  0.9953 -1.3859 -0.5009
18123TIP3    H275785   1.037   3.375   4.394  1.2292 -0.3768  1.7240
18124TIP3   OH275786   0.292   4.728  15.717 -0.1672 -0.1972  0.2955
18124TIP3    H175787   0.327   4.785  15.648 -1.0674  0.7529  0.5987
18124TIP3    H275788   0.325   4.766  15.799  0.6042 -1.1097  0.4234
18125TIP3   OH275789   5.211   0.752   1.323 -0.4184 -0.3573 -0.5002
18125TIP3    H175790   5.142   0.803   1.281 -0.6787 -1.4563 -1.4726
18125TIP3    H275791   5.248   0.699   1.252 -0.7509 -2.1657  0.6116
18126TIP3   OH275792   0.491   3.200  15.422 -0.1573  0.3042 -0.3685
18126TIP3    H175793   0.427   3.258  15.462  0.7331  1.2167 -0.2472
18126TIP3    H275794   0.438   3.139  15.370 -1.1992  0.2357  0.7184
18127TIP3   OH275795   1.677   5.179  13.040  0.4527  0.2064  0.5339
18127TIP3    H175796   1.607   5.232  13.001 -0.0373 -0.9365 -0.1858
18127TIP3    H275797   1.709   5.125  12.968  1.4206  0.0166  1.0880
18128TIP3   OH275798   5.720   2.017   4.961  0.4566  0.2055  0.0465
18128TIP3    H175799   5.782   2.088   4.945  0.1382  0.0236 -2.3765
18128TIP3    H275800   5.748   1.947   4.902 -1.4071 -0.2538 -0.3681
18129TIP3   OH275801   6.628   6.015  17.123 -0.0541 -0.1899  0.0256
18129TIP3    H175802   6.613   6.094  17.070  0.7810  0.6490  0.9834
18129TIP3    H275803   6.544   5.997  17.165  0.1295  1.1555  1.0318
18130TIP3   OH275804   2.445   4.995   1.867  0.6623 -0.4793  0.2402
18130TIP3    H175805   2.537   4.998   1.893  0.3887 -0.0886  1.1885
18130TIP3    H275806   2.445   5.026   1.776  1.4143 -0.0747  0.3673
18131TIP3   OH275807   6.381   0.445   1.086  0.2495 -0.7708 -0.0113
18131TIP3    H175808   6.379   0.454   0.991  0.4699 -0.3951  0.0205
18131TIP3    H275809   6.294   0.474   1.115  0.6504  0.4614  0.0174
18132TIP3   OH275810   0.159   4.750  11.070 -0.3922 -0.0731  0.3274
18132TIP3    H175811   0.210   4.781  10.995 -1.3940 -0.6499 -0.6201
18132TIP3    H275812   0.074   4.792  11.060 -0.0007  1.3046  2.1883
18133TIP3   OH275813   3.265   5.539   5.093  0.4592 -0.0020 -0.5931
18133TIP3    H175814   3.291   5.479   5.163  1.4773 -1.3334 -2.0577
18133TIP3    H275815   3.169   5.534   5.092  0.4795 -0.6801  0.0762
18134TIP3   OH275816   6.221   0.399  12.992 -0.1965  0.0149 -0.3896
18134TIP3    H175817   6.163   0.327  13.015 -0.7813  0.4937 -0.3484
18134TIP3    H275818   6.214   0.460  13.065  0.6169 -0.0712 -0.2270
18135TIP3   OH275819   1.929   1.749  16.087 -0.2568  0.6637 -0.0237
18135TIP3    H175820   1.891   1.766  16.173 -0.2515  0.6230 -0.0130
18135TIP3    H275821   1.976   1.830  16.065  0.8654  0.2142  0.6033
18136TIP3   OH275822   5.666   1.758   3.523 -0.3144 -0.2156  0.1661
18136TIP3    H175823   5.715   1.680   3.498  0.7406  0.5380 -0.2021
18136TIP3    H275824   5.698   1.827   3.464  0.8872  1.1714  2.2974
18137TIP3   OH275825   0.544   0.449  12.768 -0.2040 -0.1984 -0.1042
18137TIP3    H175826   0.616   0.468  12.828  0.8594 -3.3913 -0.1936
18137TIP3    H275827   0.585   0.441  12.682 -1.5943  3.4598 -1.3246
18138TIP3   OH275828   3.558   0.186  12.446 -0.2864  0.1289  0.1748
18138TIP3    H175829   3.571   0.140  12.529  1.0928 -1.5839 -0.9090
18138TIP3    H275830   3.466   0.172  12.425 -0.5880  0.3708  1.2823
18139TIP3   OH275831   4.761   4.468  15.887  0.2506  0.4293  0.1021
18139TIP3    H175832   4.728   4.557  15.897 -0.1521  0.1648  1.2666
18139TIP3    H275833   4.689   4.420  15.847  0.7445  0.7766 -1.2736
18140TIP3   OH275834   6.392   4.471  10.990  0.0977 -0.8986  0.4785
18140TIP3    H175835   6.377   4.377  10.981  0.4265 -1.2808  3.1010
18140TIP3    H275836   6.363   4.508  10.907 -0.2418 -3.2765 -0.5478
18141TIP3   OH275837   1.135   3.271   6.356  0.1585 -0.0568  0.2728
18141TIP3    H175838   1.060   3.235   6.309 -0.3661  0.6825  0.5185
18141TIP3    H275839   1.129   3.365   6.341  1.4799 -0.0512 -0.3225
18142TIP3   OH275840   5.086   4.879   1.362  0.2561 -0.5958  0.1300
18142TIP3    H175841   5.021   4.945   1.387 -0.1401 -0.2824 -1.5883
18142TIP3    H275842   5.117   4.908   1.275  1.9223 -1.3180  0.4492
18143TIP3   OH275843   3.906   4.855   5.154  0.3308 -0.3062 -0.1106
18143TIP3    H175844   3.891   4.916   5.081 -0.7225 -0.6041 -0.1627
18143TIP3    H275845   4.001   4.846   5.159  0.8838  3.8167  1.8989
18144TIP3   OH275846   2.709   2.143   2.302  0.5051 -0.5634  0.4356
18144TIP3    H175847   2.740   2.133   2.392 -1.9699  1.7337  1.7083
18144TIP3    H275848   2.613   2.143   2.309  0.2269  0.1890 -2.1231
18145TIP3   OH275849   2.813   1.183  15.682 -0.1237 -0.4057  0.2879
18145TIP3    H175850   2.824   1.091  15.705 -0.1742 -0.9722 -1.7402
18145TIP3    H275851   2.829   1.231  15.764  1.0507 -2.1349  1.1285
18146TIP3   OH275852   4.734   3.329  13.426 -0.3773  0.2904 -0.1845
18146TIP3    H175853   4.751   3.403  13.368 -2.5772  1.6892  0.8080
18146TIP3    H275854   4.804   3.333  13.491 -0.4603  1.5439 -0.1519
18147TIP3   OH275855   2.193   5.292  15.677  1.1865  0.2122  0.7397
18147TIP3    H175856   2.099   5.279  15.693  1.3545 -1.6253  0.3986
18147TIP3    H275857   2.197   5.333  15.591  0.7503 -2.9247 -0.9077
18148TIP3   OH275858   3.943   3.790  16.076 -0.0886 -0.3597 -0.2312
18148TIP3    H175859   3.977   3.739  16.002  0.7431 -0.5317  0.2560
18148TIP3    H275860   3.950   3.881  16.047 -1.0879 -0.4828 -0.8998
18149TIP3   OH275861   6.359   3.675  15.615 -0.1269 -1.3237  0.3623
18149TIP3    H175862   6.334   3.584  15.629  1.1897 -1.9934 -1.2422
18149TIP3    H275863   6.382   3.679  15.522  0.5720  0.4626  0.5797
18150TIP3   OH275864   5.402   6.604  13.187  0.0619 -0.5399  0.2192
18150TIP3    H175865   5.384   6.677  13.246 -0.0891 -0.8281  0.5324
18150TIP3    H275866   5.479   6.631  13.138  1.4586 -1.1472  1.9798
18151TIP3   OH275867   4.819   2.283   4.494  0.0999  0.1404  0.0791
18151TIP3    H175868   4.765   2.204   4.501 -0.2327  0.3543 -0.0320
18151TIP3    H275869   4.830   2.297   4.400  3.9376 -2.3042 -0.0460
18152TIP3   OH275870   2.092   2.268  12.688 -0.1325 -0.1026  0.6388
18152TIP3    H175871   2.054   2.325  12.755  0.8948  0.1889  0.9856
18152TIP3    H275872   2.128   2.328  12.622 -0.5535 -0.3805  0.1455
18153TIP3   OH275873   4.138   2.328   3.467 -0.1003 -0.1337  0.2553
18153TIP3    H175874   4.105   2.353   3.553 -0.6133  0.4134 -0.0994
18153TIP3    H275875   4.171   2.409   3.429 -2.2451  0.1798 -1.1067
18154TIP3   OH275876   3.151   6.441  13.666  0.2144 -0.1441  0.7824
18154TIP3    H175877   3.219   6.506  13.683  0.4542  0.1870 -1.1682
18154TIP3    H275878   3.140   6.442  13.571 -0.4849 -2.2569  0.7807
18155TIP3   OH275879   3.561   6.741  13.077  0.6059 -0.2376 -0.0347
18155TIP3    H175880   3.579   6.828  13.043  1.7569  0.3456  1.9313
18155TIP3    H275881   3.645   6.695  13.069  1.1452  0.1661  2.5709
18156TIP3   OH275882   2.432   2.840  14.731  0.3512  0.3200  0.2231
18156TIP3    H175883   2.497   2.910  14.730 -0.0579  0.7081 -1.1699
18156TIP3    H275884   2.471   2.770  14.679  0.4676 -0.2316  1.0349
18157TIP3   OH275885   3.905   4.229   0.532  0.5147  0.1049 -0.4235
18157TIP3    H175886   3.833   4.224   0.469 -0.1179 -0.9278  0.3523
18157TIP3    H275887   3.862   4.247   0.616  1.1812 -0.2981  0.0118
18158TIP3   OH275888   4.897   5.868   0.373  0.0598  0.1944 -0.9019
18158TIP3    H175889   4.941   5.867   0.457 -0.5293 -1.3842 -0.5747
18158TIP3    H275890   4.929   5.947   0.329  0.1471  1.2011  0.9003
18159TIP3   OH275891   5.883   3.734   3.057 -0.5248  0.2163  0.2713
18159TIP3    H175892   5.900   3.785   3.136  0.0532  1.3684 -0.5823
18159TIP3    H275893   5.969   3.704   3.028 -0.8984 -1.8778  1.1317
18160TIP3   OH275894   4.135   6.205  15.210  0.1953  0.3492 -0.0011
18160TIP3    H175895   4.221   6.207  15.169  0.7901  1.9426  1.2244
18160TIP3    H275896   4.091   6.130  15.170  2.9876 -2.0252  1.0672
18161TIP3   OH275897   6.386   5.023   5.541  0.3232  0.0177 -0.0875
18161TIP3    H175898   6.468   4.978   5.521 -0.7634 -1.5998 -1.1852
18161TIP3    H275899   6.413   5.109   5.573  2.4186 -0.0081 -1.5526
18162TIP3   OH275900   4.089   3.806  15.413  0.0192 -0.4621  0.0710
18162TIP3    H175901   4.067   3.794  15.321  0.6386 -0.3057 -0.0976
18162TIP3    H275902   4.181   3.831  15.414 -0.2397  0.5705  0.6592
18163TIP3   OH275903   3.437   6.544  15.510  0.0426  0.2741  0.4761
18163TIP3    H175904   3.532   6.551  15.513  0.2557 -1.4791 -0.6126
18163TIP3    H275905   3.419   6.455  15.541 -1.0532 -0.2196 -1.4258
18164TIP3   OH275906   4.482   2.260  11.374  0.1208  1.0249  0.3901
18164TIP3    H175907   4.547   2.310  11.323  1.8633 -0.9633  0.5228
18164TIP3    H275908   4.440   2.204  11.309  0.6948  0.1609  0.7501
18165TIP3   OH275909   6.755   5.729   0.356  0.2932  0.0760 -0.1680
18165TIP3    H175910   6.823   5.662   0.354  1.9591  1.6881 -0.2784
18165TIP3    H275911   6.698   5.707   0.283  2.7362  0.6298 -2.4179
18166TIP3   OH275912   0.611   0.116   2.730  0.0748 -0.4268 -0.4140
18166TIP3    H175913   0.679   0.054   2.705  0.9154  0.8751 -1.4429
18166TIP3    H275914   0.654   0.176   2.791 -0.7659 -0.9039  0.6860
18167TIP3   OH275915   2.844   1.989  10.667 -0.3834 -0.3994  0.0856
18167TIP3    H175916   2.751   2.004  10.654 -0.8136 -2.3783  0.5994
18167TIP3    H275917   2.885   2.072  10.643 -2.2510  0.4820 -0.2389
18168TIP3   OH275918   2.751   1.125  16.560  0.0096 -0.5140 -0.1846
18168TIP3    H175919   2.702   1.044  16.573 -0.8962 -0.2311 -1.5282
18168TIP3    H275920   2.694   1.178  16.504  1.0414  0.6196 -0.2035
18169TIP3   OH275921   4.004   3.822  15.141 -0.1341 -0.4045  0.3748
18169TIP3    H175922   3.935   3.761  15.115  1.4375 -2.3866  0.5828
18169TIP3    H275923   4.041   3.854  15.059 -1.5019  0.9813  0.2600
18170TIP3   OH275924   1.257   3.648   6.512  0.3834 -0.0146 -0.3717
18170TIP3    H175925   1.260   3.743   6.500 -0.2767  0.0704  0.1006
18170TIP3    H275926   1.281   3.635   6.604  3.6022 -0.5329 -1.1585
18171TIP3   OH275927   6.604   2.963  13.581 -0.0983  0.2081  0.1314
18171TIP3    H175928   6.532   2.911  13.547 -0.1516  0.5954 -0.3727
18171TIP3    H275929   6.665   2.899  13.619 -0.8558 -0.0933  0.8657
18172TIP3   OH275930   4.780   4.685  16.633  0.0646 -0.0280 -0.0455
18172TIP3    H175931   4.822   4.643  16.708 -0.9784 -0.6490  0.2109
18172TIP3    H275932   4.843   4.676  16.561  1.0418  0.4930  0.7114
18173TIP3   OH275933   0.740   6.699  16.350  0.3116  0.0271  0.0872
18173TIP3    H175934   0.689   6.624  16.317  0.4649  0.0503 -0.2056
18173TIP3    H275935   0.828   6.664  16.364 -0.0834 -0.3531  1.8579
18174TIP3   OH275936   6.067   6.341   0.187  0.1396 -0.1707 -0.1718
18174TIP3    H175937   6.083   6.249   0.207  0.8337 -0.0855 -0.3281
18174TIP3    H275938   6.015   6.339   0.107  1.1407 -0.4060 -0.8321
18175TIP3   OH275939   3.448   1.654  14.354 -0.0436  0.3760 -0.1797
18175TIP3    H175940   3.464   1.721  14.287  0.6043  1.4935  1.0668
18175TIP3    H275941   3.534   1.637  14.393 -0.6418  0.9025  1.4366
18176TIP3   OH275942   4.533   3.863   1.292  0.5632 -0.6986 -0.1720
18176TIP3    H175943   4.505   3.834   1.379 -2.3756  0.6672 -0.5402
18176TIP3    H275944   4.480   3.811   1.231 -2.4489  2.8161 -0.8958
18177TIP3   OH275945   0.243   0.381  16.642  0.4071 -0.5989 -0.1027
18177TIP3    H175946   0.310   0.357  16.707  1.1867 -0.6147 -0.9013
18177TIP3    H275947   0.277   0.349  16.559 -0.6231 -0.6479 -0.5279
18178TIP3   OH275948   4.576   1.665  11.235  0.4175 -0.0306 -0.2672
18178TIP3    H175949   4.560   1.759  11.229 -1.0236 -0.2804 -0.7108
18178TIP3    H275950   4.587   1.649  11.329  3.3967  0.9435 -0.3528
18179TIP3   OH275951   2.071   4.589  14.374 -0.1392  0.2166 -0.1049
18179TIP3    H175952   1.985   4.612  14.409  0.2215  2.3629 -0.4449
18179TIP3    H275953   2.133   4.622  14.439  0.4527 -1.1074  0.0325
18180TIP3   OH275954   2.189   0.584  15.664 -0.1053 -0.2957 -0.8161
18180TIP3    H175955   2.181   0.596  15.759  0.8422  2.1809 -0.9598
18180TIP3    H275956   2.281   0.604  15.646 -0.4688  0.0782 -2.3571
18181TIP3   OH275957   3.989   2.522   6.035  0.3104 -0.2050  0.5560
18181TIP3    H175958   4.074   2.526   6.078 -0.0571  1.4321  1.1891
18181TIP3    H275959   3.926   2.545   6.103 -0.2063  3.7940 -0.9833
18182TIP3   OH275960   4.488   6.487  13.483 -0.1132 -0.1954 -0.3699
18182TIP3    H175961   4.469   6.414  13.423 -0.3100  1.1118 -1.9794
18182TIP3    H275962   4.583   6.486  13.492 -0.2097 -1.4280  0.6744
18183TIP3   OH275963   5.341   6.527   3.382  0.3441 -0.1523  0.3265
18183TIP3    H175964   5.433   6.521   3.405  0.5943  0.5243 -0.4396
18183TIP3    H275965   5.311   6.437   3.374  0.7797 -0.3776  1.1675
18184TIP3   OH275966   1.987   4.452   1.670 -0.0202 -0.0519 -0.1292
18184TIP3    H175967   1.913   4.509   1.693 -1.3722 -1.8560  0.1824
18184TIP3    H275968   1.947   4.371   1.641  1.7114 -2.6379  3.7719
18185TIP3   OH275969   0.528   0.270  14.097 -0.0316  0.2044 -0.3771
18185TIP3    H175970   0.516   0.277  14.002 -0.0586 -2.2172 -0.6076
18185TIP3    H275971   0.477   0.194  14.123  0.1697  0.6666  1.5644
18186TIP3   OH275972   4.280   4.186  15.968 -0.1431 -0.3215 -0.4090
18186TIP3    H175973   4.353   4.216  15.914  0.1758 -0.0200  0.1724
18186TIP3    H275974   4.204   4.235  15.935 -0.2735 -1.2844 -1.5941
18187TIP3   OH275975   5.561   5.029   4.408  0.2547 -0.4535  1.0371
18187TIP3    H175976   5.531   4.970   4.340 -0.8309 -0.5963  1.6125
18187TIP3    H275977   5.546   5.117   4.373  0.0646 -0.5259  0.9386
18188TIP3   OH275978   4.441   6.488   1.497 -0.5714  0.4983 -0.2724
18188TIP3    H175979   4.463   6.568   1.543 -0.0143 -1.0570  2.3824
18188TIP3    H275980   4.375   6.446   1.551 -0.1815 -1.2729 -1.0716
18189TIP3   OH275981   4.820   4.240  10.708  0.3317 -0.4100 -0.0244
18189TIP3    H175982   4.756   4.286  10.762  0.4367  0.2884 -0.4836
18189TIP3    H275983   4.888   4.211  10.770 -0.2811 -0.9128  0.4215
18190TIP3   OH275984   4.317   0.360   1.404 -0.0056 -0.6331  0.1471
18190TIP3    H175985   4.351   0.449   1.413  1.2915 -0.9156 -1.5696
18190TIP3    H275986   4.361   0.310   1.473 -0.2754 -0.1049  0.7198
18191TIP3   OH275987   1.640   5.286  17.060  0.6666 -0.5818  0.1059
18191TIP3    H175988   1.671   5.265  17.148 -0.5137  0.1727  0.7449
18191TIP3    H275989   1.546   5.301  17.071  0.1947 -1.9628 -1.5734
18192TIP3   OH275990   3.264   0.313  10.746 -0.0767 -0.1839  0.1156
18192TIP3    H175991   3.270   0.408  10.755  2.5555 -0.1133 -1.4616
18192TIP3    H275992   3.236   0.299  10.655 -0.9441 -0.9596  0.4798
18193TIP3   OH275993   4.428   2.669  11.295  0.2943 -0.2700  0.0756
18193TIP3    H175994   4.420   2.740  11.359  0.1651 -0.0452 -0.1876
18193TIP3    H275995   4.381   2.701  11.218  0.1092 -0.7014  0.0058
18194TIP3   OH275996   4.397   4.114   1.168 -0.1580 -0.7567  0.0657
18194TIP3    H175997   4.412   4.166   1.247 -1.5161 -1.0250  0.5327
18194TIP3    H275998   4.466   4.048   1.169 -0.4171 -1.0277  1.2863
18195TIP3   OH275999   1.131   2.095   4.988  0.2239  0.7799 -0.0800
18195TIP3    H176000   1.068   2.059   5.050  1.6032  0.0207  0.9252
18195TIP3    H276001   1.136   2.188   5.009  0.3415  0.6116  0.6538
18196TIP3   OH276002   5.850   4.007   5.549  0.6462  0.3233 -0.3809
18196TIP3    H176003   5.774   4.065   5.556  0.3118 -0.1200 -0.2745
18196TIP3    H276004   5.846   3.952   5.627  0.9704  0.1722 -0.4676
18197TIP3   OH276005   3.390   1.400  16.506 -0.2840  0.1008  0.4359
18197TIP3    H176006   3.460   1.335  16.517  1.3136  2.0143  2.5864
18197TIP3    H276007   3.430   1.469  16.452 -1.7128 -0.2784 -1.2108
18198TIP3   OH276008   4.748   2.598  10.861 -0.0385 -0.0765 -0.0297
18198TIP3    H176009   4.657   2.568  10.865 -0.3888  0.7786 -1.1752
18198TIP3    H276010   4.786   2.547  10.789  0.3100 -0.2078  0.2457
18199TIP3   OH276011   0.368   1.116   2.460 -0.0139  0.1613  0.2740
18199TIP3    H176012   0.371   1.021   2.450  3.2048  0.3102 -1.4945
18199TIP3    H276013   0.338   1.148   2.375 -0.7959  0.7688  0.7692
18200TIP3   OH276014   0.408   2.566   2.124 -0.6663  0.5997  0.1093
18200TIP3    H176015   0.313   2.577   2.131 -0.6066  1.8070 -0.6535
18200TIP3    H276016   0.429   2.599   2.037  0.3798 -0.2744  0.0163
18201TIP3   OH276017   5.500   2.363  12.367  0.4678  0.3916  0.0169
18201TIP3    H176018   5.478   2.445  12.410  2.6955  0.7095  0.6586
18201TIP3    H276019   5.519   2.387  12.277  1.3843  0.6421  0.2697
18202TIP3   OH276020   1.039   3.749  13.920  0.1139  0.4142 -0.5856
18202TIP3    H176021   1.079   3.819  13.972  0.7438  1.3282 -2.2124
18202TIP3    H276022   0.955   3.785  13.893 -0.7504 -0.5208  0.7189
18203TIP3   OH276023   3.775   5.439   1.807  0.7526 -0.3632  0.2572
18203TIP3    H176024   3.798   5.359   1.760  0.5474  0.0344 -0.5255
18203TIP3    H276025   3.762   5.505   1.739 -0.6635 -0.0569  0.7778
18204TIP3   OH276026   5.396   0.399   2.716  0.0044  0.0738  0.4898
18204TIP3    H176027   5.476   0.449   2.699  0.4573 -0.9152 -0.3590
18204TIP3    H276028   5.426   0.318   2.757 -0.6677  0.1883  1.2334
18205TIP3   OH276029   4.883   4.413  13.492 -0.4280  0.5516 -0.2174
18205TIP3    H176030   4.957   4.415  13.431 -1.5080  1.0100 -1.5757
18205TIP3    H276031   4.836   4.494  13.475 -1.8064 -0.2041 -0.1198
18206TIP3   OH276032   4.691   6.044   0.105 -0.5450 -0.1725 -0.1709
18206TIP3    H176033   4.708   6.132   0.139  1.2678 -0.4685 -0.2025
18206TIP3    H276034   4.708   6.051   0.012 -0.1620 -0.6139 -0.1344
18207TIP3   OH276035   2.655   2.131  14.822 -0.1815  0.1122  0.2088
18207TIP3    H176036   2.722   2.199  14.830 -0.0719  0.1728 -0.9808
18207TIP3    H276037   2.576   2.169  14.859 -0.4847  1.4398 -1.6464
18208TIP3   OH276038   5.653   5.114   3.298  0.0661 -0.1384  0.5840
18208TIP3    H176039   5.631   5.064   3.220  1.0115 -0.1881  0.3423
18208TIP3    H276040   5.593   5.081   3.365  0.7309 -1.6594  0.4585
18209TIP3   OH276041   0.392   1.244   0.687 -0.1135 -0.4681 -0.0993
18209TIP3    H176042   0.352   1.166   0.649 -1.6774 -0.4097  1.2703
18209TIP3    H276043   0.400   1.224   0.780 -1.6666  1.3859  0.5122
18210TIP3   OH276044   0.981   2.480  16.458 -0.7083  0.1902  0.1469
18210TIP3    H176045   1.070   2.506  16.433 -0.0907  0.0076  2.0392
18210TIP3    H276046   0.980   2.385  16.447 -0.6531  0.1856  0.1821
18211TIP3   OH276047   3.552   3.732   0.552  0.5495 -0.1763  0.6384
18211TIP3    H176048   3.500   3.694   0.480 -0.1950  1.1471  0.4373
18211TIP3    H276049   3.525   3.682   0.629 -2.2839  1.4067  0.8391
18212TIP3   OH276050   5.455   6.158  12.756 -0.3259 -0.4435  0.3505
18212TIP3    H176051   5.416   6.126  12.675  1.8870  1.7686 -1.7889
18212TIP3    H276052   5.398   6.229  12.784 -0.3733 -0.3116 -0.0755
18213TIP3   OH276053   1.378   0.173  17.056  0.3440  0.0136  0.2237
18213TIP3    H176054   1.450   0.133  17.105  1.0214  0.2149 -0.5679
18213TIP3    H276055   1.369   0.119  16.978 -0.4878 -0.1078  0.4008
18214TIP3   OH276056   4.262   4.343   4.918  0.0564  0.0115 -0.5737
18214TIP3    H176057   4.330   4.293   4.962 -0.4852 -0.5880 -0.3952
18214TIP3    H276058   4.292   4.434   4.922 -0.5420  0.1936  2.2184
18215TIP3   OH276059   1.955   2.683   1.573 -0.2296 -0.2684  0.1515
18215TIP3    H176060   1.994   2.632   1.644  3.5612 -0.0274 -1.5241
18215TIP3    H276061   1.978   2.636   1.493 -1.0433  1.4359 -1.1685
18216TIP3   OH276062   2.138   1.947   1.747  0.0447  0.9834 -0.1576
18216TIP3    H176063   2.214   1.955   1.805 -0.1367  1.5446 -0.0016
18216TIP3    H276064   2.159   1.871   1.692  0.4848  0.8167  0.2358
18217TIP3   OH276065   1.622   0.078   6.468 -0.0571  0.1154 -0.1086
18217TIP3    H176066   1.622  -0.017   6.459  1.8934  0.2632 -3.0356
18217TIP3    H276067   1.690   0.097   6.532 -0.5625 -0.4292  0.6034
18218TIP3   OH276068   3.830   0.827  13.681 -0.2176  0.0620  0.4256
18218TIP3    H176069   3.880   0.832  13.763  1.9257  0.7230 -0.8482
18218TIP3    H276070   3.821   0.733  13.665  2.4232 -0.1295 -0.2919
18219TIP3   OH276071   5.341   6.070   5.824  0.6233  0.0777 -0.2803
18219TIP3    H176072   5.340   6.164   5.809 -1.0602  0.0131 -0.7270
18219TIP3    H276073   5.422   6.040   5.783  2.1692  1.5395  1.5198
18220TIP3   OH276074   6.493   2.904   4.875  0.0692  0.1712 -0.0500
18220TIP3    H176075   6.401   2.881   4.862 -0.0908  1.7306 -2.3516
18220TIP3    H276076   6.491   2.995   4.903  0.8908 -0.2245  1.3575
18221TIP3   OH276077   5.455   4.302   3.638 -0.6425 -0.3660 -0.3052
18221TIP3    H176078   5.409   4.324   3.558  3.2655  0.0561 -2.7210
18221TIP3    H276079   5.462   4.385   3.685  0.5554  0.3539 -1.6595
18222TIP3   OH276080   4.032   6.539  11.355  0.1013  0.1555  0.3361
18222TIP3    H176081   3.983   6.606  11.404  3.0182  3.3799 -0.7750
18222TIP3    H276082   4.110   6.523  11.408  0.3166 -1.0923 -0.3100
18223TIP3   OH276083   6.144   0.424   1.753 -0.4127 -0.4876 -0.5700
18223TIP3    H176084   6.079   0.383   1.811 -0.3039 -0.6146 -0.5383
18223TIP3    H276085   6.228   0.386   1.780 -0.4831 -1.4008 -1.5471
18224TIP3   OH276086   0.137   6.593   5.979  0.1275  0.6915 -0.3611
18224TIP3    H176087   0.210   6.608   6.039 -0.4734 -0.3822  0.6701
18224TIP3    H276088   0.174   6.542   5.907  0.6827  1.3357 -0.5418
18225TIP3   OH276089   1.619   4.845  16.072  0.0786 -0.1764 -0.3960
18225TIP3    H176090   1.633   4.818  16.163 -1.2329  0.1204 -0.0890
18225TIP3    H276091   1.665   4.778  16.021 -0.8554 -1.5161  0.4333
18226TIP3   OH276092   4.773   3.269   4.481  0.6538 -0.2163  0.2298
18226TIP3    H176093   4.740   3.201   4.423  0.1310  1.1762 -1.1685
18226TIP3    H276094   4.866   3.249   4.491  0.6230 -0.8301 -0.5925
18227TIP3   OH276095   4.097   3.687  15.877  0.8607 -0.1909 -0.2746
18227TIP3    H176096   4.078   3.694  15.783 -2.0535  0.0223  0.2491
18227TIP3    H276097   4.125   3.596  15.890  0.9884 -0.3044 -1.2799
18228TIP3   OH276098   0.395   4.803  12.474  0.2157  0.8064  0.3058
18228TIP3    H176099   0.365   4.876  12.528 -3.6711  1.3143 -2.1262
18228TIP3    H276100   0.360   4.725  12.518 -0.6199  0.9821 -0.0224
18229TIP3   OH276101   5.345   1.019  14.409  0.0495 -0.0297 -0.2935
18229TIP3    H176102   5.313   0.931  14.427  0.5948 -0.0782  0.4795
18229TIP3    H276103   5.373   1.017  14.317  0.4060 -0.7695 -0.1737
18230TIP3   OH276104   3.334   2.707  12.631 -1.0546 -0.1326  0.4303
18230TIP3    H176105   3.356   2.622  12.669 -1.0119  0.1483  1.0402
18230TIP3    H276106   3.354   2.770  12.699 -2.4684  0.2541  0.5259
18231TIP3   OH276107   5.294   2.139   2.870 -0.0358 -0.6601 -0.0545
18231TIP3    H176108   5.276   2.208   2.934  1.9329 -0.1417 -0.0033
18231TIP3    H276109   5.275   2.178   2.785 -0.2156 -0.5158  0.0513
18232TIP3   OH276110   6.626   0.200  10.694  0.0033  0.0455 -0.3752
18232TIP3    H176111   6.665   0.145  10.762 -1.9892 -1.1431 -0.1031
18232TIP3    H276112   6.676   0.179  10.615 -0.6527 -2.1919 -0.2666
18233TIP3   OH276113   0.103   6.024  14.655  0.2533 -0.1608  0.3190
18233TIP3    H176114   0.184   5.975  14.671  0.4869 -0.4123 -1.3707
18233TIP3    H276115   0.123   6.113  14.684  1.9445  0.2983 -1.9725
18234TIP3   OH276116   6.080   4.800   1.652  0.4808 -0.4212  0.4130
18234TIP3    H176117   6.106   4.775   1.564  0.8896 -0.7317  0.6148
18234TIP3    H276118   6.019   4.872   1.640  0.3285 -0.6394 -0.1320
18235TIP3   OH276119   6.367   6.291  15.729 -0.2221 -0.4006 -0.3722
18235TIP3    H176120   6.286   6.293  15.677  0.3197  0.3186 -1.2274
18235TIP3    H276121   6.403   6.204  15.714 -0.9703 -0.8258  0.2352
18236TIP3   OH276122   4.657   3.629  12.289 -0.1269 -0.2458 -0.2181
18236TIP3    H176123   4.705   3.562  12.337 -0.8514 -0.5796  0.0393
18236TIP3    H276124   4.660   3.600  12.198 -0.1885 -0.4761 -0.1465
18237TIP3   OH276125   5.021   5.521  12.418 -0.2053  0.0634 -0.0175
18237TIP3    H176126   5.000   5.484  12.504 -1.0166 -0.4254 -0.4157
18237TIP3    H276127   5.114   5.541  12.423 -0.1416 -0.3946  0.8210
18238TIP3   OH276128   2.472   1.709  17.100  0.2033 -0.1310 -0.0736
18238TIP3    H176129   2.483   1.634  17.042  1.5214  0.0912 -0.1432
18238TIP3    H276130   2.407   1.764  17.056  2.2402  0.7646 -2.1824
18239TIP3   OH276131   5.912   2.314   1.039  0.4613 -0.4905 -0.1400
18239TIP3    H176132   5.946   2.246   1.096 -0.9455  1.0521  2.7265
18239TIP3    H276133   5.981   2.380   1.037  0.7213 -0.7691 -0.7079
18240TIP3   OH276134   6.259   1.782   3.437  0.6546  0.4474  0.0504
18240TIP3    H176135   6.289   1.870   3.413  1.1714  0.8618  2.0802
18240TIP3    H276136   6.197   1.797   3.509 -1.7224 -0.6539 -1.6333
18241TIP3   OH276137   3.693   0.460  11.771  0.6847  0.1855 -0.2260
18241TIP3    H176138   3.606   0.423  11.757  0.0689  1.4249  0.1137
18241TIP3    H276139   3.747   0.426  11.700 -0.2184 -0.1838 -0.7378
18242TIP3   OH276140   3.279   2.394  14.686 -0.4940 -0.4329 -0.7756
18242TIP3    H176141   3.281   2.486  14.659 -2.6098 -0.0412  0.2606
18242TIP3    H276142   3.339   2.351  14.624 -0.8722  1.3186 -2.4848
18243TIP3   OH276143   1.903   0.852  10.737  0.1881  0.0469  0.0251
18243TIP3    H176144   1.877   0.943  10.725  0.6250  0.0759 -0.7839
18243TIP3    H276145   1.973   0.838  10.673  0.0375 -0.8883  0.0435
18244TIP3   OH276146   5.588   4.397  15.835 -0.1387 -0.3186  0.1028
18244TIP3    H176147   5.494   4.377  15.831  0.2025 -1.8580 -1.6364
18244TIP3    H276148   5.607   4.441  15.752  0.2989  2.1775  1.4198
18245TIP3   OH276149   2.820   3.970   3.682 -0.1812 -0.0910  0.1270
18245TIP3    H176150   2.916   3.970   3.673 -0.1543  1.8074  0.0341
18245TIP3    H276151   2.805   3.962   3.776  0.0346 -0.9001  0.1045
18246TIP3   OH276152   2.485   2.787  16.127 -0.0460 -0.6886 -0.3457
18246TIP3    H176153   2.415   2.722  16.126 -1.0324  0.3495 -0.8131
18246TIP3    H276154   2.452   2.859  16.180  1.3106 -0.8292  0.7555
18247TIP3   OH276155   3.696   0.603  12.621  1.0419  0.5666  0.0147
18247TIP3    H176156   3.632   0.533  12.636  1.8058  0.1851  1.6686
18247TIP3    H276157   3.662   0.678  12.670  0.5246  1.2099 -1.2819
18248TIP3   OH276158   1.495   2.513  15.080 -0.6376 -0.6467  0.0331
18248TIP3    H176159   1.564   2.500  15.015 -0.2177  0.3376  0.2666
18248TIP3    H276160   1.414   2.486  15.035 -0.2853 -0.4788 -0.7077
18249TIP3   OH276161   1.427   6.041  14.684 -0.6046  0.5649 -0.1452
18249TIP3    H176162   1.414   5.963  14.630 -1.1407  1.0105 -0.6724
18249TIP3    H276163   1.390   6.018  14.769  1.2099 -0.5328  0.4098
18250TIP3   OH276164   0.402   2.884  13.786 -0.4540 -0.0549 -0.2450
18250TIP3    H176165   0.365   2.971  13.769 -2.6525 -0.9931 -0.5188
18250TIP3    H276166   0.490   2.888  13.750 -0.6666  1.9162 -0.6526
18251TIP3   OH276167   4.773   5.218  12.685 -0.2188 -0.0151 -0.1147
18251TIP3    H176168   4.771   5.297  12.739 -0.6604 -0.3982  0.4447
18251TIP3    H276169   4.718   5.156  12.732 -0.8532 -0.2710 -1.1567
18252TIP3   OH276170   3.365   4.523  13.606  0.3554 -0.4092 -0.7188
18252TIP3    H176171   3.395   4.610  13.633 -0.0894 -0.2788 -0.6400
18252TIP3    H276172   3.403   4.464  13.671  2.0757 -0.4874 -1.7234
18253TIP3   OH276173   0.695   2.258  11.687  0.1948 -0.4249  0.5039
18253TIP3    H176174   0.697   2.294  11.776  1.1406  0.0143  0.3228
18253TIP3    H276175   0.726   2.168  11.696 -0.3279 -0.5900  0.6990
18254TIP3   OH276176   4.049   3.107  13.327 -0.0968  0.1405 -0.5461
18254TIP3    H176177   4.029   3.024  13.371  0.5548  1.1479  1.7660
18254TIP3    H276178   3.970   3.159  13.336  0.1109  0.4296 -0.3802
18255TIP3   OH276179   1.947   3.303  11.616  0.3829 -0.2549 -0.7350
18255TIP3    H176180   2.035   3.328  11.589 -0.3028  1.1233 -1.8200
18255TIP3    H276181   1.950   3.207  11.624  2.5045 -0.1100  1.3027
18256TIP3   OH276182   2.520   4.092  14.875  0.0392 -0.1465  0.2379
18256TIP3    H176183   2.504   3.999  14.859  1.4871 -0.3856  0.0287
18256TIP3    H276184   2.522   4.132  14.788  2.0490 -0.4177  0.1038
18257TIP3   OH276185   5.318   2.502   1.298  0.2795  0.1683 -0.0079
18257TIP3    H176186   5.361   2.430   1.344  0.7094  0.6133  0.3031
18257TIP3    H276187   5.386   2.569   1.291 -0.4367  1.0012  0.7452
18258TIP3   OH276188   0.213   0.749  11.605 -0.5597  0.7600  0.4599
18258TIP3    H176189   0.239   0.699  11.682 -1.3145 -0.1742  0.1253
18258TIP3    H276190   0.121   0.771  11.620 -1.4159 -1.3958 -1.1533
18259TIP3   OH276191   5.003   0.269   1.951 -0.5843  0.0819 -0.1439
18259TIP3    H176192   4.929   0.327   1.967 -0.7307 -0.4663  1.3779
18259TIP3    H276193   5.019   0.227   2.036  2.5815  1.4675  0.0909
18260TIP3   OH276194   1.946   6.588  12.842  0.2362 -0.1778 -0.6005
18260TIP3    H176195   1.940   6.651  12.770  0.7626  2.5761  1.5623
18260TIP3    H276196   1.857   6.556  12.853 -0.4926  1.6623 -0.6568
18261TIP3   OH276197   5.704   0.857  13.728  0.3426  0.1346  0.3892
18261TIP3    H176198   5.705   0.917  13.803 -3.3141  0.3704  0.4458
18261TIP3    H276199   5.685   0.772  13.767  0.5000 -0.1358 -0.1199
18262TIP3   OH276200   1.683   4.456   4.278  0.6005  0.1112  0.2641
18262TIP3    H176201   1.606   4.447   4.221  0.3642 -3.1555  0.9075
18262TIP3    H276202   1.752   4.407   4.233  2.0999  2.1393  0.2053
18263TIP3   OH276203   4.836   3.679   0.053 -0.0567  0.1300  0.1090
18263TIP3    H176204   4.887   3.608   0.013  0.7544  1.1889 -0.7912
18263TIP3    H276205   4.822   3.741  -0.018  0.4270  1.5324  1.2087
18264TIP3   OH276206   0.871   1.322  12.833 -0.5086  0.6733  0.4333
18264TIP3    H176207   0.808   1.265  12.790 -0.9942  2.1873 -0.9565
18264TIP3    H276208   0.822   1.402  12.851  0.3576  0.9608  1.6498
18265TIP3   OH276209   6.276   6.209  14.063  0.7549 -0.6603 -0.0264
18265TIP3    H176210   6.223   6.278  14.023  0.4951  0.2660  1.7973
18265TIP3    H276211   6.212   6.146  14.097  0.9842 -1.7335 -1.4466
18266TIP3   OH276212   5.584   2.233  16.587 -0.7263 -0.1508  1.1395
18266TIP3    H176213   5.562   2.260  16.676 -0.5269  0.9186  0.8744
18266TIP3    H276214   5.501   2.239  16.539 -0.8454 -0.7806  1.2608
18267TIP3   OH276215   4.031   2.513  11.994 -0.1202 -0.0370  0.7126
18267TIP3    H176216   4.024   2.440  11.933 -0.8635  1.5489 -1.2098
18267TIP3    H276217   4.125   2.527  12.005  0.0304 -0.1974 -0.3019
18268TIP3   OH276218   3.346   0.629  11.351  0.0890  0.9718 -0.3093
18268TIP3    H176219   3.418   0.636  11.414  1.0243  0.7372 -1.3191
18268TIP3    H276220   3.358   0.543  11.309 -0.6743  1.0041 -0.6225
18269TIP3   OH276221   5.647   4.715  14.476  0.4910 -0.0593  0.2508
18269TIP3    H176222   5.578   4.693  14.413  0.8584  0.4571 -0.3428
18269TIP3    H276223   5.659   4.635  14.527 -0.3341 -0.2468  0.1548
18270TIP3   OH276224   0.512   6.421   1.692  0.3379 -0.1727  0.0292
18270TIP3    H176225   0.526   6.398   1.601 -0.5052 -3.8004  0.6607
18270TIP3    H276226   0.420   6.445   1.698 -0.0796 -1.6530  0.1198
18271TIP3   OH276227   0.111   0.126   2.909  0.5321  0.0193  0.5124
18271TIP3    H176228   0.129   0.193   2.975 -0.4390  0.8773 -0.0528
18271TIP3    H276229   0.016   0.131   2.896  0.5668 -0.8708 -0.1881
18272TIP3   OH276230   1.552   5.872  13.592 -0.3182  0.1908 -1.1206
18272TIP3    H176231   1.623   5.932  13.571  0.2803  0.1000  0.4944
18272TIP3    H276232   1.528   5.893  13.682  0.2720 -2.2889 -0.2948
18273TIP3   OH276233   2.810   3.636   1.219 -0.2214 -0.3114 -0.2369
18273TIP3    H176234   2.837   3.573   1.286  0.8698 -0.2260 -0.5816
18273TIP3    H276235   2.848   3.719   1.247 -4.2754  1.0941  1.9902
18274TIP3   OH276236   5.734   1.067  13.904  0.5071  0.5497 -0.5613
18274TIP3    H176237   5.789   1.096  13.976 -0.4796 -1.1234  0.9409
18274TIP3    H276238   5.668   1.136  13.894  0.6833  0.8146  0.0877
18275TIP3   OH276239   0.323   4.953   2.679  0.8953 -0.7120 -0.1301
18275TIP3    H176240   0.294   5.034   2.720 -2.9542 -2.2605  0.6303
18275TIP3    H276241   0.366   4.904   2.749 -1.6953 -1.4891  1.0401
18276TIP3   OH276242   5.839   0.100  14.276  0.2828 -0.3399  0.5524
18276TIP3    H176243   5.892   0.052  14.339  0.7835  0.7550  0.9969
18276TIP3    H276244   5.749   0.072  14.294  0.5126 -0.7089  1.1488
18277TIP3   OH276245   3.893   1.703   1.190  0.0199 -0.0390  0.6851
18277TIP3    H176246   3.985   1.697   1.164 -0.8121 -0.4020 -2.7659
18277TIP3    H276247   3.867   1.791   1.165 -0.6852 -0.0870  1.2182
18278TIP3   OH276248   4.351   2.908  12.700 -0.2797 -0.1211  0.5496
18278TIP3    H176249   4.397   2.926  12.618  0.3116 -1.5402  0.5492
18278TIP3    H276250   4.389   2.826  12.731 -1.0751 -0.0208  1.8308
18279TIP3   OH276251   6.768   2.751   5.272  0.3568 -0.3364  0.6831
18279TIP3    H176252   6.679   2.765   5.240  0.1897 -1.5346  0.5556
18279TIP3    H276253   6.817   2.723   5.194  0.8504  0.2840  0.7577
18280TIP3   OH276254   1.217   0.292  10.286 -0.0405 -0.3618  0.0136
18280TIP3    H176255   1.242   0.377  10.323  1.5444  0.1710 -2.0969
18280TIP3    H276256   1.297   0.240  10.291 -0.6291 -1.2800  0.0393
18281TIP3   OH276257   3.485   1.036   0.450  0.2710  0.1151 -0.0489
18281TIP3    H176258   3.443   1.013   0.368  0.5928  0.2159 -0.2414
18281TIP3    H276259   3.567   0.986   0.451 -0.5309 -1.2828  1.0187
18282TIP3   OH276260   2.044   3.466  14.759 -0.4563 -0.6490 -0.3818
18282TIP3    H176261   2.021   3.476  14.852 -2.5851 -2.1845 -0.6722
18282TIP3    H276262   2.061   3.555  14.729  1.8160 -0.2241  1.7872
18283TIP3   OH276263   0.830   2.911  11.406 -0.2195 -0.4029  0.0255
18283TIP3    H176264   0.906   2.943  11.456 -0.6430  0.9116 -0.1511
18283TIP3    H276265   0.854   2.821  11.382  1.4736  0.1160 -0.3802
18284TIP3   OH276266   4.329   0.044  15.871  0.0313 -0.4204 -0.0700
18284TIP3    H176267   4.381   0.063  15.792  1.3420  1.0341  1.0613
18284TIP3    H276268   4.352   0.115  15.932 -0.2113 -1.9987  1.9715
18285TIP3   OH276269   2.428   2.606  13.820 -0.2502 -0.1723 -0.1444
18285TIP3    H176270   2.387   2.692  13.832 -0.6022 -0.5475  1.6093
18285TIP3    H276271   2.388   2.572  13.740 -0.1483  1.2572 -0.8403
18286TIP3   OH276272   5.772   0.557   0.012  0.7069 -0.5352 -0.1500
18286TIP3    H176273   5.753   0.487   0.075 -1.8752  1.4423  1.4397
18286TIP3    H276274   5.687   0.580  -0.026  1.5001  1.5674 -0.8065
18287TIP3   OH276275   0.653   6.266  13.540 -0.0343  0.2220  0.0830
18287TIP3    H176276   0.593   6.191  13.548 -0.3198  0.0022 -2.8123
18287TIP3    H276277   0.740   6.229  13.555 -0.2778 -0.4585 -0.1332
18288TIP3   OH276278   0.115   6.219   1.203  0.1322  0.1485  0.9007
18288TIP3    H176279   0.160   6.166   1.269 -0.2764  2.6726  3.4277
18288TIP3    H276280   0.022   6.211   1.225 -0.1735 -0.2599 -0.4584
18289TIP3   OH276281   1.436   1.116   5.875 -0.5473 -0.2706  0.1633
18289TIP3    H176282   1.386   1.131   5.956 -1.1978  0.5114 -0.3619
18289TIP3    H276283   1.493   1.192   5.868 -0.2142 -0.5269  0.0809
18290TIP3   OH276284   0.055   3.129  11.168  0.1457 -0.4747  0.2125
18290TIP3    H176285   0.057   3.057  11.105 -1.2136 -0.6843  0.3812
18290TIP3    H276286   0.127   3.186  11.141  0.2401 -1.0856 -0.8890
18291TIP3   OH276287   0.452   4.152  10.651  0.1485 -0.2902  0.0784
18291TIP3    H176288   0.547   4.151  10.651  0.2604 -0.4456 -3.4274
18291TIP3    H276289   0.428   4.171  10.560 -3.1735 -1.5011  0.5629
18292TIP3   OH276290   5.317   6.290  11.496  0.1649  0.4567 -0.4484
18292TIP3    H176291   5.367   6.216  11.531 -0.6627 -0.4228 -1.0818
18292TIP3    H276292   5.256   6.311  11.566  0.7544  0.8967 -0.0580
18293TIP3   OH276293   5.946   4.153   1.514 -0.2799 -0.0296 -0.3865
18293TIP3    H176294   5.889   4.120   1.445 -0.6628  1.3966 -0.7788
18293TIP3    H276295   6.035   4.144   1.479 -0.3697 -0.7059 -0.4466
18294TIP3   OH276296   1.463   6.071  12.801 -0.3372  0.3997 -0.2712
18294TIP3    H176297   1.526   6.021  12.750  0.3186  2.4996 -1.6710
18294TIP3    H276298   1.466   6.159  12.763 -1.3023  1.5671  2.1288
18295TIP3   OH276299   1.457   4.506  12.429 -0.3131  0.6156  0.0847
18295TIP3    H176300   1.374   4.497  12.382  0.0343  1.0731 -0.6398
18295TIP3    H276301   1.431   4.521  12.520 -0.9968 -0.2193  0.0413
18296TIP3   OH276302   6.243   6.743   4.562 -0.5180  0.2976 -0.4386
18296TIP3    H176303   6.199   6.779   4.486 -1.7937 -1.1546 -0.4427
18296TIP3    H276304   6.249   6.815   4.624 -2.6021  0.6561 -0.5934
18297TIP3   OH276305   2.829   0.346   2.511 -0.3475 -0.3059  0.1147
18297TIP3    H176306   2.767   0.317   2.577 -0.8169  2.3648  0.9636
18297TIP3    H276307   2.893   0.398   2.559  1.3228 -1.1907 -1.0676
18298TIP3   OH276308   3.901   2.786  11.948 -0.1647 -0.4870 -0.2224
18298TIP3    H176309   3.970   2.740  11.996  0.0404 -0.2628 -0.2984
18298TIP3    H276310   3.823   2.732  11.960  0.0151 -0.7226 -0.1015
18299TIP3   OH276311   5.664   0.771   2.852  0.7740  0.0041 -0.1297
18299TIP3    H176312   5.729   0.837   2.879 -0.0132  0.6466  0.2333
18299TIP3    H276313   5.580   0.816   2.858 -0.0324 -1.5985  2.1817
18300TIP3   OH276314   1.360   2.891  13.581 -0.1406  0.3015 -0.0088
18300TIP3    H176315   1.267   2.872  13.590 -0.3217  1.4228  0.7467
18300TIP3    H276316   1.365   2.961  13.517  0.2205  0.0052 -0.3113
18301TIP3   OH276317   6.152   3.904   1.212  0.3269  0.3912  0.4971
18301TIP3    H176318   6.162   3.868   1.124  0.1514 -2.5898  1.6148
18301TIP3    H276319   6.060   3.890   1.234  0.3913  1.0039  1.2368
18302TIP3   OH276320   3.095   5.261   0.416  0.3510 -0.3243 -0.9501
18302TIP3    H176321   3.034   5.247   0.490 -0.9741  0.5609 -1.8251
18302TIP3    H276322   3.157   5.189   0.423 -0.8396 -1.3233 -0.0429
18303TIP3   OH276323   5.224   0.333  14.770  0.3607  0.5443  0.5089
18303TIP3    H176324   5.191   0.414  14.809  0.5780 -0.0062  1.9169
18303TIP3    H276325   5.147   0.278  14.760  0.3916  0.4387  0.8216
18304TIP3   OH276326   6.139   5.004  11.395 -0.0072  0.2953 -0.5321
18304TIP3    H176327   6.073   4.945  11.359  0.4894  0.6529 -2.1154
18304TIP3    H276328   6.099   5.091  11.389  0.5142  0.4907 -1.3280
18305TIP3   OH276329   1.669   1.917  14.065  0.0212  0.4073  0.9732
18305TIP3    H176330   1.673   1.848  13.999 -0.0216  1.8169 -0.5912
18305TIP3    H276331   1.732   1.983  14.035 -0.0394  1.1080  2.3177
18306TIP3   OH276332   1.845   3.192  13.543  0.6687  0.1992  0.5393
18306TIP3    H176333   1.909   3.121  13.535  0.7109  0.4448 -2.2314
18306TIP3    H276334   1.761   3.147  13.554  0.7435 -0.3346 -0.8300
18307TIP3   OH276335   1.019   2.258   2.658  0.2456  0.0958  0.0171
18307TIP3    H176336   1.069   2.314   2.599  0.4629  0.0669  0.1712
18307TIP3    H276337   0.933   2.250   2.617  0.8074 -1.0232 -0.9903
18308TIP3   OH276338   3.822   1.637   6.116 -0.7561 -0.0778  0.4593
18308TIP3    H176339   3.829   1.570   6.184 -0.8965 -1.0184 -0.4266
18308TIP3    H276340   3.868   1.712   6.152  0.4864 -1.0553  0.9986
18309TIP3   OH276341   0.893   3.979  14.678 -0.2564 -0.0114 -0.2013
18309TIP3    H176342   0.886   3.975  14.774 -0.6088  1.5913 -0.1368
18309TIP3    H276343   0.862   3.893  14.649  0.2808 -0.6916  1.1348
18310TIP3   OH276344   0.296   1.297   4.286  0.6335  0.0847  0.2441
18310TIP3    H176345   0.376   1.252   4.312  0.1572 -0.5964  0.5672
18310TIP3    H276346   0.255   1.322   4.369 -0.0638 -0.6142  0.1205
18311TIP3   OH276347   5.489   0.333  14.842 -0.2047 -0.3747  0.2837
18311TIP3    H176348   5.534   0.364  14.764 -0.9768  1.7880  0.6260
18311TIP3    H276349   5.398   0.322  14.814 -0.4191  0.0913  0.7658
18312TIP3   OH276350   1.380   2.676  11.996 -0.2112 -0.4871 -0.1172
18312TIP3    H176351   1.317   2.683  11.924 -0.8255 -0.7361  0.3915
18312TIP3    H276352   1.394   2.766  12.024  1.5396 -0.1507 -1.8039
18313TIP3   OH276353   5.500   5.487  11.961  0.2270 -0.8392  0.6010
18313TIP3    H176354   5.520   5.538  12.039  2.7302 -1.2221  0.2902
18313TIP3    H276355   5.474   5.552  11.895 -0.7704 -0.4177  1.3875
18314TIP3   OH276356   1.149   1.098   1.848  0.0911  0.2666 -0.0111
18314TIP3    H176357   1.128   1.011   1.812 -1.9469  0.6952  0.0380
18314TIP3    H276358   1.232   1.121   1.808 -0.2569 -0.9112 -1.4897
18315TIP3   OH276359   6.013   4.219   3.470 -0.0899  0.0392  0.0692
18315TIP3    H176360   6.054   4.305   3.465 -1.1757  0.5483 -0.4648
18315TIP3    H276361   6.063   4.165   3.409  1.7798 -0.2631  1.7668
18316TIP3   OH276362   1.511   6.788  14.500  0.1384 -0.6451  0.4292
18316TIP3    H176363   1.586   6.832  14.458 -0.6741  1.1244  0.7283
18316TIP3    H276364   1.550   6.737  14.571  1.1425 -0.5015  0.0095
18317TIP3   OH276365   5.125   5.951  15.124  0.2599 -0.4236 -0.4787
18317TIP3    H176366   5.202   5.895  15.137 -0.9592 -1.9545  0.5899
18317TIP3    H276367   5.137   6.022  15.187  1.0266 -0.3792 -0.6598
18318TIP3   OH276368   4.355   2.242   3.231  0.4839  0.1240 -0.1668
18318TIP3    H176369   4.387   2.270   3.317  0.5147  0.3634 -0.2563
18318TIP3    H276370   4.421   2.274   3.170  0.0104  0.7296 -0.3687
18319TIP3   OH276371   4.268   0.689   5.230 -0.4370  0.0939  0.3354
18319TIP3    H176372   4.244   0.742   5.307  0.5729  1.8161 -0.4696
18319TIP3    H276373   4.359   0.664   5.245 -1.3813 -3.0257  1.5203
18320TIP3   OH276374   3.486   3.669   6.492 -0.6085 -0.2818 -0.4191
18320TIP3    H176375   3.551   3.598   6.490 -0.7076 -0.3661 -0.9458
18320TIP3    H276376   3.527   3.740   6.443 -0.7358 -0.1745 -0.3687
18321TIP3   OH276377   4.354   4.599  14.849 -0.3403 -0.3507 -0.4706
18321TIP3    H176378   4.287   4.555  14.900 -1.5077  1.6120 -0.2136
18321TIP3    H276379   4.432   4.596  14.904 -0.7239 -1.0084  0.0478
18322TIP3   OH276380   1.871   6.039   3.464 -0.3375 -0.1519  0.0779
18322TIP3    H176381   1.807   5.972   3.491  0.5603 -1.3454 -0.6478
18322TIP3    H276382   1.954   6.008   3.501  0.0940  0.5724 -0.2769
18323TIP3   OH276383   2.436   1.399   3.358 -0.4862  0.2058  0.1407
18323TIP3    H176384   2.438   1.416   3.264 -0.1078  0.5486  0.2104
18323TIP3    H276385   2.343   1.397   3.379 -0.5657  0.6646 -0.1454
18324TIP3   OH276386   3.621   4.060   0.424  0.4557  0.5942 -0.7040
18324TIP3    H176387   3.570   4.120   0.479  1.6822  0.5312  0.5929
18324TIP3    H276388   3.562   3.987   0.406 -0.2728  1.0483 -0.2103
18325TIP3   OH276389   1.002   2.192  14.029  0.4492  0.3537 -0.0575
18325TIP3    H176390   1.051   2.242  14.094  3.0777 -1.6931 -0.3218
18325TIP3    H276391   1.015   2.239  13.947 -0.6665  1.4867  0.3808
18326TIP3   OH276392   5.177   0.023  15.551 -0.3602 -0.3210 -0.6514
18326TIP3    H176393   5.261   0.024  15.596  0.2266  0.6474 -1.6975
18326TIP3    H276394   5.175  -0.061  15.506  0.7919  0.2743 -1.8919
18327TIP3   OH276395   2.806   0.788   0.106 -0.7325  0.1480 -0.2573
18327TIP3    H176396   2.815   0.780   0.011 -1.3957 -1.2934 -0.2309
18327TIP3    H276397   2.896   0.799   0.138 -0.4158 -0.2744 -0.9806
18328TIP3   OH276398   5.079   2.152   4.273 -0.1192 -0.1004 -0.3193
18328TIP3    H176399   5.058   2.245   4.263 -0.7469 -0.1528  0.4317
18328TIP3    H276400   5.155   2.139   4.216 -0.6538  0.6313 -1.2374
18329TIP3   OH276401   6.547   3.773  12.712 -0.7262 -0.4046 -0.1957
18329TIP3    H176402   6.568   3.837  12.780  1.0045 -0.6409 -0.4705
18329TIP3    H276403   6.493   3.708  12.757 -0.8559  0.2136  0.5755
18330TIP3   OH276404   4.030   3.854   0.234 -0.6087  0.6462 -0.0137
18330TIP3    H176405   3.959   3.883   0.177 -1.3588 -2.2281 -0.7438
18330TIP3    H276406   4.100   3.830   0.174 -1.0898 -1.5876  0.2014
18331TIP3   OH276407   2.236   1.729  16.938  0.4954 -0.1793 -0.3396
18331TIP3    H176408   2.165   1.714  17.000  0.0204 -2.0587 -1.2823
18331TIP3    H276409   2.221   1.665  16.869  1.3619  1.4299 -2.1042
18332TIP3   OH276410   3.153   5.992  14.986  0.0717 -0.0591 -0.1171
18332TIP3    H176411   3.117   6.027  15.067 -0.1761 -3.9614  1.6677
18332TIP3    H276412   3.077   5.983  14.928 -0.0842  0.9128 -0.0764
18333TIP3   OH276413   3.832   1.195   4.485  0.0621  0.0228 -0.3481
18333TIP3    H176414   3.850   1.101   4.477 -3.6967 -0.8129 -0.8261
18333TIP3    H276415   3.818   1.224   4.395 -3.0236 -0.1046 -0.0389
18334TIP3   OH276416   0.370   4.000   3.276 -0.2055 -0.7221  0.1540
18334TIP3    H176417   0.348   3.935   3.342 -1.1706 -1.4878 -0.8854
18334TIP3    H276418   0.398   3.949   3.200 -1.1597  0.0410 -0.7445
18335TIP3   OH276419   6.187   6.732   2.437  0.1847 -0.3828 -0.0616
18335TIP3    H176420   6.135   6.806   2.466  2.6624  1.4556  0.0207
18335TIP3    H276421   6.163   6.661   2.496 -1.3680  0.7022  0.6694
18336TIP3   OH276422   2.462   0.170   5.269  0.4845  0.8698  0.0734
18336TIP3    H176423   2.467   0.098   5.206 -3.4534 -3.1909  3.6291
18336TIP3    H276424   2.396   0.229   5.233 -0.9472 -0.8059 -0.1667
18337TIP3   OH276425   0.160   3.307  11.882  0.2441  0.2895 -0.1600
18337TIP3    H176426   0.092   3.313  11.950  0.6979  1.3052  0.2154
18337TIP3    H276427   0.122   3.249  11.816 -0.4775 -0.1832  0.6395
18338TIP3   OH276428   2.516   0.663  15.681 -0.2875  0.1297  0.2614
18338TIP3    H176429   2.537   0.698  15.595 -2.0818  1.4378  0.2948
18338TIP3    H276430   2.595   0.616  15.708  0.9551  1.1987 -1.3202
18339TIP3   OH276431   2.481   4.275  13.659 -0.2239 -0.6471  0.5443
18339TIP3    H176432   2.542   4.236  13.721 -0.3292  0.5314  1.4168
18339TIP3    H276433   2.450   4.201  13.606  2.9136 -1.1394 -0.8402
18340TIP3   OH276434   3.697   5.313   0.472 -0.4570  0.3671  0.2431
18340TIP3    H176435   3.662   5.399   0.448 -0.6190 -0.3909 -2.6469
18340TIP3    H276436   3.783   5.331   0.510  0.4643  1.7695 -2.3002
18341TIP3   OH276437   1.203   2.655   2.891 -0.6760 -0.3167  0.4352
18341TIP3    H176438   1.268   2.617   2.832 -0.5545 -1.9335  1.5294
18341TIP3    H276439   1.137   2.694   2.833  1.2705  1.4860 -0.7100
18342TIP3   OH276440   0.553   4.288  14.356 -0.6315 -0.3840 -0.2066
18342TIP3    H176441   0.606   4.253  14.427 -0.8735 -0.7831 -0.2190
18342TIP3    H276442   0.614   4.304  14.285 -0.1546  1.2236  0.4973
18343TIP3   OH276443   5.096   4.112   2.981 -0.4927 -0.8288  0.1566
18343TIP3    H176444   5.173   4.145   2.935 -2.1327  0.8923 -1.5153
18343TIP3    H276445   5.095   4.161   3.063 -0.9256  0.7595 -0.7450
18344TIP3   OH276446   2.816   6.105  11.521 -0.1741  0.0642 -0.1407
18344TIP3    H176447   2.868   6.083  11.444 -0.4678  2.0413 -0.9574
18344TIP3    H276448   2.725   6.101  11.490 -0.4369 -1.2431  0.7068
18345TIP3   OH276449   1.709   4.102  12.763 -0.0806  0.5345  0.2358
18345TIP3    H176450   1.676   4.158  12.834 -0.6729  0.8168 -0.2507
18345TIP3    H276451   1.760   4.035  12.808 -0.2660  0.8308  0.9169
18346TIP3   OH276452   1.287   0.366  10.674  0.1235 -0.1770  0.6118
18346TIP3    H176453   1.300   0.458  10.697 -1.2102  0.2225 -0.1004
18346TIP3    H276454   1.241   0.369  10.590 -2.4739 -1.3999  1.8707
18347TIP3   OH276455   3.859   1.992  11.231 -0.3753  0.0075 -0.1906
18347TIP3    H176456   3.782   2.000  11.174  0.2995 -1.8314 -1.4365
18347TIP3    H276457   3.867   1.898  11.247  0.0545  0.3904  2.1746
18348TIP3   OH276458   0.327   5.585   3.211  0.1283 -0.4031  0.1944
18348TIP3    H176459   0.357   5.656   3.269 -0.6320  0.8790 -0.9382
18348TIP3    H276460   0.301   5.515   3.272 -1.8300  1.3529  1.5270
18349TIP3   OH276461   5.996   6.678  12.812 -0.9397  0.0855 -0.6596
18349TIP3    H176462   5.994   6.620  12.888 -0.5591  1.2066  0.2369
18349TIP3    H276463   6.020   6.620  12.739  0.1941 -0.7625  0.3290
18350TIP3   OH276464   3.159   2.089   3.883  0.3285  0.3396  0.4027
18350TIP3    H176465   3.067   2.082   3.909 -0.7940  1.1999 -2.8484
18350TIP3    H276466   3.189   1.999   3.875 -0.8944 -0.0114 -0.4553
18351TIP3   OH276467   4.995   0.148  14.868  0.0925  0.7267  0.2511
18351TIP3    H176468   4.938   0.088  14.917 -0.2408  0.1813 -0.7905
18351TIP3    H276469   5.078   0.102  14.862  0.3628  1.1121  0.9317
18352TIP3   OH276470   1.047   1.720  16.862 -0.1062  0.1621  0.3852
18352TIP3    H176471   1.048   1.793  16.924 -0.0304 -0.4676  1.1446
18352TIP3    H276472   0.981   1.745  16.797  0.0297  0.9712  0.5484
18353TIP3   OH276473   5.797   2.524  12.778 -0.3860  0.6978 -0.3629
18353TIP3    H176474   5.789   2.512  12.683 -0.3475 -0.6149 -0.2089
18353TIP3    H276475   5.831   2.441  12.811 -0.3183  1.1651  0.8009
18354TIP3   OH276476   4.237   5.051   1.116  0.1239 -0.3498  0.4453
18354TIP3    H176477   4.328   5.038   1.089  0.2173  0.1187  0.5161
18354TIP3    H276478   4.186   5.037   1.036  0.5272  2.6960 -0.4835
18355TIP3   OH276479   4.238   3.399  15.496 -0.0730  0.2241  0.4675
18355TIP3    H176480   4.223   3.336  15.566 -3.0331 -0.3991 -0.6140
18355TIP3    H276481   4.265   3.346  15.421 -2.4934  0.1438 -0.4217
18356TIP3   OH276482   3.775   4.586   3.511 -0.5736  0.3815 -0.4125
18356TIP3    H176483   3.681   4.601   3.520 -0.9454 -0.2933 -2.6577
18356TIP3    H276484   3.783   4.496   3.480  1.0787 -0.9114  3.2455
18357TIP3   OH276485   1.988   3.571  11.714 -0.1002  0.5466 -0.7653
18357TIP3    H176486   1.933   3.592  11.790  0.1706 -2.2190  0.3074
18357TIP3    H276487   1.942   3.501  11.670  0.7534  0.7553 -2.0365
18358TIP3   OH276488   3.546   5.418   4.985 -0.7116  0.1412  0.1795
18358TIP3    H176489   3.541   5.379   5.073 -2.5631 -0.6914 -0.2333
18358TIP3    H276490   3.496   5.499   4.993  1.0024  1.2235  0.4056
18359TIP3   OH276491   6.043   0.644  12.010 -0.0679 -0.1249 -0.6223
18359TIP3    H176492   6.023   0.551  11.997 -1.5052 -0.2516  1.8827
18359TIP3    H276493   6.050   0.654  12.105 -0.2676  2.3919 -0.8086
18360TIP3   OH276494   4.084   2.691   1.463  0.1328  0.3292 -0.4291
18360TIP3    H176495   4.081   2.713   1.556  0.0687 -0.3802 -0.2552
18360TIP3    H276496   4.172   2.717   1.435 -0.2421  1.6169 -0.4551
18361TIP3   OH276497   1.759   2.159   1.632 -0.9323 -0.3263 -0.1054
18361TIP3    H176498   1.806   2.207   1.700  0.9881 -0.5585 -1.1860
18361TIP3    H276499   1.784   2.067   1.646 -1.9114 -0.6058 -0.0851
18362TIP3   OH276500   4.561   2.871  14.382 -0.5291  0.0207 -0.2967
18362TIP3    H176501   4.583   2.789  14.426  0.7855  0.6483  0.3017
18362TIP3    H276502   4.593   2.939  14.442 -2.3503  0.9995 -0.3885
18363TIP3   OH276503   0.267   3.405   2.276 -0.5929  0.6098 -0.0151
18363TIP3    H176504   0.348   3.453   2.255 -0.2009  0.2806  0.6879
18363TIP3    H276505   0.232   3.450   2.353 -0.7809  0.4094  0.0182
18364TIP3   OH276506   4.612   4.951   2.967 -0.4140  0.1195  0.0648
18364TIP3    H176507   4.601   4.907   3.051  1.8137 -0.6197  0.0385
18364TIP3    H276508   4.705   4.974   2.965 -0.6891  1.2180 -1.6810
18365TIP3   OH276509   4.750   4.673  14.685  0.6320 -0.0347 -0.2554
18365TIP3    H176510   4.689   4.737  14.722 -1.0399 -0.5031 -2.0625
18365TIP3    H276511   4.826   4.676  14.743 -0.4690  1.6934  1.1872
18366TIP3   OH276512   4.813   4.349   2.921  0.9963 -0.4741 -0.4165
18366TIP3    H176513   4.754   4.371   2.993  2.0188  0.4773  0.1685
18366TIP3    H276514   4.866   4.428   2.908  0.8886 -0.6499 -2.1791
18367TIP3   OH276515   3.412   5.511   3.750  0.3659 -0.3487  0.0909
18367TIP3    H176516   3.390   5.425   3.715 -0.3354 -0.2128  0.1811
18367TIP3    H276517   3.379   5.573   3.685 -0.5210 -0.1093  0.7370
18368TIP3   OH276518   0.881   6.424  16.941 -0.1113 -0.0348  0.2109
18368TIP3    H176519   0.957   6.398  16.890  0.2464 -0.4806  0.9446
18368TIP3    H276520   0.807   6.416  16.881  0.3688  0.0257 -0.3978
18369TIP3   OH276521   2.235   3.529   0.975 -0.4622  0.1732  0.0554
18369TIP3    H176522   2.215   3.436   0.966 -0.5591  0.2838 -1.0871
18369TIP3    H276523   2.211   3.567   0.890  0.0181  1.1543  0.3407
18370TIP3   OH276524   6.474   1.116   3.225  0.0677  0.4524  0.0826
18370TIP3    H176525   6.444   1.026   3.213  0.8896  0.0543  0.8754
18370TIP3    H276526   6.454   1.136   3.317  0.8080  0.7271  0.1876
18371TIP3   OH276527   0.979   2.954   1.677  0.0306 -0.2755  0.1729
18371TIP3    H176528   1.026   2.878   1.712 -0.0915 -1.1603 -1.4766
18371TIP3    H276529   0.888   2.940   1.705  0.1694 -0.2671  0.6340
18372TIP3   OH276530   2.848   0.664  11.804 -0.0371  0.4414 -0.5343
18372TIP3    H176531   2.878   0.607  11.733  0.0575 -0.4202  0.1763
18372TIP3    H276532   2.907   0.739  11.801  2.4328 -1.2830  0.9276
18373TIP3   OH276533   4.377   4.113  15.552  0.0246 -0.2677  0.2557
18373TIP3    H176534   4.463   4.073  15.541 -0.4335 -1.1972 -0.0534
18373TIP3    H276535   4.326   4.048  15.599 -0.4079  0.4307  0.7671
18374TIP3   OH276536   6.119   4.953  16.071 -0.1526  0.0420  0.1990
18374TIP3    H176537   6.041   4.936  16.018 -0.2937 -0.2929  0.5077
18374TIP3    H276538   6.088   5.010  16.142 -0.3201 -0.7959  0.8226
18375TIP3   OH276539   2.520   3.527  14.863 -0.1904 -0.6576 -0.0822
18375TIP3    H176540   2.435   3.529  14.908 -1.3651 -1.4457 -2.1139
18375TIP3    H276541   2.498   3.506  14.773  2.1644 -0.3433 -0.7877
18376TIP3   OH276542   0.426   4.994   3.078 -0.0437 -0.1516 -0.4204
18376TIP3    H176543   0.338   5.032   3.090  0.6938  1.3711  0.4661
18376TIP3    H276544   0.409   4.907   3.041 -1.8953  0.3761 -0.9543
18377TIP3   OH276545   6.062   2.081   0.804  0.0688 -0.1272 -0.1560
18377TIP3    H176546   6.082   1.996   0.843 -0.9753 -0.4139 -0.2071
18377TIP3    H276547   6.131   2.139   0.836  0.5221 -0.8790  0.2652
18378TIP3   OH276548   0.652   4.753   5.452 -0.7288  0.3622 -0.7623
18378TIP3    H176549   0.579   4.810   5.429 -0.1933  0.9329 -1.1006
18378TIP3    H276550   0.713   4.761   5.378 -0.0694  0.3390 -0.2348
18379TIP3   OH276551   2.283   2.048   3.233  0.3567  0.0378 -0.5741
18379TIP3    H176552   2.226   1.981   3.196  0.0108 -0.0879  0.1652
18379TIP3    H276553   2.363   2.043   3.181  0.4528 -1.1584 -0.3511
18380TIP3   OH276554   3.957   4.782  15.652  0.0882 -0.4206 -0.2948
18380TIP3    H176555   3.919   4.785  15.565 -1.5348  2.3392  0.3863
18380TIP3    H276556   4.051   4.793  15.638 -0.2876  1.4719 -1.6663
18381TIP3   OH276557   6.759   1.410   3.637  0.5855 -0.6327  0.2668
18381TIP3    H176558   6.729   1.480   3.578 -0.1044 -0.0701  1.2532
18381TIP3    H276559   6.682   1.356   3.651  0.5765 -0.4023  1.1417
18382TIP3   OH276560   5.357   6.251   3.618  0.3086  0.2515 -0.3133
18382TIP3    H176561   5.427   6.205   3.573 -0.6504 -2.1020  0.4327
18382TIP3    H276562   5.386   6.254   3.710 -0.6993 -1.1455  0.0825
18383TIP3   OH276563   1.149   1.424  12.266 -0.2985 -0.5640 -0.5702
18383TIP3    H176564   1.193   1.339  12.269 -1.4806 -1.1956  2.4053
18383TIP3    H276565   1.066   1.409  12.312 -0.1813  2.3579  0.7995
18384TIP3   OH276566   0.434   3.154   1.839  0.3312 -0.1308  0.1211
18384TIP3    H176567   0.381   3.139   1.917  1.1446  0.2313  0.7581
18384TIP3    H276568   0.372   3.184   1.773 -0.0903  1.4566  1.1970
18385TIP3   OH276569   1.583   3.022   4.596 -0.0871  0.2910  0.2250
18385TIP3    H176570   1.596   2.929   4.616 -1.0550 -0.3052 -1.6091
18385TIP3    H276571   1.501   3.023   4.546 -0.8026  2.3173  1.3454
18386TIP3   OH276572   6.799   5.482  15.940  0.0102  0.0072  0.3617
18386TIP3    H176573   6.804   5.565  15.986  0.3090  0.3378 -0.2531
18386TIP3    H276574   6.869   5.428  15.978 -0.1217  0.0681  0.6926
18387TIP3   OH276575   0.671   1.959   6.087  0.1236  0.0120 -0.2780
18387TIP3    H176576   0.671   1.964   6.183  0.2885  0.7255 -0.3058
18387TIP3    H276577   0.610   1.888   6.067  1.3403 -1.2738  0.3912
18388TIP3   OH276578   0.390   1.232  15.075 -0.0005 -0.1127  0.2505
18388TIP3    H176579   0.311   1.199  15.032 -0.7516  3.5437 -1.5572
18388TIP3    H276580   0.358   1.279  15.152  0.1193  2.5636 -1.2307
18389TIP3   OH276581   0.339   3.759   1.714  0.4684  0.5501  0.4813
18389TIP3    H176582   0.300   3.778   1.629 -0.1668 -1.4295  0.2730
18389TIP3    H276583   0.284   3.806   1.777 -0.4206  0.2372 -0.0500
18390TIP3   OH276584   1.952   5.014  16.848  0.7149  0.1796  0.8758
18390TIP3    H176585   1.973   4.932  16.892  0.6936  0.4364  1.3762
18390TIP3    H276586   1.858   5.024  16.859  0.8063  0.5746  1.3660
18391TIP3   OH276587   6.588   3.695  14.026 -0.0700  0.3652  0.5944
18391TIP3    H176588   6.512   3.748  14.050 -0.1027  0.5707  0.0692
18391TIP3    H276589   6.662   3.736  14.071 -0.1795  0.5294  0.6254
18392TIP3   OH276590   6.280   5.105   5.245  0.5201  0.1561  0.3671
18392TIP3    H176591   6.329   5.119   5.326  1.6854  1.0035 -0.4458
18392TIP3    H276592   6.189   5.093   5.274  1.0332 -0.4615  1.8479
18393TIP3   OH276593   4.529   1.380   4.719 -0.1162  0.3140 -0.1433
18393TIP3    H176594   4.513   1.390   4.625 -0.6690  1.2832  0.0377
18393TIP3    H276595   4.498   1.292   4.739 -1.1068  0.5245 -0.6613
18394TIP3   OH276596   0.469   0.406  11.635  0.2417  0.1555 -0.2253
18394TIP3    H176597   0.541   0.469  11.630  1.1547 -0.6309  2.0981
18394TIP3    H276598   0.503   0.327  11.591 -0.2432  0.6225 -1.5085
18395TIP3   OH276599   2.459   5.394  12.976 -0.4971  0.4432 -0.4797
18395TIP3    H176600   2.449   5.299  12.963 -3.4577  0.3046  1.8281
18395TIP3    H276601   2.467   5.404  13.071  0.6673  2.4939 -0.7506
18396TIP3   OH276602   5.085   5.125   0.152  0.4875 -0.2757  0.9265
18396TIP3    H176603   5.084   5.069   0.230  4.0894  1.4058  2.3826
18396TIP3    H276604   5.007   5.180   0.161  0.1421 -0.9767  2.6236
18397TIP3   OH276605   0.414   4.305   0.519 -0.1299  0.3156 -0.6678
18397TIP3    H176606   0.384   4.377   0.574 -1.2053  0.3612 -1.2840
18397TIP3    H276607   0.507   4.294   0.540 -0.3628  0.7897  0.6237
18398TIP3   OH276608   6.157   6.115   0.306  0.3523 -0.0655 -0.1308
18398TIP3    H176609   6.191   6.137   0.393  0.7826 -0.2658 -0.2421
18398TIP3    H276610   6.072   6.074   0.323 -0.6219  1.9260  0.0613
18399TIP3   OH276611   6.710   5.697  12.431 -0.4776  0.0976 -0.0414
18399TIP3    H176612   6.618   5.724  12.432 -0.5306 -0.0966  0.6544
18399TIP3    H276613   6.743   5.730  12.347 -0.8775  1.1571  0.1987
18400TIP3   OH276614   1.010   3.244   4.252  0.3141 -0.1176 -0.0912
18400TIP3    H176615   1.024   3.149   4.252 -0.6590 -0.2780 -1.1477
18400TIP3    H276616   1.085   3.279   4.204  1.4015 -0.1992  1.4651
18401TIP3   OH276617   4.129   3.459  11.228 -0.4154  0.4025  0.5106
18401TIP3    H176618   4.218   3.473  11.260  0.0967 -3.4823  1.2863
18401TIP3    H276619   4.094   3.391  11.285 -3.3930  0.8040 -0.6880
18402TIP3   OH276620   6.589   2.338  14.370 -0.1415  0.1239  0.4604
18402TIP3    H176621   6.661   2.400  14.358  0.4154 -0.3735  1.1656
18402TIP3    H276622   6.554   2.357  14.457 -0.1136 -0.3970  0.5910
18403TIP3   OH276623   4.861   5.321   5.854  0.1278 -0.0745  0.3616
18403TIP3    H176624   4.905   5.349   5.934  1.2608 -0.6260 -0.0419
18403TIP3    H276625   4.843   5.228   5.867  1.8187 -0.5905 -0.6312
18404TIP3   OH276626   0.860   5.888   4.897 -0.2735 -0.2857 -0.5399
18404TIP3    H176627   0.928   5.869   4.962  0.1158  1.3259 -0.4291
18404TIP3    H276628   0.812   5.805   4.887  1.6443 -1.4579 -0.5653
18405TIP3   OH276629   1.766   1.992   0.310  0.1852 -0.0733  0.4695
18405TIP3    H176630   1.763   1.972   0.217  0.9002  0.5115  0.3167
18405TIP3    H276631   1.856   1.972   0.336 -0.2797 -1.2476  1.2749
18406TIP3   OH276632   1.988   1.919  14.154 -0.1541  0.1181 -0.7337
18406TIP3    H176633   1.908   1.968  14.135  0.1696  0.4404 -1.2728
18406TIP3    H276634   1.992   1.851  14.087  1.2904  1.6168 -2.2417
18407TIP3   OH276635   5.554   4.214   6.232  0.5282 -0.1112 -0.3093
18407TIP3    H176636   5.645   4.239   6.216  1.0815 -0.3132  2.2118
18407TIP3    H276637   5.558   4.119   6.246 -0.3679 -0.4164 -1.8808
18408TIP3   OH276638   2.386   2.535  16.700 -0.0810  0.8301 -0.3083
18408TIP3    H176639   2.429   2.491  16.773 -2.0988 -1.4478 -0.3712
18408TIP3    H276640   2.438   2.509  16.623 -0.3614 -0.2289 -0.1559
18409TIP3   OH276641   1.300   3.085   4.222 -0.1317  0.0256  0.1873
18409TIP3    H176642   1.381   3.049   4.258  0.7462  0.7085 -1.0367
18409TIP3    H276643   1.320   3.176   4.201 -1.2852  0.2743  0.0570
18410TIP3   OH276644   6.225   1.467  13.801  0.1086  0.0508  0.7865
18410TIP3    H176645   6.272   1.531  13.853  0.1880  0.8980 -0.2839
18410TIP3    H276646   6.147   1.514  13.769  0.4386 -0.1912 -0.4432
18411TIP3   OH276647   6.010   0.228   1.078 -0.3611 -0.0699  0.6576
18411TIP3    H176648   5.995   0.276   0.996  0.4365  1.4256  1.3379
18411TIP3    H276649   6.058   0.149   1.051 -2.1928 -0.8249 -0.5655
18412TIP3   OH276650   3.913   3.915  14.448  0.0085  0.4318  0.4841
18412TIP3    H176651   3.929   3.949  14.359 -0.5171 -1.1817 -0.2585
18412TIP3    H276652   3.903   3.994  14.501  2.3047  1.4941 -0.4834
18413TIP3   OH276653   2.048   5.341   2.064  0.5550  0.1321 -0.1079
18413TIP3    H176654   2.017   5.259   2.103 -2.3781  1.0794 -0.2219
18413TIP3    H276655   2.092   5.314   1.984 -1.0343 -1.3269 -0.5524
18414TIP3   OH276656   1.707   5.528   2.140  0.0687 -0.3150 -0.2564
18414TIP3    H176657   1.754   5.447   2.160  3.1935  1.1544 -1.0011
18414TIP3    H276658   1.768   5.578   2.084 -1.3608  2.8661  0.7956
18415TIP3   OH276659   6.669   2.258   3.146 -0.3600  0.2168 -0.0291
18415TIP3    H176660   6.741   2.246   3.208 -0.9016  0.7413  0.7133
18415TIP3    H276661   6.687   2.195   3.076 -0.7360 -1.7575  1.5630
18416TIP3   OH276662   2.750   0.881   1.048  0.4220  0.0757 -0.0798
18416TIP3    H176663   2.829   0.937   1.047  0.3842  0.1933  1.1349
18416TIP3    H276664   2.678   0.943   1.061  0.0288  0.0359 -1.8237
18417TIP3   OH276665   1.966   6.408   2.498  0.0177 -0.4517 -0.3855
18417TIP3    H176666   1.956   6.501   2.520 -0.2950 -1.0391  2.2913
18417TIP3    H276667   2.025   6.407   2.422  1.7815  1.8364  0.8559
18418TIP3   OH276668   4.936   5.622   4.167 -0.2345  0.0100 -0.1167
18418TIP3    H176669   4.956   5.565   4.241  1.2597  2.6604  1.6961
18418TIP3    H276670   4.855   5.666   4.191 -0.1766  0.3004 -0.4414
18419TIP3   OH276671   6.171   4.355   3.782 -0.2729 -0.2117 -0.0801
18419TIP3    H176672   6.121   4.405   3.847 -0.3929 -0.0437 -0.2988
18419TIP3    H276673   6.186   4.418   3.711 -1.1730 -0.7230 -0.7495
18420TIP3   OH276674   1.069   4.910   1.673 -0.0800  0.5229 -0.0508
18420TIP3    H176675   1.013   4.897   1.596 -0.0942  1.1267 -0.1521
18420TIP3    H276676   1.154   4.874   1.647  0.1001  1.3070 -0.6016
18421TIP3   OH276677   6.684   6.387  14.195  0.2118 -0.3371 -0.1943
18421TIP3    H176678   6.592   6.411  14.188  0.8339  1.8578 -2.1633
18421TIP3    H276679   6.731   6.470  14.183  2.4756 -0.8623  3.4104
18422TIP3   OH276680   3.986   5.862   6.397 -0.5825 -0.2382 -0.2276
18422TIP3    H176681   3.997   5.769   6.381 -0.4072  0.0134 -1.7111
18422TIP3    H276682   4.009   5.874   6.490 -0.7510 -1.6708  0.0124
18423TIP3   OH276683   0.661   1.549   3.277  0.0802 -0.3326 -0.3108
18423TIP3    H176684   0.678   1.455   3.275  1.2014 -0.1935  1.3670
18423TIP3    H276685   0.731   1.588   3.225  2.1613 -0.1660  2.4054
18424TIP3   OH276686   2.085   2.072   6.037 -0.2733  0.1651 -1.0306
18424TIP3    H176687   2.075   1.984   6.073  1.6898 -0.0749 -0.9597
18424TIP3    H276688   2.012   2.122   6.074 -1.7239 -1.5348 -1.4805
18425TIP3   OH276689   0.625   5.073  14.149 -0.2090  0.1413  0.6569
18425TIP3    H176690   0.648   5.028  14.230 -1.6019 -1.2830  0.3114
18425TIP3    H276691   0.684   5.037  14.084 -0.9441 -0.8028  0.4972
18426TIP3   OH276692   5.156   0.032   2.796  0.0673  0.4367  0.3312
18426TIP3    H176693   5.078   0.014   2.744  1.7698 -1.2863 -1.8766
18426TIP3    H276694   5.156  -0.037   2.863  0.3398 -0.4230 -0.5218
18427TIP3   OH276695   2.039   4.986   0.381 -0.0764 -0.1199  0.1405
18427TIP3    H176696   1.988   5.005   0.459  0.3721 -0.5121  0.5299
18427TIP3    H276697   1.978   4.941   0.323 -1.7950  3.9135 -1.5862
18428TIP3   OH276698   2.661   5.755  16.842 -0.0234 -0.4336  0.1278
18428TIP3    H176699   2.658   5.684  16.779 -2.4365 -1.1792  0.9438
18428TIP3    H276700   2.649   5.835  16.790  2.5071 -0.5652 -0.7702
18429TIP3   OH276701   5.396   6.251  11.243 -0.3878 -0.2268  0.3619
18429TIP3    H176702   5.406   6.159  11.220 -1.3383 -0.2380 -0.0563
18429TIP3    H276703   5.388   6.252  11.338 -0.4560 -0.5776  0.3582
18430TIP3   OH276704   0.137   2.616   2.100  0.0722  0.2610  0.0839
18430TIP3    H176705   0.099   2.696   2.062  1.7043 -0.1705 -2.7838
18430TIP3    H276706   0.098   2.545   2.050  0.9005 -0.4966  0.4958
18431TIP3   OH276707   6.322   5.682  13.718  0.6401  0.0047  0.1677
18431TIP3    H176708   6.330   5.711  13.809 -0.2031  0.5168  0.0926
18431TIP3    H276709   6.381   5.607  13.711 -1.3370 -1.8667  1.9322
18432TIP3   OH276710   6.327   2.324   1.324  0.3853 -0.3563 -0.0629
18432TIP3    H176711   6.359   2.390   1.384  1.2036 -1.0435  0.2750
18432TIP3    H276712   6.406   2.286   1.286 -0.0955 -0.6175 -0.8216
18433TIP3   OH276713   5.489   3.122   2.241  0.5595 -0.0489 -0.6794
18433TIP3    H176714   5.501   3.214   2.265  0.2978  0.0584 -0.9526
18433TIP3    H276715   5.577   3.084   2.248  0.7691  0.3517 -1.1076
18434TIP3   OH276716   1.303   5.463  16.692 -0.0475  0.1965 -0.0243
18434TIP3    H176717   1.369   5.498  16.632 -1.2201  0.5217 -1.1626
18434TIP3    H276718   1.303   5.369  16.677  0.0568  0.2096 -0.1050
18435TIP3   OH276719   6.703   6.148   4.832 -0.2586 -0.0386  0.0237
18435TIP3    H176720   6.756   6.172   4.757 -2.3617 -1.3328 -2.0158
18435TIP3    H276721   6.736   6.062   4.858 -0.2445 -0.0797 -0.1288
18436TIP3   OH276722   2.898   3.040   1.453  0.2997 -0.1209  0.5060
18436TIP3    H176723   2.863   3.070   1.537 -2.2135 -0.9003 -0.1600
18436TIP3    H276724   2.949   2.962   1.474  0.0294 -0.0790  1.3478
18437TIP3   OH276725   1.349   4.589   2.731 -0.0870 -0.0889 -0.0041
18437TIP3    H176726   1.375   4.671   2.773 -0.2579  0.0587 -0.1864
18437TIP3    H276727   1.254   4.593   2.727 -0.0586  0.0816 -0.7676
18438TIP3   OH276728   0.032   4.232   1.415 -0.3042 -0.0470 -0.0421
18438TIP3    H176729  -0.003   4.233   1.326 -0.0774  2.0241 -0.1566
18438TIP3    H276730  -0.014   4.302   1.461  1.6592  0.9238  0.5874
18439TIP3   OH276731   5.653   4.464  14.351  0.1724 -0.0729  0.7583
18439TIP3    H176732   5.747   4.464  14.333  0.2163  0.9205  0.9132
18439TIP3    H276733   5.617   4.399  14.291  1.1323 -1.5459  1.6967
18440TIP3   OH276734   6.626   2.170   2.878  0.5055  0.4693 -0.3702
18440TIP3    H176735   6.708   2.151   2.833  0.4037  0.1057 -0.4029
18440TIP3    H276736   6.558   2.153   2.812  0.4191  1.0530 -0.4343
18441TIP3   OH276737   3.273   0.022   0.491  0.7359  0.3405 -0.3843
18441TIP3    H176738   3.327   0.094   0.523  0.4013  0.1865  0.5666
18441TIP3    H276739   3.184   0.057   0.491  0.4863 -0.2413  0.6723
18442TIP3   OH276740   4.739   4.247  14.899 -0.4647 -0.8105  0.4180
18442TIP3    H176741   4.803   4.262  14.969 -1.6574  2.3790  0.9808
18442TIP3    H276742   4.791   4.209  14.828  1.5536 -0.6777  1.7280
18443TIP3   OH276743   3.189   6.203  12.113  0.1623  0.5333  0.0855
18443TIP3    H176744   3.179   6.215  12.207  0.3542 -1.8648  0.4764
18443TIP3    H276745   3.120   6.140  12.089  2.0072 -1.2716 -0.7530
18444TIP3   OH276746   3.830   1.974  13.509 -0.4830  0.2886  0.3148
18444TIP3    H176747   3.821   1.916  13.433  0.1187  0.8080 -0.1700
18444TIP3    H276748   3.876   2.051  13.474  0.8338  0.0548  1.4468
18445TIP3   OH276749   1.451   3.995   5.174 -0.0636  0.6257  0.1013
18445TIP3    H176750   1.402   4.058   5.120 -0.7809  0.1408  0.1712
18445TIP3    H276751   1.390   3.971   5.244  0.6031  0.6962  0.7174
18446TIP3   OH276752   6.034   5.576   4.625 -0.1385  0.1218  0.4781
18446TIP3    H176753   6.022   5.593   4.719 -1.7250  1.0618  0.1436
18446TIP3    H276754   6.038   5.663   4.585  1.2273 -0.2553 -0.2886
18447TIP3   OH276755   2.278   4.704   4.541  0.6286 -0.0356 -0.3098
18447TIP3    H176756   2.216   4.657   4.597 -0.3740 -0.2945 -1.5883
18447TIP3    H276757   2.227   4.728   4.464  1.6680  1.3603 -0.6039
18448TIP3   OH276758   3.746   2.857   5.295  0.2229 -0.1148 -0.3829
18448TIP3    H176759   3.688   2.933   5.298 -0.4180 -0.6298  1.4922
18448TIP3    H276760   3.698   2.791   5.246 -0.3837 -0.1942  0.3017
18449TIP3   OH276761   2.894   2.838  10.411 -0.4129 -0.2064 -0.8146
18449TIP3    H176762   2.909   2.776  10.482 -3.5563 -0.3144 -0.1370
18449TIP3    H276763   2.836   2.793  10.350  0.8007  0.5265 -2.6441
18450TIP3   OH276764   2.733   5.320  15.225  0.4079 -0.2402  0.8017
18450TIP3    H176765   2.756   5.397  15.173  1.0924 -0.9753 -0.0142
18450TIP3    H276766   2.817   5.286  15.256  0.0130  0.2503  2.5404
18451TIP3   OH276767   3.871   5.251   3.678 -0.0522  0.1528 -0.0984
18451TIP3    H176768   3.791   5.245   3.730  1.3322 -0.5798  2.0745
18451TIP3    H276769   3.939   5.273   3.741  1.5938  0.1615 -1.7882
18452TIP3   OH276770   3.450   2.475  12.744 -0.3457  0.4233  0.3268
18452TIP3    H176771   3.537   2.480  12.785  0.6482 -0.7226 -1.4876
18452TIP3    H276772   3.404   2.407  12.793 -0.5624  1.6061  1.8278
18453TIP3   OH276773   1.671   5.987  15.329  0.2713  0.3618 -1.0419
18453TIP3    H176774   1.654   6.004  15.422  1.9440 -1.1560 -0.3844
18453TIP3    H276775   1.764   6.009  15.318  1.1021 -2.8255 -1.3993
18454TIP3   OH276776   1.875   4.894  13.100 -0.2793 -0.4424  0.4513
18454TIP3    H176777   1.952   4.943  13.070 -0.8648  1.4546  1.8200
18454TIP3    H276778   1.815   4.894  13.025  0.3359 -0.3701 -0.0444
18455TIP3   OH276779   0.877   2.365   5.684  0.0957  0.0472  0.0487
18455TIP3    H176780   0.955   2.328   5.725  0.4899 -0.6744 -1.2995
18455TIP3    H276781   0.890   2.351   5.590 -0.6654  1.8851 -0.3653
18456TIP3   OH276782   6.777   4.366  16.448 -0.8641 -0.3729 -0.0980
18456TIP3    H176783   6.766   4.373  16.353  1.6052 -2.2658 -0.6299
18456TIP3    H276784   6.850   4.424  16.468 -2.1031  0.9069  0.8960
18457TIP3   OH276785   2.006   1.642  14.758  0.5322  0.0550 -0.2415
18457TIP3    H176786   2.007   1.589  14.679  0.7472  0.7655 -0.7250
18457TIP3    H276787   1.943   1.712  14.741 -0.5351 -0.6104  0.7896
18458TIP3   OH276788   6.541   4.669  11.106 -0.0186 -0.2848  0.6381
18458TIP3    H176789   6.465   4.696  11.158 -1.5971 -1.4311 -0.9300
18458TIP3    H276790   6.508   4.598  11.051  2.3783 -1.2278  0.3077
18459TIP3   OH276791   5.886   3.653  11.055  0.3756 -0.3944 -0.0013
18459TIP3    H176792   5.902   3.706  10.977  0.5249  0.8894  0.8699
18459TIP3    H276793   5.969   3.610  11.072 -0.0712 -1.9487 -1.4179
18460TIP3   OH276794   6.793   0.585  11.136  0.0988 -0.4945 -0.3719
18460TIP3    H176795   6.699   0.595  11.153  0.3624  2.0934  0.0511
18460TIP3    H276796   6.820   0.670  11.102  2.5331 -0.7213  0.7770
18461TIP3   OH276797   1.306   6.301   5.566 -0.1293 -0.1053 -0.2306
18461TIP3    H176798   1.295   6.220   5.516  0.9273 -0.5045  0.1593
18461TIP3    H276799   1.238   6.296   5.634 -1.5954  0.4582 -1.5833
18462TIP3   OH276800   5.782   0.369   2.560  0.0179 -0.1160  0.5870
18462TIP3    H176801   5.775   0.287   2.510  0.1320  0.2286 -0.0048
18462TIP3    H276802   5.722   0.357   2.633  0.3408 -0.8960  0.7440
18463TIP3   OH276803   4.157   3.918  14.163 -0.8724  0.1462 -0.0479
18463TIP3    H176804   4.162   4.001  14.115  0.0168  0.5792  0.7616
18463TIP3    H276805   4.205   3.934  14.244 -2.1393 -0.6491  0.8893
18464TIP3   OH276806   1.394   1.788   0.965  0.2377  0.0796  0.3103
18464TIP3    H176807   1.359   1.723   1.026  0.6699  0.6288  1.1658
18464TIP3    H276808   1.470   1.746   0.925  1.8780  0.7507  2.4744
18465TIP3   OH276809   0.537   1.918   2.968  0.4879  0.1563  0.0463
18465TIP3    H176810   0.453   1.920   2.921  0.6168  0.2340 -0.1800
18465TIP3    H276811   0.523   1.855   3.039 -0.1464  1.0553  0.7484
18466TIP3   OH276812   3.137   1.695  16.086  0.1139 -0.5731 -0.0971
18466TIP3    H176813   3.172   1.782  16.067  0.1807 -0.6861 -0.4931
18466TIP3    H276814   3.207   1.652  16.136 -0.0830 -0.2601  0.4584
18467TIP3   OH276815   6.541   5.716   5.064 -0.5306 -0.1120 -0.1316
18467TIP3    H176816   6.539   5.689   4.972  0.1413 -2.4403  0.4830
18467TIP3    H276817   6.633   5.734   5.081 -0.6876  0.5374  0.0484
18468TIP3   OH276818   0.840   2.860   4.601  0.0176  0.1985 -0.2085
18468TIP3    H176819   0.746   2.872   4.610 -0.0548  0.7495 -1.5596
18468TIP3    H276820   0.860   2.786   4.659 -1.4813 -0.9409 -1.0746
18469TIP3   OH276821   4.986   5.497   4.396  0.1563 -0.2211 -0.4665
18469TIP3    H176822   5.066   5.550   4.397  1.9701 -2.7308  1.3548
18469TIP3    H276823   4.926   5.543   4.455  1.1811  0.5025  0.0430
18470TIP3   OH276824   4.691   2.560   1.905  0.0718  0.4324  0.3011
18470TIP3    H176825   4.662   2.543   1.815 -0.7021  0.8347  0.4642
18470TIP3    H276826   4.768   2.617   1.896  0.0851  0.3477 -0.1089
18471TIP3   OH276827   2.128   0.117  12.719 -0.1805 -0.3853  0.2283
18471TIP3    H176828   2.211   0.146  12.681 -0.5321 -1.5945 -1.5991
18471TIP3    H276829   2.071   0.193  12.712  0.4280  0.0922  0.3875
18472TIP3   OH276830   1.140   1.189  16.258 -0.1399  0.6333 -0.1807
18472TIP3    H176831   1.184   1.103  16.262  1.4509  1.4253  0.3535
18472TIP3    H276832   1.208   1.249  16.226 -0.6670  2.0047  1.1555
18473TIP3   OH276833   0.664   1.499  16.480  0.3074  0.1689  0.2282
18473TIP3    H176834   0.680   1.415  16.523 -0.9634 -0.4853 -0.5458
18473TIP3    H276835   0.651   1.477  16.388 -1.3130  1.0606  0.2175
18474TIP3   OH276836   2.700   6.515   4.609  0.4344  0.3264 -0.2123
18474TIP3    H176837   2.674   6.533   4.699 -1.4081 -0.4836 -0.5411
18474TIP3    H276838   2.793   6.538   4.606  1.0774 -1.4577  2.4072
18475TIP3   OH276839   2.160   1.308   2.086  0.5806  0.3507 -0.1985
18475TIP3    H176840   2.155   1.369   2.160 -1.1921 -1.1443  1.0096
18475TIP3    H276841   2.092   1.339   2.025 -0.1774 -0.2330  0.3210
18476TIP3   OH276842   0.874   3.736   3.359 -0.3283 -0.3480  0.5121
18476TIP3    H176843   0.850   3.820   3.399 -2.0169 -1.3789  1.8002
18476TIP3    H276844   0.969   3.741   3.349 -0.5054  2.1675 -0.5738
18477TIP3   OH276845   3.605   3.259  15.781  0.2299  0.3680 -0.0590
18477TIP3    H176846   3.647   3.314  15.847  2.4798 -0.0188 -1.0968
18477TIP3    H276847   3.597   3.173  15.823 -2.5376  1.1166  1.2594
18478TIP3   OH276848   1.540   1.113  13.355 -0.2753 -0.0823  0.1631
18478TIP3    H176849   1.502   1.026  13.366  0.7362 -0.4004  1.3217
18478TIP3    H276850   1.519   1.160  13.435 -0.1126  0.4778 -0.1143
18479TIP3   OH276851   4.193   1.307   0.701 -0.0549  0.3673 -0.1774
18479TIP3    H176852   4.285   1.331   0.718 -0.2075  0.7653  0.0955
18479TIP3    H276853   4.162   1.371   0.638  0.4527 -1.0045 -1.8952
18480TIP3   OH276854   0.197   2.165  12.426 -0.4018 -0.1236 -0.0128
18480TIP3    H176855   0.245   2.147  12.345  0.4031 -1.1292  0.6571
18480TIP3    H276856   0.209   2.259  12.441  0.0656 -0.0722 -0.6736
18481TIP3   OH276857   6.697   4.496   1.679 -0.0563 -0.2480 -1.0210
18481TIP3    H176858   6.755   4.426   1.707  0.7515  1.4488  2.1114
18481TIP3    H276859   6.746   4.577   1.699 -2.0679  1.2109 -1.6569
18482TIP3   OH276860   4.312   1.014  16.314 -0.4274  0.1968 -0.1262
18482TIP3    H176861   4.325   1.037  16.406 -1.6639 -0.2153  0.1779
18482TIP3    H276862   4.217   1.004  16.306 -0.4612  1.3861 -1.7254
18483TIP3   OH276863   5.036   0.938  17.026  0.2824 -0.8884 -1.0703
18483TIP3    H176864   5.109   1.001  17.028 -0.3126 -0.1916 -0.4719
18483TIP3    H276865   4.985   0.962  16.949 -1.3930  1.1069  0.5538
18484TIP3   OH276866   2.163   1.360  17.101 -0.3252  0.0640  0.2805
18484TIP3    H176867   2.073   1.361  17.135 -0.5706  0.9584 -0.3616
18484TIP3    H276868   2.209   1.427  17.151 -0.3293  0.4252 -0.1923
18485TIP3   OH276869   3.389   3.853   0.135  0.3118  0.0775  0.6609
18485TIP3    H176870   3.324   3.856   0.205  1.2215 -0.0993  1.5325
18485TIP3    H276871   3.410   3.945   0.119 -1.4768  0.2759 -0.9335
18486TIP3   OH276872   0.351   5.270   4.684 -0.3694 -0.3791  0.2513
18486TIP3    H176873   0.287   5.268   4.613 -0.6180  2.4822  0.2800
18486TIP3    H276874   0.302   5.239   4.760 -1.1554 -0.1080 -0.1285
18487TIP3   OH276875   4.991   3.112  15.210 -0.1788 -0.2293 -0.2173
18487TIP3    H176876   5.037   3.079  15.287  0.8947 -0.8167 -1.0835
18487TIP3    H276877   5.051   3.095  15.137 -1.7376 -0.9397 -1.3781
18488TIP3   OH276878   5.583   4.898  11.048 -0.0563  0.3169 -0.0163
18488TIP3    H176879   5.520   4.873  10.980 -0.8700  1.8664  0.1122
18488TIP3    H276880   5.636   4.967  11.007  0.8336 -0.1864  0.2547
18489TIP3   OH276881   4.130   1.306  14.406 -0.3574 -0.4287 -0.7066
18489TIP3    H176882   4.072   1.230  14.408  2.1062 -2.4199 -0.5284
18489TIP3    H276883   4.192   1.291  14.478  2.2248 -0.0074 -2.7103
18490TIP3   OH276884   5.171   1.162  10.506  0.4580 -0.1310 -0.2558
18490TIP3    H176885   5.087   1.201  10.532  0.7039  0.2230  0.0346
18490TIP3    H276886   5.156   1.068  10.510  0.1821 -0.0749  0.1684
18491TIP3   OH276887   0.051   3.176   0.139  1.0119  0.2101 -0.0705
18491TIP3    H176888   0.145   3.192   0.140  1.0556 -0.0250 -0.2321
18491TIP3    H276889   0.043   3.081   0.147  0.8154  0.1408 -0.9801
18492TIP3   OH276890   4.757   4.082  11.694  0.9216  0.0931  0.2561
18492TIP3    H176891   4.723   4.125  11.773  0.6465 -0.3470  0.3823
18492TIP3    H276892   4.696   4.108  11.625  1.9580  1.6427 -0.1294
18493TIP3   OH276893   0.219   1.426  10.776  0.1833  0.1054 -0.4832
18493TIP3    H176894   0.143   1.441  10.833  0.2131 -1.3236 -0.0523
18493TIP3    H276895   0.219   1.502  10.717 -0.2101  1.3034  0.9873
18494TIP3   OH276896   4.109   2.320   5.809 -0.2444  0.0589  0.0620
18494TIP3    H176897   4.125   2.412   5.829  1.9600 -0.5274  1.4036
18494TIP3    H276898   4.043   2.292   5.872 -1.2527  0.7777 -0.6341
18495TIP3   OH276899   3.846   6.375  13.847 -0.4527 -0.2778  0.2649
18495TIP3    H176900   3.878   6.312  13.912 -0.8900 -0.8836 -0.0898
18495TIP3    H276901   3.923   6.398  13.795 -0.1588 -0.0134  0.8135
18496TIP3   OH276902   2.730   4.999  15.871 -0.3714  0.0696 -0.4592
18496TIP3    H176903   2.688   5.085  15.874 -1.4474 -0.3889 -1.3605
18496TIP3    H276904   2.754   4.981  15.961  0.5239  1.6044 -0.3533
18497TIP3   OH276905   4.889   3.576   0.390  0.3180 -0.2377  0.1436
18497TIP3    H176906   4.885   3.617   0.304 -1.5064  0.7875  0.6603
18497TIP3    H276907   4.842   3.493   0.380 -0.5595  0.2272  0.3000
18498TIP3   OH276908   0.974   0.359   2.755  0.1783 -0.0266  0.3585
18498TIP3    H176909   1.006   0.436   2.802 -0.4784  1.9810 -2.2497
18498TIP3    H276910   0.889   0.340   2.794  0.3646  0.5093  1.0414
18499TIP3   OH276911   2.716   1.507  14.074 -0.2018 -0.3354 -0.2508
18499TIP3    H176912   2.744   1.514  14.165 -0.4772  1.4689 -0.2715
18499TIP3    H276913   2.627   1.473  14.079 -0.7948  1.2205  0.2790
18500TIP3   OH276914   4.661   2.334   3.222 -0.1468  0.8801 -0.6097
18500TIP3    H176915   4.647   2.428   3.222 -1.0119  0.7722 -1.6438
18500TIP3    H276916   4.649   2.308   3.130 -0.8897 -0.3740 -0.1802
18501TIP3   OH276917   4.881   0.820   4.919 -0.2267 -0.1988 -0.3421
18501TIP3    H176918   4.833   0.798   4.840  0.8621  0.9232 -1.3523
18501TIP3    H276919   4.930   0.741   4.941 -1.4892 -0.9282 -0.0289
18502TIP3   OH276920   0.080   3.757  16.174 -0.1030  0.1045  0.3149
18502TIP3    H176921  -0.012   3.736  16.186 -0.6923  0.7886 -2.2777
18502TIP3    H276922   0.080   3.843  16.131  1.7841  0.5253  1.0515
18503TIP3   OH276923   2.389   4.938   4.667  0.1903 -0.2120 -0.0936
18503TIP3    H176924   2.355   4.850   4.652 -0.9087  0.5327 -2.5433
18503TIP3    H276925   2.316   4.986   4.706  0.2886 -0.0441 -0.1136
18504TIP3   OH276926   3.407   5.890   2.181 -0.3076  0.7540 -0.0606
18504TIP3    H176927   3.468   5.917   2.250 -1.2492  3.0773 -0.0342
18504TIP3    H276928   3.373   5.805   2.210  3.1989 -0.8979 -0.3486
18505TIP3   OH276929   6.764   5.869   2.283 -0.2487  0.2132 -0.1736
18505TIP3    H176930   6.819   5.884   2.359 -1.0011  1.7485  0.1071
18505TIP3    H276931   6.681   5.911   2.305 -1.9471 -2.8164 -0.1602
18506TIP3   OH276932   0.882   2.730   3.389  0.5808  0.4579 -0.3237
18506TIP3    H176933   0.946   2.667   3.356  2.8545  1.9175  1.0540
18506TIP3    H276934   0.851   2.776   3.311  0.5888 -0.8087 -1.0999
18507TIP3   OH276935   4.993   4.144   5.379  0.7504  0.4901  0.1321
18507TIP3    H176936   5.067   4.106   5.332  0.6109  0.9970 -0.5058
18507TIP3    H276937   5.025   4.229   5.409  0.5023  0.6076  0.0618
18508TIP3   OH276938   3.558   0.978  10.308  0.0334 -0.1620 -0.6427
18508TIP3    H176939   3.474   1.005  10.346 -0.3044 -0.6204 -1.0453
18508TIP3    H276940   3.578   1.045  10.243 -0.0450 -0.0737 -0.5768
18509TIP3   OH276941   4.934   1.633   3.290 -0.1037  0.2439 -0.0655
18509TIP3    H176942   4.990   1.662   3.362 -2.4215 -0.2598  2.0433
18509TIP3    H276943   4.985   1.563   3.248  2.0293  1.7088 -0.1044
18510TIP3   OH276944   2.033   0.753   1.570  0.2469  0.2547 -0.4771
18510TIP3    H176945   2.003   0.777   1.482  0.0378  2.3636  0.1049
18510TIP3    H276946   1.956   0.717   1.612  0.4667 -1.2125 -1.2807
18511TIP3   OH276947   5.352   4.993   6.534 -1.0131  0.3365  0.4144
18511TIP3    H176948   5.377   4.949   6.616  1.1330  1.1085  0.2419
18511TIP3    H276949   5.294   4.931   6.490 -0.4346 -1.0421  1.5044
18512TIP3   OH276950   1.693   4.511  12.710 -0.3370 -0.5352 -0.1472
18512TIP3    H176951   1.655   4.424  12.701 -1.0967 -0.4008  1.3588
18512TIP3    H276952   1.618   4.568  12.728  0.4016 -0.0496  1.6211
18513TIP3   OH276953   0.925   6.055  11.600  0.0315 -0.7651  0.4980
18513TIP3    H176954   0.983   5.986  11.632  1.8421  1.0473  1.3121
18513TIP3    H276955   0.984   6.124  11.568 -1.7040  0.3322 -0.4970
18514TIP3   OH276956   0.552   6.102  14.350  0.2090  0.3253 -0.1601
18514TIP3    H176957   0.536   6.117  14.257  1.0391  1.9063 -0.0913
18514TIP3    H276958   0.474   6.138  14.393 -1.3160 -2.5480 -0.2707
18515TIP3   OH276959   0.816   1.785  15.466 -0.5921 -0.3282 -0.1713
18515TIP3    H176960   0.906   1.764  15.442 -0.9296 -2.4367  0.2345
18515TIP3    H276961   0.778   1.824  15.387  0.3012 -0.6309 -0.7632
18516TIP3   OH276962   5.918   0.807  10.983  0.1836 -0.3777  0.0673
18516TIP3    H176963   5.898   0.730  10.929 -0.3900 -0.2912  0.1446
18516TIP3    H276964   5.998   0.784  11.030  1.2996 -0.0548 -1.5859
18517TIP3   OH276965   4.384   2.395  15.316 -0.0166 -0.1917  0.2036
18517TIP3    H176966   4.375   2.441  15.232  1.1417  1.1213  0.7583
18517TIP3    H276967   4.405   2.305  15.292  2.4218  0.5924 -0.9947
18518TIP3   OH276968   1.431   4.472  15.250 -0.4832 -0.4561  0.0791
18518TIP3    H176969   1.402   4.546  15.196 -0.2449 -0.4700 -0.0674
18518TIP3    H276970   1.353   4.449  15.301 -0.5818 -0.1569  0.0680
18519TIP3   OH276971   3.897   0.958   5.148 -0.1286  0.3209  0.3879
18519TIP3    H176972   3.935   0.883   5.194  0.3930  1.1143  1.2889
18519TIP3    H276973   3.824   0.920   5.098 -0.1396 -0.7257  1.1444
18520TIP3   OH276974   4.585   4.050   4.586  0.2216 -0.7491  0.4368
18520TIP3    H176975   4.492   4.073   4.595 -0.0038 -0.5016 -1.9286
18520TIP3    H276976   4.626   4.086   4.664 -1.2552  1.5651  0.2377
18521TIP3   OH276977   2.961   3.443  13.525 -0.4706 -0.8701 -0.1572
18521TIP3    H176978   2.877   3.402  13.542 -0.0155 -1.8123 -0.1348
18521TIP3    H276979   2.946   3.536  13.542 -1.9114 -0.7815 -1.5892
18522TIP3   OH276980   0.132   1.955   4.054  0.6743  0.4527  0.0238
18522TIP3    H176981   0.174   1.894   4.115  0.0329 -0.8544 -0.7979
18522TIP3    H276982   0.089   2.020   4.110 -0.9219 -1.3875  1.0541
18523TIP3   OH276983   0.410   5.673  17.093 -0.2418 -0.3408 -0.0618
18523TIP3    H176984   0.369   5.630  17.018  0.8943  1.3741 -1.7651
18523TIP3    H276985   0.497   5.634  17.098 -0.5675 -0.9792  0.8772
18524TIP3   OH276986   4.438   2.685  12.817  0.0052 -0.1915  0.0586
18524TIP3    H176987   4.489   2.631  12.756 -1.3345 -1.2481 -0.1746
18524TIP3    H276988   4.499   2.703  12.889  1.6973  1.2766 -1.6373
18525TIP3   OH276989   4.731   2.049   5.901  0.3334  0.3565 -0.1135
18525TIP3    H176990   4.711   1.967   5.946  2.2592 -1.1885 -1.9046
18525TIP3    H276991   4.718   2.116   5.968 -1.9369 -1.2922  1.2448
18526TIP3   OH276992   1.704   5.715  11.918  0.0675  0.4006  0.1710
18526TIP3    H176993   1.767   5.691  11.986 -0.3239 -0.2622  0.3069
18526TIP3    H276994   1.635   5.650  11.925  0.6280 -0.4826 -1.7200
18527TIP3   OH276995   3.138   3.864   4.822  0.0710  0.7695  0.1150
18527TIP3    H176996   3.123   3.800   4.753  1.4674  1.2745 -0.7033
18527TIP3    H276997   3.111   3.820   4.902 -0.6856 -0.1744 -0.6348
18528TIP3   OH276998   3.699   1.752  17.094  0.4208  0.3131 -0.3739
18528TIP3    H176999   3.750   1.768  17.173 -1.4775 -2.1181  1.5010
18528TIP3    H277000   3.635   1.822  17.091  0.1349  0.0978  0.5927
18529TIP3   OH277001   4.089   4.384   2.751 -0.1673 -0.3172 -0.3030
18529TIP3    H177002   4.092   4.295   2.785 -1.8486 -0.4767 -0.5013
18529TIP3    H277003   4.040   4.433   2.817  0.1432  0.3081 -0.5306
18530TIP3   OH277004   2.738   0.759  16.218 -0.0821 -1.0826  0.1303
18530TIP3    H177005   2.740   0.840  16.167 -2.3087 -1.8922 -1.4256
18530TIP3    H277006   2.829   0.746  16.246  0.7096  0.9012 -1.2541
18531TIP3   OH277007   6.761   0.234   1.159  0.7271 -0.3742 -0.1952
18531TIP3    H177008   6.812   0.315   1.162  0.7099 -0.3523 -0.4278
18531TIP3    H277009   6.726   0.232   1.070 -0.2987 -0.0072  0.1944
18532TIP3   OH277010   2.830   6.125  12.746  0.1565 -0.0733  0.5481
18532TIP3    H177011   2.756   6.068  12.767 -0.5900  0.2517 -1.0132
18532TIP3    H277012   2.907   6.068  12.747 -0.1459 -0.4714  1.9020
18533TIP3   OH277013   3.971   2.571   3.236 -0.1761  0.0220 -0.1809
18533TIP3    H177014   3.903   2.528   3.288 -0.4951  1.2623  0.4640
18533TIP3    H277015   4.052   2.530   3.264 -0.3852  0.3956  1.0319
18534TIP3   OH277016   3.495   5.429   5.252  0.6027  0.1986 -0.3337
18534TIP3    H177017   3.522   5.521   5.248  0.9540  0.2195  1.3804
18534TIP3    H277018   3.468   5.416   5.343 -3.2726 -0.3982 -1.4180
18535TIP3   OH277019   4.201   2.916  16.069 -0.4593 -0.3833 -0.3163
18535TIP3    H177020   4.138   2.922  15.997 -0.2297 -1.4250 -0.6234
18535TIP3    H277021   4.164   2.970  16.138 -1.3836 -0.4945 -0.7143
18536TIP3   OH277022   2.833   1.138   0.778  0.2833  0.5686  0.3048
18536TIP3    H177023   2.753   1.178   0.744 -0.5699 -1.2588  0.0170
18536TIP3    H277024   2.819   1.134   0.873  1.1083  2.4050  0.5433
18537TIP3   OH277025   3.891   0.571   2.051  0.2600 -0.5356 -0.5029
18537TIP3    H177026   3.857   0.658   2.070  1.1273 -0.0292 -1.2231
18537TIP3    H277027   3.818   0.512   2.071  0.0661  0.2195  1.2454
18538TIP3   OH277028   5.790   5.663  16.866  0.6004  0.5497  0.1109
18538TIP3    H177029   5.875   5.707  16.865  1.0160 -0.2343  0.2720
18538TIP3    H277030   5.788   5.615  16.949 -0.7092  1.8931  0.9005
18539TIP3   OH277031   3.906   0.588   0.178 -0.2189  0.6622  0.0423
18539TIP3    H177032   3.883   0.680   0.165 -0.8020  0.4650 -0.3546
18539TIP3    H277033   3.935   0.583   0.269  2.5200  1.8008 -0.6718
18540TIP3   OH277034   3.559   5.698  15.260 -0.4404 -0.0108 -0.3347
18540TIP3    H177035   3.481   5.657  15.223 -0.4633 -0.2760  0.0010
18540TIP3    H277036   3.612   5.625  15.292  0.1587  0.1393 -0.9636
18541TIP3   OH277037   1.263   5.919  13.585  0.2448 -0.1421  0.3998
18541TIP3    H177038   1.238   6.011  13.587  0.4054  0.0128 -1.9574
18541TIP3    H277039   1.355   5.919  13.559 -0.1704 -0.9733 -1.1900
18542TIP3   OH277040   1.751   0.637  12.043 -0.1512  0.2233 -0.5443
18542TIP3    H177041   1.688   0.570  12.018 -1.8396  2.2286 -2.0491
18542TIP3    H277042   1.732   0.656  12.135 -1.0548  0.0623 -0.6953
18543TIP3   OH277043   1.743   0.251   0.395  0.6191  0.3233  0.1219
18543TIP3    H177044   1.758   0.301   0.315 -0.1808 -1.0217 -0.9122
18543TIP3    H277045   1.657   0.280   0.425 -0.3315 -1.1132 -1.0674
18544TIP3   OH277046   0.858   4.181   0.438  0.7413 -0.0226 -1.1115
18544TIP3    H177047   0.795   4.168   0.367  0.9054  0.9619 -1.4456
18544TIP3    H277048   0.890   4.093   0.458  0.2933 -0.3676 -1.8915
18545TIP3   OH277049   1.292   6.527  12.301 -0.6890 -0.2218 -0.0859
18545TIP3    H177050   1.346   6.544  12.224 -0.1708 -0.3826  0.2356
18545TIP3    H277051   1.220   6.473  12.268 -1.2181  0.8436 -0.7160
18546TIP3   OH277052   3.539   0.540   6.579  0.2814 -0.2185  0.0597
18546TIP3    H177053   3.603   0.475   6.550  0.2210  0.4211 -1.6120
18546TIP3    H277054   3.455   0.503   6.552  0.4097  1.7295 -3.5566
18547TIP3   OH277055   6.422   4.636   3.852 -0.8636  0.4398  0.4008
18547TIP3    H177056   6.384   4.689   3.922 -0.6668  0.3542  0.5755
18547TIP3    H277057   6.349   4.615   3.794 -0.9105  1.0561  0.2337
18548TIP3   OH277058   5.193   4.436  16.873  0.3171  0.3856  0.3211
18548TIP3    H177059   5.273   4.388  16.853  1.3833  2.0798  0.3640
18548TIP3    H277060   5.125   4.392  16.820  1.1774 -1.2378  0.4829
18549TIP3   OH277061   6.154   1.777   2.554  0.2504 -0.4422 -0.4557
18549TIP3    H177062   6.163   1.777   2.459  1.5310 -0.4688 -0.3471
18549TIP3    H277063   6.161   1.685   2.579  0.3490 -0.3925 -0.2991
18550TIP3   OH277064   0.180   3.379  11.156 -0.9079  0.1207  0.1525
18550TIP3    H177065   0.165   3.393  11.062  0.8496 -1.6872 -0.4880
18550TIP3    H277066   0.259   3.430  11.175 -1.5865  0.9421  0.8059
18551TIP3   OH277067   3.043   6.415   4.497 -1.0804  0.3895  0.0804
18551TIP3    H177068   3.080   6.368   4.572 -0.1725  1.1591  0.1273
18551TIP3    H277069   3.054   6.355   4.423  1.4071  1.0479 -0.1604
18552TIP3   OH277070   0.697   3.667  11.874  0.0302 -0.3848 -0.4362
18552TIP3    H177071   0.605   3.667  11.901  0.0746  0.3605 -0.2550
18552TIP3    H277072   0.698   3.713  11.790  0.3516  0.5079  0.0343
18553TIP3   OH277073   0.147   3.791  16.439  0.5156  0.1393  0.5338
18553TIP3    H177074   0.170   3.701  16.463  0.5709  0.0712  0.2264
18553TIP3    H277075   0.104   3.783  16.354  0.1061  0.3548  0.7193
18554TIP3   OH277076   2.027   3.531   1.179  0.1934 -0.1411  0.0232
18554TIP3    H177077   1.949   3.577   1.148 -0.2253 -1.9940 -1.9232
18554TIP3    H277078   2.078   3.514   1.100  0.8457 -2.0168  0.7712
18555TIP3   OH277079   5.387   4.673   1.673  0.1378 -0.0213  0.3324
18555TIP3    H177080   5.308   4.670   1.619 -0.2848 -0.0384  0.9433
18555TIP3    H277081   5.448   4.726   1.622 -0.4755  0.4961  0.1191
18556TIP3   OH277082   4.173   1.878   3.602  0.6937  0.6543  0.2105
18556TIP3    H177083   4.096   1.929   3.575  1.6472  1.4473 -1.1204
18556TIP3    H277084   4.194   1.824   3.527  1.7125  0.8000  0.3761
18557TIP3   OH277085   6.231   5.532  16.870 -0.0816 -0.0338  0.1990
18557TIP3    H177086   6.234   5.499  16.780 -2.5947 -1.4896  0.5316
18557TIP3    H277087   6.159   5.596  16.869  1.8026  2.2093  0.5900
18558TIP3   OH277088   5.751   4.984   6.304  0.2646  0.6161  0.7623
18558TIP3    H177089   5.687   5.052   6.323 -0.0841  0.3881  0.4060
18558TIP3    H277090   5.700   4.904   6.295  0.4833  0.5773 -0.3827
18559TIP3   OH277091   5.732   5.880  10.516 -0.0088  0.1557  0.4560
18559TIP3    H177092   5.779   5.853  10.437 -0.7915  2.8949 -1.0770
18559TIP3    H277093   5.723   5.975  10.507 -2.2508  0.2528  2.6748
18560TIP3   OH277094   6.702   1.255  12.357  0.2328 -0.2373 -0.0695
18560TIP3    H177095   6.722   1.163  12.346  0.8256 -0.0228 -0.8818
18560TIP3    H277096   6.610   1.257  12.386  0.7207 -1.1471  1.6988
18561TIP3   OH277097   6.305   5.893  10.215 -0.0265  0.2671 -0.0627
18561TIP3    H177098   6.263   5.934  10.139 -0.9673 -1.0807 -0.3159
18561TIP3    H277099   6.251   5.816  10.233  1.4185 -0.6207  0.6490
18562TIP3   OH277100   5.149   3.394   2.056  0.2608 -0.2481  0.2774
18562TIP3    H177101   5.161   3.390   1.961  0.7504 -1.4827  0.3717
18562TIP3    H277102   5.056   3.373   2.068 -0.2537  1.6611 -0.0016
18563TIP3   OH277103   5.300   3.434   4.852 -0.4471 -0.1613  0.3439
18563TIP3    H177104   5.280   3.341   4.859 -0.2757 -0.1690  0.7938
18563TIP3    H277105   5.364   3.450   4.922 -0.8282  0.3884  0.5741
18564TIP3   OH277106   0.488   4.211   2.550 -0.8555  0.3464  0.1123
18564TIP3    H177107   0.567   4.225   2.497 -0.6452  1.8833  0.7740
18564TIP3    H277108   0.510   4.136   2.606 -0.8845 -0.9481 -1.5579
18565TIP3   OH277109   0.565   1.260  16.893 -0.4681 -0.2603  0.2379
18565TIP3    H177110   0.477   1.299  16.894 -0.1743  0.4684 -0.8735
18565TIP3    H277111   0.618   1.322  16.844  0.4868 -1.0990  0.1904
18566TIP3   OH277112   0.778   3.008  16.862 -0.3432 -0.0464  0.6862
18566TIP3    H177113   0.815   3.016  16.774  0.7095 -0.8894  1.0269
18566TIP3    H277114   0.686   3.031  16.851  0.3658  2.8691 -0.0808
18567TIP3   OH277115   4.898   4.021  13.278  0.0214  0.6820  0.3131
18567TIP3    H177116   4.905   3.988  13.368  1.0223  1.7833  0.6667
18567TIP3    H277117   4.850   3.952  13.231 -0.3057 -0.0255  1.6226
18568TIP3   OH277118   4.844   1.292  16.688  0.7957 -0.0950 -0.3708
18568TIP3    H177119   4.927   1.341  16.691 -0.2464  1.8369 -1.4023
18568TIP3    H277120   4.810   1.309  16.601 -1.9650  1.4438  0.8749
18569TIP3   OH277121   5.766   4.188  12.698 -0.0788 -0.3036 -0.2848
18569TIP3    H177122   5.816   4.174  12.617 -0.8548 -0.0203 -0.8171
18569TIP3    H277123   5.783   4.279  12.721 -1.6682  0.3063 -1.3936
18570TIP3   OH277124   6.209   2.613   4.953  0.4286 -0.3413  0.0969
18570TIP3    H177125   6.234   2.691   5.001 -1.5959 -0.0735  0.8130
18570TIP3    H277126   6.189   2.548   5.021  2.3136 -1.6296 -0.4739
18571TIP3   OH277127   2.026   0.514  12.135  0.5995 -0.1634  0.2912
18571TIP3    H177128   1.944   0.471  12.109  0.7920 -0.6837  0.5303
18571TIP3    H277129   2.003   0.564  12.214  0.2310  0.6766 -0.3356
18572TIP3   OH277130   3.671   6.334   0.819 -0.2625  0.2400 -0.7375
18572TIP3    H177131   3.636   6.423   0.824 -0.8971 -0.0541  0.6698
18572TIP3    H277132   3.752   6.338   0.870  0.7643  0.4481 -2.3268
18573TIP3   OH277133   4.833   6.763   2.415 -0.0931  0.3077 -0.5750
18573TIP3    H177134   4.910   6.815   2.437 -0.5795  0.6701  0.3162
18573TIP3    H277135   4.802   6.729   2.499 -0.0503 -1.0809 -1.0813
18574TIP3   OH277136   2.025   0.637  12.570 -0.8403 -0.6301  0.0743
18574TIP3    H177137   1.970   0.712  12.593 -1.1062 -0.3338 -1.4115
18574TIP3    H277138   2.044   0.649  12.477  1.8126 -0.6953  0.5309
18575TIP3   OH277139   3.673   3.977  14.791  0.4089 -0.2105 -0.0666
18575TIP3    H177140   3.649   3.906  14.850 -0.0667  0.3591  0.4438
18575TIP3    H277141   3.606   4.044  14.805  0.2617 -0.0750 -1.2801
18576TIP3   OH277142   5.544   2.913  11.547  0.1368 -0.1339 -0.6452
18576TIP3    H177143   5.569   2.873  11.463  1.2255  1.2932 -1.0502
18576TIP3    H277144   5.476   2.975  11.523 -0.0312 -0.2094 -0.3576
18577TIP3   OH277145   2.179   6.346   5.742  0.2592 -0.2920 -0.3605
18577TIP3    H177146   2.136   6.420   5.699 -2.1783 -0.4859  1.5245
18577TIP3    H277147   2.229   6.303   5.672  0.5772  2.2374 -1.8160
18578TIP3   OH277148   3.083   0.928   1.934  0.1831  0.7111 -0.3107
18578TIP3    H177149   3.146   0.948   2.004 -1.3396  0.1753  1.2940
18578TIP3    H277150   3.062   0.835   1.946 -0.1112  0.6135 -1.4911
18579TIP3   OH277151   6.584   4.565   5.744 -0.0858 -0.5361 -0.0865
18579TIP3    H177152   6.492   4.551   5.719 -0.2866  1.8645 -0.9450
18579TIP3    H277153   6.631   4.567   5.661  0.3325  0.6874  0.1624
18580TIP3   OH277154   2.131   4.588  14.119  0.3470  0.4777 -0.2706
18580TIP3    H177155   2.044   4.589  14.080  0.6403 -1.3817 -1.0819
18580TIP3    H277156   2.116   4.597  14.213 -1.0098 -2.8158 -0.0607
18581TIP3   OH277157   6.077   0.602   0.277 -0.1626 -0.3041 -0.8898
18581TIP3    H177158   5.985   0.582   0.263 -0.6159  0.6141  0.6633
18581TIP3    H277159   6.102   0.654   0.200 -0.6414 -1.3717 -1.8058
18582TIP3   OH277160   2.479   2.117   5.508 -0.4701 -0.0236 -0.6180
18582TIP3    H177161   2.475   2.157   5.595  1.6566 -0.9220 -0.0204
18582TIP3    H277162   2.422   2.171   5.453  0.4238  2.3628  0.6530
18583TIP3   OH277163   4.287   6.602  13.664 -0.2953 -0.1471 -0.5825
18583TIP3    H177164   4.355   6.573  13.602 -0.9724 -1.9131 -0.5379
18583TIP3    H277165   4.221   6.533  13.661 -0.8913  0.2986  1.2704
18584TIP3   OH277166   0.700   3.515  10.499 -0.9840 -0.1062  0.3874
18584TIP3    H177167   0.694   3.421  10.513 -0.1386 -0.3461 -0.6784
18584TIP3    H277168   0.752   3.548  10.572 -1.7223 -0.3837  1.0426
18585TIP3   OH277169   3.975   2.918   0.843  0.7966  0.3933  0.3156
18585TIP3    H177170   4.037   2.991   0.844  2.1395 -0.6604 -1.1122
18585TIP3    H277171   3.981   2.880   0.931  1.0896  1.1624  0.6376
18586TIP3   OH277172   0.202   5.651  12.298  0.1348 -0.4192  0.1102
18586TIP3    H177173   0.233   5.691  12.379  2.4441 -1.6765 -0.0862
18586TIP3    H277174   0.268   5.585  12.277 -0.7382 -0.5684 -2.4571
18587TIP3   OH277175   1.969   5.948   0.389  0.1339 -0.1263 -0.1651
18587TIP3    H177176   1.884   5.906   0.372 -0.2196  1.2707 -2.2047
18587TIP3    H277177   2.014   5.946   0.304  0.3726  2.9045 -0.2071
18588TIP3   OH277178   2.070   0.108  11.024 -0.3705  0.0174  0.3908
18588TIP3    H177179   1.998   0.079  10.968 -1.5958 -0.1658  2.0027
18588TIP3    H277180   2.042   0.192  11.059  1.6598  1.5970 -1.4943
18589TIP3   OH277181   6.477   0.205   5.395 -0.6689  0.4332  0.0968
18589TIP3    H177182   6.482   0.300   5.386  1.6337  0.4337  0.5332
18589TIP3    H277183   6.462   0.191   5.489 -0.7665  0.3798  0.0724
18590TIP3   OH277184   1.864   4.122   3.850  0.3057 -0.6082 -0.6098
18590TIP3    H177185   1.919   4.155   3.779  0.0906  1.3397  0.0671
18590TIP3    H277186   1.784   4.092   3.807  0.1235  0.6675 -1.2224
18591TIP3   OH277187   4.272   6.154   6.472  0.0006 -0.9647 -0.2106
18591TIP3    H177188   4.188   6.120   6.444  1.0387 -2.9421 -1.1474
18591TIP3    H277189   4.289   6.228   6.413 -2.3214  1.4664  1.8990
18592TIP3   OH277190   1.932   6.544  13.267  0.7123 -0.1921 -0.2146
18592TIP3    H177191   2.008   6.487  13.271  1.6523  1.1022  1.2261
18592TIP3    H277192   1.949   6.601  13.192  1.1444  0.0485  0.0614
18593TIP3   OH277193   0.209   3.134   3.351  0.2229  0.4560 -0.7119
18593TIP3    H177194   0.264   3.118   3.274  2.1941 -0.1671  0.7350
18593TIP3    H277195   0.239   3.219   3.384 -2.1946  1.8434 -1.8392
18594TIP3   OH277196   2.756   0.474   3.083  0.4349 -0.7465 -0.2592
18594TIP3    H177197   2.722   0.526   3.009  0.7270 -1.4188 -0.8803
18594TIP3    H277198   2.846   0.504   3.094  0.3351 -0.5185 -0.0525
18595TIP3   OH277199   2.880   0.516  14.133  0.4920 -0.1334  0.3690
18595TIP3    H177200   2.860   0.503  14.226 -0.6845  2.1567  0.5231
18595TIP3    H277201   2.819   0.585  14.106  1.2429 -0.3206 -1.9583
18596TIP3   OH277202   2.955   1.440  15.714  0.1025 -0.4970  0.1777
18596TIP3    H177203   3.025   1.499  15.739  0.2323 -0.2613 -0.6977
18596TIP3    H277204   2.922   1.404  15.796 -0.5274  1.4129  0.8148
18597TIP3   OH277205   6.332   3.711  10.927  0.0887 -0.2295  0.4539
18597TIP3    H177206   6.415   3.668  10.908 -0.4646 -1.0002 -0.3478
18597TIP3    H277207   6.266   3.642  10.915 -0.8124  0.7803 -0.6251
18598TIP3   OH277208   2.387   2.085   0.392  0.4112 -0.4009 -0.0834
18598TIP3    H177209   2.480   2.102   0.404  0.1203  0.8493  0.5389
18598TIP3    H277210   2.344   2.134   0.461 -0.8853  1.3940 -2.0199
18599TIP3   OH277211   3.729   1.500   5.144  0.1590 -0.0336 -0.2234
18599TIP3    H177212   3.637   1.506   5.169  0.6768 -0.5375  2.0089
18599TIP3    H277213   3.761   1.590   5.147  0.2404 -0.0901  1.2235
18600TIP3   OH277214   4.425   0.061   3.480 -0.2783  0.0848  0.2120
18600TIP3    H177215   4.392   0.097   3.562  1.6177  0.7750  0.7421
18600TIP3    H277216   4.469  -0.020   3.505  0.9293  0.6555  0.0323
18601TIP3   OH277217   0.021   1.440  17.117  0.5939 -0.2158 -0.0963
18601TIP3    H177218  -0.011   1.390  17.041  2.6548  0.7215 -1.6957
18601TIP3    H277219   0.094   1.388  17.150  0.8213  0.2431  0.1270
18602TIP3   OH277220   1.508   3.141   2.406 -0.1918 -0.3360 -0.3088
18602TIP3    H177221   1.569   3.213   2.390 -1.3775  0.4263 -1.6442
18602TIP3    H277222   1.422   3.183   2.413 -0.8214 -1.5528 -0.3951
18603TIP3   OH277223   0.298   6.203   2.526 -0.3790  0.0267  0.1595
18603TIP3    H177224   0.205   6.226   2.524 -0.1390  1.1794 -2.3543
18603TIP3    H277225   0.339   6.274   2.575 -0.9255 -1.2965  2.6748
18604TIP3   OH277226   6.100   3.556  16.044  0.4120  0.2795 -0.8119
18604TIP3    H177227   6.049   3.503  15.983  1.7820 -1.8883 -0.1644
18604TIP3    H277228   6.162   3.603  15.988  0.9769 -0.9063 -1.2117
18605TIP3   OH277229   2.898   2.421   3.322 -0.1327  0.2142  0.0490
18605TIP3    H177230   2.935   2.440   3.407  0.4687  0.2460 -0.2193
18605TIP3    H277231   2.869   2.506   3.288 -1.2046  0.0908  0.5937
18606TIP3   OH277232   2.229   0.328  13.575  0.0498  0.2150 -0.4927
18606TIP3    H177233   2.152   0.375  13.606  0.9946  1.3763  0.1492
18606TIP3    H277234   2.203   0.293  13.490 -1.5345 -0.3369  0.1915
18607TIP3   OH277235   0.239   0.331   5.660  0.5046  0.0066  0.2725
18607TIP3    H177236   0.254   0.283   5.579  0.9285  1.5517 -0.5859
18607TIP3    H277237   0.199   0.413   5.633  0.0930  0.2946  1.6853
18608TIP3   OH277238   1.055   3.691   5.904 -0.2393 -0.0775  0.2655
18608TIP3    H177239   1.025   3.698   5.813 -0.1381 -0.8792  0.1699
18608TIP3    H277240   1.145   3.661   5.897 -0.6744 -1.5500  0.6603
18609TIP3   OH277241   1.777   4.140   1.027 -0.3371 -0.7056 -0.2815
18609TIP3    H177242   1.711   4.207   1.009 -0.8692 -0.9769  0.6052
18609TIP3    H277243   1.843   4.183   1.080 -0.1189 -0.5978 -0.6398
18610TIP3   OH277244   0.997   0.046   4.957  0.2282 -0.3241  0.2494
18610TIP3    H177245   1.003   0.047   4.861  0.7549 -1.7036  0.2389
18610TIP3    H277246   0.912   0.084   4.976  0.9779  1.9684 -0.6356
18611TIP3   OH277247   4.620   1.881  16.656 -0.3774  0.0159 -0.4330
18611TIP3    H177248   4.647   1.946  16.592 -1.0454  0.4095 -0.3266
18611TIP3    H277249   4.698   1.865  16.709 -0.1880  0.6770 -0.5078
18612TIP3   OH277250   4.492   6.276   5.780 -1.2078 -0.3917 -0.1282
18612TIP3    H177251   4.566   6.281   5.719 -1.9384  0.1462 -0.9791
18612TIP3    H277252   4.487   6.363   5.819 -0.2774 -0.9287  1.3016
18613TIP3   OH277253   3.315   3.753   2.880 -0.3995  0.1742 -0.1590
18613TIP3    H177254   3.331   3.846   2.896  0.6977  0.3243 -1.8875
18613TIP3    H277255   3.379   3.708   2.936 -1.9558  0.3303  1.8810
18614TIP3   OH277256   2.684   6.347  12.854  0.1158  0.0537  0.0677
18614TIP3    H177257   2.759   6.308  12.811 -0.2416 -0.1814 -0.3459
18614TIP3    H277258   2.644   6.403  12.787  0.3702  0.7871  0.5197
18615TIP3   OH277259   5.647   2.517  10.614 -0.3089 -0.4320  1.3231
18615TIP3    H177260   5.732   2.558  10.632 -0.0825 -0.6511  0.7819
18615TIP3    H277261   5.669   2.437  10.566 -0.8937  0.2708 -0.1758
18616TIP3   OH277262   5.739   1.359   5.988  0.3742  0.2107 -0.4846
18616TIP3    H177263   5.696   1.438   5.956 -0.8068 -0.5761 -0.9137
18616TIP3    H277264   5.701   1.343   6.074  0.1605 -0.2037 -0.6488
18617TIP3   OH277265   1.039   3.873  15.636  0.1749  0.2275  0.1833
18617TIP3    H177266   1.013   3.908  15.551  1.6785 -1.2421 -0.9603
18617TIP3    H277267   0.959   3.838  15.674 -1.0214  3.1988  0.5922
18618TIP3   OH277268   4.929   5.470   1.371 -0.3577  0.1620  0.5924
18618TIP3    H177269   4.910   5.423   1.452  0.6729 -0.4675  0.4943
18618TIP3    H277270   4.848   5.466   1.321 -0.4830 -1.0016  0.8519
18619TIP3   OH277271   4.113   1.085   5.026  0.1250 -0.1585 -0.0362
18619TIP3    H177272   4.137   1.049   4.941  0.4252 -0.5399  0.2044
18619TIP3    H277273   4.040   1.031   5.055 -0.4365  0.4164 -0.3588
18620TIP3   OH277274   1.019   3.894   3.119  0.1937 -0.6299 -0.2484
18620TIP3    H177275   1.070   3.905   3.199  0.5481  0.2732 -0.5896
18620TIP3    H277276   0.931   3.873   3.151  0.2150  0.1980  0.3989
18621TIP3   OH277277   3.409   4.802   5.501  0.1241 -0.1451 -0.7802
18621TIP3    H177278   3.324   4.758   5.511  0.8014 -1.9784 -2.3763
18621TIP3    H277279   3.473   4.732   5.507  1.4933  1.0738 -0.5908
18622TIP3   OH277280   1.406   1.544  14.193  0.0429 -0.0803 -0.2658
18622TIP3    H177281   1.326   1.596  14.185 -0.0450 -0.3574 -1.2743
18622TIP3    H277282   1.418   1.534  14.288 -0.8874  0.3082 -0.0930
18623TIP3   OH277283   3.457   0.514   6.009  0.3043  0.6290  0.2162
18623TIP3    H177284   3.376   0.474   6.040  0.2656  0.1726 -0.4363
18623TIP3    H277285   3.522   0.495   6.077 -0.2766  1.5568  1.0526
18624TIP3   OH277286   0.738   6.676   3.923  0.1605  0.0930 -0.3245
18624TIP3    H177287   0.750   6.771   3.926  0.9334  0.0013 -0.2589
18624TIP3    H277288   0.827   6.641   3.923 -0.0952 -0.6995  1.7670
18625TIP3   OH277289   4.512   0.731   5.510 -0.0996  0.4209  0.4379
18625TIP3    H177290   4.532   0.688   5.427 -0.9448  1.7872 -0.5122
18625TIP3    H277291   4.476   0.816   5.485 -1.1130  0.5520  2.1945
18626TIP3   OH277292   2.819   6.779   2.844  0.2966  0.2078 -0.0135
18626TIP3    H177293   2.829   6.751   2.935 -0.2443  1.2740  0.3873
18626TIP3    H277294   2.726   6.797   2.834 -0.0139 -1.7816 -1.3690
18627TIP3   OH277295   0.714   3.093  14.880 -0.2009  0.2203  0.3661
18627TIP3    H177296   0.676   3.068  14.963 -1.2643 -1.6403 -0.6193
18627TIP3    H277297   0.789   3.148  14.903  0.6160 -1.6658  2.6486
18628TIP3   OH277298   0.891   3.294   2.459  0.4492 -0.5754  0.0108
18628TIP3    H177299   0.881   3.286   2.364  1.3691 -0.6325 -0.0918
18628TIP3    H277300   0.915   3.206   2.488 -1.5645 -0.9925  0.5532
18629TIP3   OH277301   1.668   2.172  14.454  0.2903 -0.5582  0.6165
18629TIP3    H177302   1.703   2.113  14.521  2.0840 -0.8859 -0.5533
18629TIP3    H277303   1.645   2.115  14.381  1.9303  0.1098 -0.4872
18630TIP3   OH277304   0.907   0.754   5.473 -0.3034 -0.2397 -0.2044
18630TIP3    H177305   0.828   0.803   5.450  0.2801  0.3537 -1.0381
18630TIP3    H277306   0.876   0.681   5.526 -1.6076 -0.9049 -1.7880
18631TIP3   OH277307   4.913   5.077  10.508  0.3523 -0.1799  0.0325
18631TIP3    H177308   4.942   5.163  10.537 -1.0876 -0.2112  1.7523
18631TIP3    H277309   4.817   5.084  10.504  0.2843 -1.3368 -1.0625
18632TIP3   OH277310   1.809   0.703   0.278  0.2512  0.0834 -0.7313
18632TIP3    H177311   1.799   0.764   0.205  1.5478  1.7420  0.3847
18632TIP3    H277312   1.875   0.641   0.248 -0.3477 -0.1882 -1.5175
18633TIP3   OH277313   0.320   3.131  15.179  0.0650 -0.3855 -0.2712
18633TIP3    H177314   0.332   3.074  15.103 -2.1487 -0.7331 -0.4281
18633TIP3    H277315   0.296   3.216  15.143 -1.2898 -0.6297 -0.0012
18634TIP3   OH277316   2.025   0.577  13.809  0.6515 -0.0527 -0.3951
18634TIP3    H177317   2.076   0.654  13.784  2.6746 -0.2017  2.7057
18634TIP3    H277318   1.940   0.611  13.834  0.7584  0.8509 -1.2020
18635TIP3   OH277319   4.359   5.441  12.126 -0.2584  0.2820 -0.0844
18635TIP3    H177320   4.315   5.515  12.169 -1.1966  0.0835 -0.6572
18635TIP3    H277321   4.370   5.470  12.035  1.2505  0.5034  0.1474
18636TIP3   OH277322   6.164   4.752  17.080 -0.5819 -0.2174 -1.0283
18636TIP3    H177323   6.127   4.840  17.084  2.3425  1.0819 -0.0768
18636TIP3    H277324   6.139   4.712  17.163  1.1539  1.1637  0.2455
18637TIP3   OH277325   4.607   0.195  14.446  0.3045 -0.6532  0.4997
18637TIP3    H177326   4.596   0.290  14.445 -1.5230 -0.8384 -0.5035
18637TIP3    H277327   4.546   0.164  14.512  2.8404 -1.0079  2.8434
18638TIP3   OH277328   5.312   3.942  11.286 -0.4744  0.3401 -0.3235
18638TIP3    H177329   5.246   3.956  11.218  0.0480 -1.9673 -1.4198
18638TIP3    H277330   5.391   3.985  11.252 -0.4861  0.0587 -0.7206
18639TIP3   OH277331   3.284   1.579   6.677 -0.2014  0.4554 -0.1865
18639TIP3    H177332   3.251   1.655   6.630  1.5667  1.4791  0.1601
18639TIP3    H277333   3.292   1.511   6.610 -2.9098  0.1162 -0.2890
18640TIP3   OH277334   1.798   4.318   5.628 -0.2352 -0.0501 -0.3727
18640TIP3    H177335   1.848   4.245   5.591 -1.6971 -0.8918 -0.7561
18640TIP3    H277336   1.714   4.279   5.653 -0.0695  0.9430  1.9166
18641TIP3   OH277337   0.992   6.306  11.491  0.4348 -0.1644  0.4936
18641TIP3    H177338   0.909   6.328  11.450  0.5285  0.7693  0.7678
18641TIP3    H277339   0.990   6.353  11.575  1.5746  0.5625  0.1379
18642TIP3   OH277340   2.852   0.315  11.423  0.6043  0.2322 -0.0147
18642TIP3    H177341   2.827   0.371  11.350  0.2578  0.1875  0.0668
18642TIP3    H277342   2.770   0.274  11.451  0.3420  1.8155  1.7122
18643TIP3   OH277343   2.181   0.886   0.218  0.1623  0.2172  0.1470
18643TIP3    H177344   2.106   0.931   0.257  0.6951  0.6824  0.6533
18643TIP3    H277345   2.243   0.955   0.197 -0.7934  0.2066 -3.2415
18644TIP3   OH277346   1.096   3.090   1.246  0.2979 -0.5289  0.2396
18644TIP3    H177347   1.105   3.054   1.334 -4.1350 -2.7141  0.0697
18644TIP3    H277348   1.061   3.017   1.194 -0.0628  1.5127 -2.6065
18645TIP3   OH277349   5.317   4.350  15.807 -0.2910  0.2087  0.5202
18645TIP3    H177350   5.268   4.362  15.889 -0.4941  0.9695  0.2998
18645TIP3    H277351   5.307   4.258  15.786 -1.6741  0.3499  0.4627
18646TIP3   OH277352   3.564   4.842   5.713  0.0233 -0.2670 -0.2389
18646TIP3    H177353   3.519   4.829   5.797 -0.0813  2.6466  0.2681
18646TIP3    H277354   3.494   4.863   5.651  0.3554  0.8170 -0.2662
18647TIP3   OH277355   0.305   3.916  12.247  0.5180 -0.4735  0.1075
18647TIP3    H177356   0.307   3.920  12.151 -0.8923 -0.4915  0.0543
18647TIP3    H277357   0.358   3.991  12.275  0.2442  0.0352 -0.7002
18648TIP3   OH277358   6.644   6.230  13.925  0.2569 -0.0917  0.3016
18648TIP3    H177359   6.568   6.289  13.930 -1.4195 -2.1851  1.1413
18648TIP3    H277360   6.685   6.237  14.011 -0.7721 -1.1315  0.9047
18649TIP3   OH277361   4.401   2.969   2.038 -0.0206  0.2942  0.1570
18649TIP3    H177362   4.474   3.031   2.036  1.1000 -0.9169  1.4530
18649TIP3    H277363   4.442   2.883   2.038 -1.3904 -0.4242  2.1673
18650TIP3   OH277364   4.568   6.157  16.294  0.3497  0.3895  0.4858
18650TIP3    H177365   4.601   6.154  16.204 -1.4134 -0.4712 -0.1903
18650TIP3    H277366   4.554   6.065  16.317 -0.4365  0.6596  1.1445
18651TIP3   OH277367   1.752   1.867   2.411  0.2007  1.1561 -0.7384
18651TIP3    H177368   1.680   1.928   2.429  1.3790  1.7161  2.8816
18651TIP3    H277369   1.819   1.920   2.368 -0.2406  1.4234 -1.1153
18652TIP3   OH277370   4.780   0.809  14.218  0.5954  0.0278 -0.0451
18652TIP3    H177371   4.872   0.809  14.245  0.7018 -1.7827 -0.3295
18652TIP3    H277372   4.764   0.720  14.187 -2.0633 -0.5991  2.7454
18653TIP3   OH277373   3.216   4.879   4.021 -0.1308  0.2551  0.1120
18653TIP3    H177374   3.205   4.884   4.116 -1.1943 -0.3901  0.0432
18653TIP3    H277375   3.148   4.937   3.986 -0.4645 -0.3613 -0.2729
18654TIP3   OH277376   2.036   3.172  10.782  0.3365 -0.1077  0.1631
18654TIP3    H177377   2.055   3.266  10.783 -0.3731  0.0679 -1.2623
18654TIP3    H277378   1.956   3.164  10.730 -1.9155 -1.1214  3.4322
18655TIP3   OH277379   2.447   2.648   5.019  0.1374 -0.2834 -0.1034
18655TIP3    H177380   2.415   2.560   4.995 -0.2042  0.2114 -1.5836
18655TIP3    H277381   2.437   2.699   4.939  0.7155  1.0132  0.6289
18656TIP3   OH277382   1.708   5.626   5.994  0.4958  0.6378 -0.4132
18656TIP3    H177383   1.719   5.648   6.086 -1.3952 -0.8244  0.2214
18656TIP3    H277384   1.793   5.588   5.968  0.7168  0.0770  1.0432
18657TIP3   OH277385   0.385   2.622  13.944  0.4417 -0.3988  0.0352
18657TIP3    H177386   0.292   2.617  13.922  0.3093  1.9455 -0.2242
18657TIP3    H277387   0.429   2.578  13.871 -0.4593 -2.0945  0.4717
18658TIP3   OH277388   4.672   0.253   1.030  0.1721  0.0170  0.2329
18658TIP3    H177389   4.706   0.249   0.940 -0.2876 -3.6281  0.0545
18658TIP3    H277390   4.731   0.197   1.081 -1.5412 -0.8768  1.3660
18659TIP3   OH277391   0.527   1.315   0.049 -0.1405  0.0595  0.1326
18659TIP3    H177392   0.481   1.394   0.077 -0.7259  0.4871 -1.8736
18659TIP3    H277393   0.575   1.342  -0.029  0.7686 -1.2544  0.2008
18660TIP3   OH277394   4.236   5.867   0.737  0.4118  0.7989  0.4677
18660TIP3    H177395   4.279   5.856   0.652 -0.2809  0.2128  0.1925
18660TIP3    H277396   4.309   5.883   0.798  0.8750  1.6968 -0.3034
18661TIP3   OH277397   5.207   1.278  13.514  0.0712 -0.3338 -0.1672
18661TIP3    H177398   5.231   1.329  13.437 -1.7018 -1.5229 -1.5754
18661TIP3    H277399   5.164   1.199  13.479  2.0592 -2.5066  1.9252
18662TIP3   OH277400   1.301   4.716  11.784  0.2800  0.2850  0.2605
18662TIP3    H177401   1.341   4.659  11.849 -1.0436 -1.0151 -0.0232
18662TIP3    H277402   1.295   4.801  11.828  3.0341  0.4898  0.3990
18663TIP3   OH277403   1.465   0.538   2.336  0.3712 -0.2601  0.2827
18663TIP3    H177404   1.518   0.617   2.342 -1.0306  0.6777  1.0255
18663TIP3    H277405   1.433   0.524   2.425 -0.3576 -0.9696 -0.0820
18664TIP3   OH277406   1.747   3.615   2.523  0.0953 -0.1268  0.1331
18664TIP3    H177407   1.707   3.690   2.480 -0.7675  0.6023  2.0896
18664TIP3    H277408   1.731   3.629   2.617  0.4864 -2.4206  0.6116
18665TIP3   OH277409   3.954   6.161   0.336 -0.3258 -1.1487  0.1605
18665TIP3    H177410   3.927   6.242   0.378 -1.8281 -0.2931 -2.2692
18665TIP3    H277411   4.024   6.186   0.276 -0.8423 -1.5773 -0.6574
18666TIP3   OH277412   0.154   2.963   5.972 -0.0983 -0.3872 -0.6962
18666TIP3    H177413   0.242   2.990   5.997 -0.9499  2.7891 -0.6991
18666TIP3    H277414   0.132   2.893   6.034  0.6255  2.1574  2.7385
18667TIP3   OH277415   0.506   0.189  12.415  0.4227 -0.2729 -0.1023
18667TIP3    H177416   0.528   0.202  12.508  0.6520 -1.8639  0.0963
18667TIP3    H277417   0.414   0.164  12.415  0.7818 -1.6948 -0.1340
18668TIP3   OH277418   0.898   6.131  13.516 -0.9347  0.4919  0.3568
18668TIP3    H177419   0.914   6.131  13.422 -1.5790 -0.6155  0.2366
18668TIP3    H277420   0.978   6.169  13.554 -0.2048 -0.0949 -0.5605
18669TIP3   OH277421   2.202   2.084  14.128 -0.4671  0.3422  0.4547
18669TIP3    H177422   2.126   2.044  14.170 -0.6702 -0.1238 -0.3338
18669TIP3    H277423   2.176   2.094  14.036 -0.2338  1.8323  0.5280
18670TIP3   OH277424   4.825   1.535  11.348 -0.1867 -0.3107  0.1832
18670TIP3    H177425   4.792   1.573  11.429 -1.8638 -1.3208  0.0169
18670TIP3    H277426   4.891   1.472  11.376  0.6893  0.7825  0.6188
18671TIP3   OH277427   1.589   3.061   3.310  0.2370 -0.3892 -0.7101
18671TIP3    H177428   1.496   3.074   3.291  0.2064  0.8776  0.1030
18671TIP3    H277429   1.590   3.025   3.399  0.5100 -0.4426 -0.7356
18672TIP3   OH277430   6.374   3.719   1.030  0.2497  0.4007 -0.1845
18672TIP3    H177431   6.407   3.646   0.978  0.0229  0.5017 -0.4718
18672TIP3    H277432   6.293   3.746   0.986  0.2378  0.7092  0.0204
18673TIP3   OH277433   5.894   6.674  14.015  0.0662  0.4911 -0.5773
18673TIP3    H177434   5.916   6.767  14.021 -2.0135  0.9540  0.8395
18673TIP3    H277435   5.842   6.667  13.934 -0.2391  0.6660 -0.3964
18674TIP3   OH277436   1.399   1.925   5.041  0.7677  0.8491  0.1410
18674TIP3    H177437   1.479   1.935   5.093 -0.2929  1.5520  1.7240
18674TIP3    H277438   1.365   2.013   5.031 -0.4664  0.4491  0.5987
18675TIP3   OH277439   5.893   1.628   5.283  0.2044  0.1126 -0.1896
18675TIP3    H177440   5.842   1.559   5.241 -0.0372  0.4700 -0.4896
18675TIP3    H277441   5.982   1.613   5.253  0.2478 -0.3970  0.1814
18676TIP3   OH277442   4.749   3.197  15.603  0.0279  0.1906  0.5415
18676TIP3    H177443   4.749   3.108  15.639 -1.3569  0.4687  1.3117
18676TIP3    H277444   4.822   3.198  15.541  0.8403 -1.1080  1.4148
18677TIP3   OH277445   0.942   0.951  11.747  0.1900  0.0520  0.1156
18677TIP3    H177446   1.004   0.991  11.808  1.1241  0.5921 -1.1491
18677TIP3    H277447   0.889   1.024  11.716 -0.0023 -0.1487 -0.0298
18678TIP3   OH277448   0.611   3.290   2.901  0.5222 -0.7318 -0.0730
18678TIP3    H177449   0.585   3.268   2.811 -0.0790 -2.5105  0.4916
18678TIP3    H277450   0.662   3.214   2.930 -0.6792 -0.9324  1.6321
18679TIP3   OH277451   4.676   5.061   4.048  0.2261  0.2074 -0.2084
18679TIP3    H177452   4.739   5.034   4.115  0.5294  0.4640 -0.3886
18679TIP3    H277453   4.729   5.073   3.969  0.2766  2.3010  0.0900
18680TIP3   OH277454   4.605   3.471  12.035  0.0789 -0.3443  0.0191
18680TIP3    H177455   4.528   3.415  12.034 -0.2741  0.0415  1.9008
18680TIP3    H277456   4.616   3.500  11.945 -2.7750  0.6429 -0.0960
18681TIP3   OH277457   0.134   1.514   4.161 -0.1861 -0.2257 -0.0265
18681TIP3    H177458   0.137   1.576   4.089  0.1694  0.0865  0.2557
18681TIP3    H277459   0.213   1.530   4.211  0.2399 -1.3401 -0.3016
18682TIP3   OH277460   4.004   0.989  10.991  0.1153 -0.3510  0.4359
18682TIP3    H177461   3.973   1.074  10.960  0.2795 -0.1389  0.8258
18682TIP3    H277462   3.929   0.951  11.036 -1.2827 -2.2369 -3.1248
18683TIP3   OH277463   4.986   3.817   6.502  0.5379  0.0471  0.2972
18683TIP3    H177464   4.896   3.828   6.531  0.3596  1.9485 -0.8548
18683TIP3    H277465   5.018   3.743   6.553 -0.9817  0.7031  2.3313
18684TIP3   OH277466   6.044   4.372  15.583  0.4655  0.5197 -0.2386
18684TIP3    H177467   5.984   4.410  15.519  1.5777  0.4434 -1.3639
18684TIP3    H277468   6.039   4.278  15.567 -0.1068  0.3980  0.5833
18685TIP3   OH277469   1.041   1.218   3.819 -0.1622 -0.4296  0.5346
18685TIP3    H177470   1.078   1.230   3.906  0.0856 -1.4442  0.5783
18685TIP3    H277471   0.947   1.205   3.834  0.0494 -1.8744  0.7861
18686TIP3   OH277472   5.622   3.586   5.201 -0.4609  0.1425 -0.2760
18686TIP3    H177473   5.707   3.629   5.196 -0.0199 -0.5981  0.4088
18686TIP3    H277474   5.573   3.620   5.127  0.5248  0.3900 -0.8404
18687TIP3   OH277475   1.327   0.056  15.044  0.3072  0.3671 -0.1153
18687TIP3    H177476   1.354   0.112  15.117  1.1360 -0.4336  0.2182
18687TIP3    H277477   1.356  -0.032  15.069  0.5123  0.0569 -1.3621
18688TIP3   OH277478   0.624   5.279   5.348 -0.3185  0.4392  0.7627
18688TIP3    H177479   0.575   5.245   5.273  0.8911  0.4586 -0.0741
18688TIP3    H277480   0.655   5.202   5.394  0.4328  0.4011  0.2123
18689TIP3   OH277481   3.991   4.171   5.891  0.4449 -0.4898  0.0288
18689TIP3    H177482   3.964   4.261   5.872  0.5489 -0.2386  0.9751
18689TIP3    H277483   3.915   4.117   5.867  0.7184 -0.2613 -1.4170
18690TIP3   OH277484   1.834   4.908  14.839 -0.1969  0.4377  0.5314
18690TIP3    H177485   1.743   4.878  14.836 -0.6927  1.8314  0.8536
18690TIP3    H277486   1.842   4.954  14.923  0.7446  0.5316  0.4066
18691TIP3   OH277487   1.631   1.321   2.805  0.0435 -0.4952  0.5304
18691TIP3    H177488   1.662   1.354   2.720 -0.0576  0.5417  0.8721
18691TIP3    H277489   1.545   1.363   2.815  1.1352  1.5262  2.2941
18692TIP3   OH277490   0.174   5.099   0.643 -0.0165 -0.0205  0.3290
18692TIP3    H177491   0.234   5.135   0.578  1.3535 -3.0926 -0.2958
18692TIP3    H277492   0.227   5.034   0.691 -2.1087 -0.8735  1.6458
18693TIP3   OH277493   5.921   3.730   4.798  0.3310 -0.2955  1.0145
18693TIP3    H177494   6.002   3.758   4.840  0.5402 -0.5466  0.7772
18693TIP3    H277495   5.948   3.665   4.734  0.1287  0.7406 -0.1726
18694TIP3   OH277496   3.698   1.612  14.455  0.6749  0.2398  0.5040
18694TIP3    H177497   3.685   1.521  14.483  0.3152 -0.6215 -2.1269
18694TIP3    H277498   3.769   1.607  14.391  1.7727  2.1186  1.4800
18695TIP3   OH277499   5.109   1.626   1.383 -0.6809 -0.0942  0.1577
18695TIP3    H177500   5.122   1.614   1.289 -0.4252 -0.8821  0.2922
18695TIP3    H277501   5.080   1.540   1.415 -0.1412 -0.0093  0.9057
18696TIP3   OH277502   4.582   5.781   0.155 -0.2770  0.4090 -0.4055
18696TIP3    H177503   4.648   5.847   0.131  0.2614  1.8967  4.1824
18696TIP3    H277504   4.632   5.710   0.195 -1.2131 -0.4932 -0.7859
18697TIP3   OH277505   4.034   4.602  10.814 -0.0068  0.1786 -0.3385
18697TIP3    H177506   4.066   4.521  10.853 -0.5728  0.5500  0.9381
18697TIP3    H277507   4.057   4.670  10.877 -0.2128  0.9148 -1.0380
18698TIP3   OH277508   6.113   5.076  12.586  0.6874  0.7941 -0.6711
18698TIP3    H177509   6.125   4.985  12.613 -0.2573  0.6929 -0.5658
18698TIP3    H277510   6.041   5.072  12.522  0.8567  1.4273 -0.9062
18699TIP3   OH277511   2.326   6.655   4.868 -0.2116 -0.3293 -0.0635
18699TIP3    H177512   2.237   6.685   4.882 -0.2341  0.1238 -1.1485
18699TIP3    H277513   2.350   6.688   4.782  1.7265  1.3280  1.0268
18700TIP3   OH277514   0.699   2.732  13.584 -0.0722 -0.9096  0.7851
18700TIP3    H177515   0.698   2.815  13.535  0.5058 -0.7647  1.0093
18700TIP3    H277516   0.790   2.702  13.578  0.0204 -0.8707  1.7839
18701TIP3   OH277517   0.660   0.477  14.595  1.0080 -0.5010 -0.2719
18701TIP3    H177518   0.728   0.526  14.641  2.0245 -1.1420 -1.0528
18701TIP3    H277519   0.691   0.386  14.596 -0.0700 -0.8883 -0.2394
18702TIP3   OH277520   5.750   4.201  17.118 -0.0636  0.3245  0.3716
18702TIP3    H177521   5.770   4.156  17.201  1.2139  0.4887  0.1818
18702TIP3    H277522   5.813   4.164  17.056 -1.1922  0.0067 -0.6008
18703TIP3   OH277523   1.210   0.310   1.546 -0.0151  0.2397  0.5956
18703TIP3    H177524   1.291   0.264   1.523 -0.7811 -1.0792  0.3993
18703TIP3    H277525   1.177   0.345   1.463 -0.4504 -0.6239  0.3836
18704TIP3   OH277526   0.562   6.451  14.551 -0.0913  0.1322  0.2693
18704TIP3    H177527   0.607   6.536  14.548  2.1623 -0.9358  1.1130
18704TIP3    H277528   0.564   6.420  14.460 -0.2268  0.6555  0.0866
18705TIP3   OH277529   1.117   2.127  14.834  0.3811  0.1680  0.0936
18705TIP3    H177530   1.189   2.072  14.804  1.4833  0.8962  1.2937
18705TIP3    H277531   1.105   2.102  14.926 -1.5171 -0.5642 -0.3150
18706TIP3   OH277532   6.563   4.700   2.109  0.1892  0.0947 -0.0308
18706TIP3    H177533   6.480   4.661   2.081  1.0554 -2.1948  0.4456
18706TIP3    H277534   6.543   4.739   2.195 -1.0279  2.0759 -1.1347
18707TIP3   OH277535   4.461   3.226  16.696  0.7046 -0.2749 -0.3483
18707TIP3    H177536   4.372   3.191  16.692  0.7009 -0.5158  1.2405
18707TIP3    H277537   4.515   3.153  16.726  1.1999  0.2374  0.0478
18708TIP3   OH277538   3.253   6.505  14.111 -0.4095 -0.0457 -0.4138
18708TIP3    H177539   3.307   6.495  14.033 -1.2009 -0.4827 -0.9217
18708TIP3    H277540   3.185   6.437  14.102 -0.9960  0.4377  0.2415
18709TIP3   OH277541   6.014   0.160  11.583 -0.1954 -0.1613  0.1091
18709TIP3    H177542   5.923   0.134  11.591 -0.3129  0.1315 -0.2447
18709TIP3    H277543   6.010   0.254  11.564  0.1878 -0.0848  0.3953
18710TIP3   OH277544   6.231   5.408  16.634  0.0784  0.5011  0.6310
18710TIP3    H177545   6.156   5.348  16.630 -0.4671  1.1892  0.1325
18710TIP3    H277546   6.283   5.387  16.557  0.2088  0.2515  0.7896
18711TIP3   OH277547   3.719   4.522  15.435 -0.3905 -0.0105 -0.0860
18711TIP3    H177548   3.659   4.527  15.510 -0.9832 -0.6618 -0.5122
18711TIP3    H277549   3.758   4.435  15.442 -1.5130 -0.6379 -1.3316
18712TIP3   OH277550   5.607   5.889  14.769 -0.4425 -0.5413 -0.0729
18712TIP3    H177551   5.681   5.942  14.737  0.9151 -2.2652  0.0456
18712TIP3    H277552   5.627   5.800  14.740 -1.1764 -1.4970  2.1612
18713TIP3   OH277553   4.499   0.506  14.533  0.2827 -0.3559 -0.3068
18713TIP3    H177554   4.498   0.598  14.506  1.5384  0.0126  0.7511
18713TIP3    H277555   4.592   0.488  14.550 -0.3370 -0.5197  3.6447
18714TIP3   OH277556   6.117   4.910   2.497 -0.7786 -0.0538 -0.2173
18714TIP3    H177557   6.111   4.898   2.403  0.8551 -3.3809 -0.0540
18714TIP3    H277558   6.211   4.909   2.516 -1.0863 -0.3517  1.5116
18715TIP3   OH277559   2.912   3.877  12.353 -0.1564  0.0213 -0.0017
18715TIP3    H177560   2.829   3.831  12.360 -0.7847  1.2241  0.9638
18715TIP3    H277561   2.978   3.812  12.378 -0.5771 -1.4374 -2.3478
18716TIP3   OH277562   6.652   3.845   1.846  0.3291 -0.5944  0.4781
18716TIP3    H177563   6.583   3.789   1.882 -1.1178  1.0884  0.4865
18716TIP3    H277564   6.731   3.792   1.850 -0.7392 -2.1958  1.5662
18717TIP3   OH277565   0.083   0.237  11.575 -0.0346 -0.0361  0.5468
18717TIP3    H177566   0.147   0.166  11.566 -0.0702 -0.0390  0.3194
18717TIP3    H277567   0.073   0.272  11.487 -0.2604  0.0411  0.6031
18718TIP3   OH277568   6.335   6.524   3.499 -0.0200  0.4917 -0.0870
18718TIP3    H177569   6.284   6.446   3.519 -0.4222  1.1115  1.4068
18718TIP3    H277570   6.421   6.507   3.536  0.9387 -0.5414 -2.5813
18719TIP3   OH277571   4.925   5.109   0.715  0.7283  0.3931 -0.8372
18719TIP3    H177572   4.854   5.098   0.778  0.6435  2.5515 -0.4930
18719TIP3    H277573   4.993   5.050   0.745 -0.6838 -1.3307 -0.8679
18720TIP3   OH277574   0.732   2.847   3.180 -0.4526  0.2538 -0.8626
18720TIP3    H177575   0.705   2.905   3.109 -0.2679 -2.1859 -3.0431
18720TIP3    H277576   0.659   2.786   3.191 -0.9267  1.1710  1.8459
18721TIP3   OH277577   5.993   5.158  10.111  0.6445  0.2689 -0.1127
18721TIP3    H177578   5.961   5.075  10.075  1.1482 -0.2386  0.5657
18721TIP3    H277579   5.958   5.225  10.053  0.9702 -0.4766 -1.2032
18722TIP3   OH277580   0.331   1.515  16.341 -0.0182 -0.7806 -0.2359
18722TIP3    H177581   0.280   1.569  16.280  0.6387  0.9420  0.6924
18722TIP3    H277582   0.280   1.515  16.422  0.1701 -1.2667 -0.1132
18723TIP3   OH277583   4.533   0.362  15.276 -0.3254 -0.0920  0.7524
18723TIP3    H177584   4.565   0.403  15.196 -1.4221 -0.1487  0.2649
18723TIP3    H277585   4.609   0.362  15.335  1.3870 -2.6035 -1.1999
18724TIP3   OH277586   0.634   5.913   3.460 -0.4969  0.3669  0.1746
18724TIP3    H177587   0.668   5.998   3.486 -0.2590  0.2313  0.3112
18724TIP3    H277588   0.711   5.865   3.429 -0.5258 -0.0187  0.6868
18725TIP3   OH277589   5.414   6.454  11.740 -0.1853 -0.7029  0.2443
18725TIP3    H177590   5.380   6.543  11.746 -2.3732 -1.4459 -0.4631
18725TIP3    H277591   5.462   6.453  11.658  1.2367  0.2167  1.0120
18726TIP3   OH277592   0.672   1.504  16.211  0.5538  0.0340  0.4029
18726TIP3    H177593   0.728   1.579  16.193  1.1552 -0.0808  1.6633
18726TIP3    H277594   0.732   1.429  16.205  0.8827  0.0052  2.9583
18727TIP3   OH277595   5.297   3.060  13.187 -0.0512  0.0982  0.7616
18727TIP3    H177596   5.222   3.086  13.242  0.0988  0.8748  0.6114
18727TIP3    H277597   5.367   3.042  13.250 -0.0925  0.2735  0.8586
18728TIP3   OH277598   0.052   6.459  14.532 -0.1795  0.3951  0.5451
18728TIP3    H177599   0.128   6.435  14.480  0.9731  2.8204  0.9651
18728TIP3    H277600   0.054   6.401  14.608  0.6867 -0.1861  0.0865
18729TIP3   OH277601   2.729   4.929  17.106  0.3540 -0.1582  0.1621
18729TIP3    H177602   2.634   4.935  17.100  0.1611 -0.6793  1.9661
18729TIP3    H277603   2.752   4.985  17.181  1.1465 -1.9876  1.3659
18730TIP3   OH277604   1.222   0.892   1.007  0.5636  0.0057 -1.2040
18730TIP3    H177605   1.186   0.955   0.944 -2.3625  2.4613  2.4630
18730TIP3    H277606   1.145   0.848   1.043  1.7616  0.2940  2.0413
18731TIP3   OH277607   2.801   6.013  10.668  0.3246  0.0967 -0.2681
18731TIP3    H177608   2.829   6.027  10.578  0.2747  0.2777 -0.2569
18731TIP3    H277609   2.783   5.920  10.675  2.6394 -0.3770  0.1898
18732TIP3   OH277610   3.465   2.431  14.059  0.4323  0.1100 -0.4396
18732TIP3    H177611   3.538   2.420  13.999 -1.2373 -1.5050 -2.3325
18732TIP3    H277612   3.504   2.426  14.146  2.6694  0.3615 -1.3630
18733TIP3   OH277613   5.723   0.674   3.658  0.4615  0.2532 -0.1783
18733TIP3    H177614   5.681   0.667   3.572  1.5389 -0.0538 -0.6951
18733TIP3    H277615   5.808   0.632   3.647 -0.1182 -1.5241  1.5622
18734TIP3   OH277616   0.616   0.965  17.108  0.1862 -0.3412 -0.0433
18734TIP3    H177617   0.686   0.910  17.074  0.7842 -0.1095  0.7614
18734TIP3    H277618   0.662   1.031  17.161 -0.4271  1.4792 -1.6770
18735TIP3   OH277619   2.168   3.337  16.355 -0.0107 -0.1066  0.2524
18735TIP3    H177620   2.215   3.385  16.424  0.6814 -1.4568  0.7594
18735TIP3    H277621   2.076   3.339  16.383  0.4193 -1.9086  2.0806
18736TIP3   OH277622   3.341   2.246   0.839  0.0278  0.0806  0.7277
18736TIP3    H177623   3.345   2.153   0.863  0.3865  0.2575  1.3601
18736TIP3    H277624   3.421   2.261   0.789 -1.7767 -0.8691 -2.8133
18737TIP3   OH277625   6.251   1.174   2.079  0.1345 -0.7289 -0.4514
18737TIP3    H177626   6.178   1.114   2.066 -0.7854  0.2946 -0.1188
18737TIP3    H277627   6.211   1.256   2.107  1.4689 -0.3761  0.5393
18738TIP3   OH277628   5.139   6.605  14.896 -0.3215 -0.2212  0.3028
18738TIP3    H177629   5.059   6.575  14.854 -0.8622 -1.0886  1.8618
18738TIP3    H277630   5.144   6.555  14.978  1.4003  0.3768  0.6218
18739TIP3   OH277631   2.538   3.732   3.629  0.1542 -0.2595 -0.7865
18739TIP3    H177632   2.461   3.695   3.587 -0.3156  2.0085 -2.0912
18739TIP3    H277633   2.534   3.825   3.608  3.5770 -0.1414 -1.4369
18740TIP3   OH277634   6.384   3.626   4.164  0.6360 -0.2388  0.0756
18740TIP3    H177635   6.344   3.630   4.077 -2.5950 -0.6173  1.3883
18740TIP3    H277636   6.356   3.706   4.207  1.6668 -0.3469  1.0013
18741TIP3   OH277637   5.508   3.357  15.618 -0.0433  0.0968  0.3003
18741TIP3    H177638   5.522   3.426  15.553  2.1236 -0.4490  0.1290
18741TIP3    H277639   5.446   3.396  15.680 -0.9823  1.1782 -1.2530
18742TIP3   OH277640   2.212   2.881   2.019  0.6752  0.0343 -0.2943
18742TIP3    H177641   2.194   2.975   2.023  4.5497  0.9435  2.6222
18742TIP3    H277642   2.307   2.876   2.007  0.4533 -3.6201 -1.7596
18743TIP3   OH277643   5.561   6.251  17.064  0.1019 -0.1563  0.0768
18743TIP3    H177644   5.544   6.257  16.970  1.4472  0.8290 -0.1554
18743TIP3    H277645   5.510   6.322  17.102  1.5679  1.1731 -0.2945
18744TIP3   OH277646   4.699   1.229  13.976  0.5336  0.3955  0.3826
18744TIP3    H177647   4.712   1.134  13.980 -0.8196  0.1141 -0.8510
18744TIP3    H277648   4.652   1.251  14.056  1.4253  0.1424  0.9846
18745TIP3   OH277649   0.847   0.590  16.305 -0.0857  0.2406 -0.0766
18745TIP3    H177650   0.772   0.538  16.333  0.7663 -1.5651 -0.9951
18745TIP3    H277651   0.851   0.663  16.367 -1.7074 -0.4313  0.8618
18746TIP3   OH277652   3.665   5.109   3.199  0.3291  0.1521 -0.3119
18746TIP3    H177653   3.694   5.192   3.160 -0.3497 -0.1962 -1.6180
18746TIP3    H277654   3.723   5.043   3.161  0.0849 -0.1165 -0.2201
18747TIP3   OH277655   4.898   0.190  16.196 -0.1315  0.4165  0.0546
18747TIP3    H177656   4.992   0.178  16.194 -0.1111 -0.0979  2.0576
18747TIP3    H277657   4.885   0.278  16.233 -0.4163 -0.0799  1.1896
18748TIP3   OH277658   3.721   5.169   4.741 -0.2263  0.2986 -0.5922
18748TIP3    H177659   3.690   5.206   4.658  1.9417 -1.4329 -2.3112
18748TIP3    H277660   3.641   5.147   4.789 -1.6192 -0.3844 -3.0481
18749TIP3   OH277661   5.122   2.710  14.012 -0.3287 -0.3716  0.8465
18749TIP3    H177662   5.177   2.634  13.990 -0.0253 -0.1934  0.9830
18749TIP3    H277663   5.117   2.760  13.931 -0.3655 -0.4339  0.8096
18750TIP3   OH277664   5.358   6.719  12.710  0.0783 -0.1541  0.0935
18750TIP3    H177665   5.368   6.788  12.645  0.9586  0.6568  1.0714
18750TIP3    H277666   5.445   6.706  12.746 -0.4015 -0.5422  1.1595
18751TIP3   OH277667   1.866   2.280  16.944 -0.0640  0.0201 -0.4159
18751TIP3    H177668   1.852   2.346  16.875 -0.5931 -0.2884 -0.6023
18751TIP3    H277669   1.821   2.202  16.912  1.5951 -0.8370 -0.7932
18752TIP3   OH277670   3.842   6.218  14.064  0.2455 -0.0153  0.2520
18752TIP3    H177671   3.817   6.125  14.070 -0.4002  0.1481  0.1315
18752TIP3    H277672   3.906   6.230  14.134 -0.1034 -0.4152  0.6455
18753TIP3   OH277673   1.122   6.513   2.008 -0.7804 -0.0824  0.6516
18753TIP3    H177674   1.154   6.603   1.996 -0.2899 -0.3590 -0.1651
18753TIP3    H277675   1.176   6.460   1.949 -0.8531 -0.9652  1.3602
18754TIP3   OH277676   1.002   0.900  11.001 -0.3754  0.5773  0.5186
18754TIP3    H177677   1.077   0.902  10.941 -0.6901 -0.9362  0.0169
18754TIP3    H277678   1.042   0.889  11.088 -0.0004 -1.2322  0.1607
18755TIP3   OH277679   1.964   6.701   3.098  0.3890  0.5164 -0.1346
18755TIP3    H177680   2.060   6.694   3.093  0.3274 -1.8044  0.8761
18755TIP3    H277681   1.945   6.702   3.192 -0.5731  2.0836 -0.2995
18756TIP3   OH277682   4.495   1.231  14.159 -0.2197 -0.0265  0.0792
18756TIP3    H177683   4.481   1.259  14.069  0.3375  1.6220  0.4670
18756TIP3    H277684   4.524   1.140  14.152  0.1679  0.1854 -1.4149
18757TIP3   OH277685   3.411   5.903  14.414 -0.3970 -0.5552  0.1344
18757TIP3    H177686   3.394   5.990  14.449 -0.1608 -1.2600  2.1015
18757TIP3    H277687   3.466   5.861  14.480 -0.2198 -2.0863 -0.9434
18758TIP3   OH277688   2.850   1.649  12.863 -0.2678  0.6732 -0.2586
18758TIP3    H177689   2.906   1.717  12.826  1.9039 -0.6835  0.4095
18758TIP3    H277690   2.843   1.672  12.956  0.9114 -0.2702  0.0792
18759TIP3   OH277691   0.054   2.006  11.620 -0.5070  0.1878  0.1226
18759TIP3    H177692   0.015   1.936  11.567  1.0296  0.5215 -1.5395
18759TIP3    H277693   0.081   2.072  11.556  1.4418  0.6145  1.3097
18760TIP3   OH277694   6.068   0.327   6.396  0.0848  0.1897  0.3129
18760TIP3    H177695   6.056   0.239   6.360  0.2786  1.2062 -2.4732
18760TIP3    H277696   6.159   0.349   6.376 -0.2086  1.3471  0.1871
18761TIP3   OH277697   3.944   0.785  15.021  0.3853  0.3430 -0.4270
18761TIP3    H177698   4.036   0.783  14.995  0.7653  1.2724  0.7858
18761TIP3    H277699   3.928   0.876  15.046 -1.2440  0.5085 -1.8583
18762TIP3   OH277700   4.706   2.356  11.939 -0.0647 -0.2112  0.0996
18762TIP3    H177701   4.629   2.404  11.910 -0.3929 -0.9228 -0.2294
18762TIP3    H277702   4.697   2.269  11.900  0.5735 -0.5092  0.5850
18763TIP3   OH277703   2.793   3.733  14.099 -0.7976  0.1501  1.0347
18763TIP3    H177704   2.787   3.826  14.076 -1.8770 -0.3120 -0.7535
18763TIP3    H277705   2.729   3.690  14.042  0.9049 -1.9201  0.5544
18764TIP3   OH277706   3.606   1.141  16.072  0.1078 -0.4267 -0.0090
18764TIP3    H177707   3.533   1.145  16.134 -0.5340 -3.1814 -0.4289
18764TIP3    H277708   3.656   1.064  16.099  0.8041 -0.6714 -1.8415
18765TIP3   OH277709   6.159   1.563   2.091  0.0810  0.0435  0.4229
18765TIP3    H177710   6.148   1.476   2.129  2.9576  0.3208  2.1672
18765TIP3    H277711   6.231   1.553   2.029  0.0329  1.0791  0.1818
18766TIP3   OH277712   6.610   2.799  16.660 -0.0645  0.0335  0.0386
18766TIP3    H177713   6.674   2.781  16.591 -2.0741 -0.1561 -1.9203
18766TIP3    H277714   6.592   2.892  16.653 -2.6815 -0.4894 -2.1213
18767TIP3   OH277715   1.465   1.037   4.753  0.7320 -0.1658 -0.1984
18767TIP3    H177716   1.383   1.087   4.746  0.5214 -0.2698  1.2011
18767TIP3    H277717   1.518   1.068   4.680  0.6133  2.1580  0.6115
18768TIP3   OH277718   0.562   0.493  15.456 -0.3719  0.3004  0.6306
18768TIP3    H177719   0.540   0.576  15.501  0.5366  1.3217 -0.7350
18768TIP3    H277720   0.497   0.485  15.387 -0.3239 -0.0268  0.6209
18769TIP3   OH277721   2.994   5.914  12.868  0.1632  0.4250 -0.2119
18769TIP3    H177722   2.983   5.819  12.863 -1.3342  0.4401  1.4914
18769TIP3    H277723   3.079   5.926  12.911 -0.0360 -0.1843  0.3683
18770TIP3   OH277724   1.776   3.162  15.477 -0.1340  0.1088  0.7188
18770TIP3    H177725   1.769   3.091  15.413  1.4981  0.2946  0.2725
18770TIP3    H277726   1.715   3.229  15.445  0.7325  0.2448 -0.7642
18771TIP3   OH277727   4.752   6.773  13.904  0.3884 -0.1626  0.2394
18771TIP3    H177728   4.680   6.754  13.844  1.4934  0.0621 -1.1954
18771TIP3    H277729   4.752   6.698  13.964 -1.3313  0.0699  0.6125
18772TIP3   OH277730   0.383   6.511   2.584 -0.0761  0.0275 -0.5363
18772TIP3    H177731   0.342   6.584   2.538  0.8107  0.5161 -0.5834
18772TIP3    H277732   0.436   6.553   2.652 -1.8840 -0.6943  1.4187
18773TIP3   OH277733   3.062   5.242  13.029  0.2073  0.4307  0.6571
18773TIP3    H177734   2.977   5.220  13.067 -0.3398  1.0880 -0.1554
18773TIP3    H277735   3.042   5.274  12.941  1.3300  0.2622  0.3192
18774TIP3   OH277736   1.995   1.661  14.045  0.1585  0.0456  0.4038
18774TIP3    H177737   2.072   1.628  14.000  0.0248 -0.5648  0.6196
18774TIP3    H277738   1.981   1.600  14.118  0.4167  1.0496  1.3312
18775TIP3   OH277739   0.860   6.509  13.862  0.1134 -0.1067 -0.7567
18775TIP3    H177740   0.844   6.601  13.882  1.4806 -0.1428  0.6787
18775TIP3    H277741   0.937   6.509  13.805 -0.0415 -0.3486 -0.9705
18776TIP3   OH277742   0.927   0.114   1.494 -0.8465 -0.3185  0.0500
18776TIP3    H177743   0.921   0.102   1.399 -1.6255  2.9185 -0.4342
18776TIP3    H277744   1.008   0.164   1.506 -0.8965 -0.4712  1.0558
18777TIP3   OH277745   0.940   5.182  10.686 -0.3385  0.6513 -0.0443
18777TIP3    H177746   0.907   5.250  10.744  0.4104 -0.6899  2.0506
18777TIP3    H277747   0.862   5.147  10.642 -1.4566 -0.5584  2.6955
18778TIP3   OH277748   3.051   4.270   0.202  0.3512 -0.0067  0.3681
18778TIP3    H177749   2.962   4.262   0.237  0.4202  3.3994  1.7748
18778TIP3    H277750   3.103   4.299   0.277  2.3869 -0.6856 -0.7274
18779TIP3   OH277751   3.122   1.237   4.857 -0.3766 -0.5226  0.2350
18779TIP3    H177752   3.107   1.269   4.945 -0.1822  0.3014 -0.0181
18779TIP3    H277753   3.116   1.315   4.802 -0.4548 -1.0181 -0.4743
18780TIP3   OH277754   2.620   6.286   3.536  0.2656 -0.4193 -0.4301
18780TIP3    H177755   2.711   6.289   3.505  0.6991 -0.0171  0.7885
18780TIP3    H277756   2.627   6.242   3.621 -0.7820 -0.9923 -0.6318
18781TIP3   OH277757   4.616   4.146   0.164  0.5392  0.3694 -0.2309
18781TIP3    H177758   4.641   4.227   0.209 -2.1263  1.4358 -0.4726
18781TIP3    H277759   4.588   4.174   0.077 -1.4397 -0.6064  0.0328
18782TIP3   OH277760   0.629   2.134  13.200  0.2356  0.5946 -0.1929
18782TIP3    H177761   0.584   2.090  13.273 -1.8474  2.0047 -0.5172
18782TIP3    H277762   0.594   2.223  13.202  0.5806  0.8318 -2.5550
18783TIP3   OH277763   2.595   1.213  13.494 -0.3052 -0.1434  0.0499
18783TIP3    H177764   2.562   1.261  13.570 -0.5999 -1.6418  0.9146
18783TIP3    H277765   2.670   1.264  13.464 -0.6584  0.8979  0.8622
18784TIP3   OH277766   1.499   0.520  12.693  0.5065 -0.2398  0.6497
18784TIP3    H177767   1.487   0.500  12.786 -0.7758 -0.5392  0.4362
18784TIP3    H277768   1.413   0.504  12.653  1.0605 -0.2127 -0.6094
18785TIP3   OH277769   2.476   6.049   2.776 -0.2991  0.7478 -0.2787
18785TIP3    H177770   2.513   6.126   2.732 -0.3646 -0.5217 -2.7204
18785TIP3    H277771   2.551   6.010   2.822  0.4524  0.6426 -1.5287
18786TIP3   OH277772   2.265   5.153   0.344 -0.1881  0.2276 -0.0736
18786TIP3    H177773   2.207   5.077   0.345 -1.7968  1.4079 -0.0730
18786TIP3    H277774   2.300   5.155   0.255 -2.3576  1.0681 -0.9671
18787TIP3   OH277775   3.053   4.092  15.694  0.0739  0.6869 -0.3566
18787TIP3    H177776   3.139   4.076  15.656 -0.8436 -0.0783 -2.2745
18787TIP3    H277777   3.027   4.007  15.730 -0.5615  0.4433 -1.3421
18788TIP3   OH277778   3.270   4.641  11.232 -0.1389  0.1534 -0.3353
18788TIP3    H177779   3.298   4.552  11.256 -0.7011 -1.0840 -3.7414
18788TIP3    H277780   3.348   4.683  11.196 -0.1852  0.5689  0.0422
18789TIP3   OH277781   2.916   5.356  14.421 -0.3326  0.1030  0.0636
18789TIP3    H177782   2.942   5.400  14.340  2.8305 -0.3102  0.7422
18789TIP3    H277783   2.978   5.387  14.487 -2.1054 -0.4437  2.1139
18790TIP3   OH277784   2.648   0.758   0.567  0.1662  0.4970 -0.0281
18790TIP3    H177785   2.628   0.799   0.652 -0.1242 -0.0299  0.1599
18790TIP3    H277786   2.701   0.682   0.589 -1.0945 -0.4644 -0.1912
18791TIP3   OH277787   4.741   0.035  14.253 -0.1889 -0.5859 -0.2307
18791TIP3    H177788   4.798   0.004  14.324  0.6779  0.5023 -0.4152
18791TIP3    H277789   4.689   0.105  14.293 -0.3572 -0.5934 -0.4345
18792TIP3   OH277790   5.133   3.526   0.236 -0.2647  0.1524 -0.0282
18792TIP3    H177791   5.104   3.441   0.203 -1.2916  0.8100 -0.9201
18792TIP3    H277792   5.199   3.506   0.302 -0.2297 -1.3166 -0.4808
18793TIP3   OH277793   4.271   0.745   4.739 -0.3516  0.0841 -0.4181
18793TIP3    H177794   4.316   0.786   4.665  0.3636 -0.5089 -0.3180
18793TIP3    H277795   4.199   0.805   4.759 -0.7982  0.0539 -1.8451
18794TIP3   OH277796   6.406   3.218  12.695  0.2492 -0.2465 -0.1617
18794TIP3    H177797   6.481   3.234  12.639  1.3204  1.1832  1.5582
18794TIP3    H277798   6.413   3.125  12.719  1.9179  0.0077  0.5167
18795TIP3   OH277799   4.946   3.786   2.263  0.3935  0.1564 -0.2669
18795TIP3    H177800   4.983   3.864   2.305 -1.4170  1.5400 -1.0609
18795TIP3    H277801   4.959   3.716   2.326  0.2519  1.5546  1.3931
18796TIP3   OH277802   0.335   3.710   4.679  0.4801 -0.3944 -0.0044
18796TIP3    H177803   0.265   3.773   4.694  0.2439 -0.3339 -1.2251
18796TIP3    H277804   0.410   3.763   4.651  0.4533 -0.5930 -0.4742
18797TIP3   OH277805   1.527   3.677  15.692 -0.3944 -0.3887  0.0578
18797TIP3    H177806   1.456   3.730  15.657 -0.1773  0.4650  0.8474
18797TIP3    H277807   1.606   3.715  15.654 -0.3188 -1.0058 -0.4138
18798TIP3   OH277808   2.592   0.365   0.802  0.3507  0.0735  0.5829
18798TIP3    H177809   2.575   0.405   0.717 -0.6814  0.2298  0.8628
18798TIP3    H277810   2.645   0.429   0.848  0.2289  0.3357  0.3612
18799TIP3   OH277811   5.690   0.606   1.053 -0.5870  0.9828 -0.3327
18799TIP3    H177812   5.613   0.662   1.057  0.3305  2.2481  0.2346
18799TIP3    H277813   5.735   0.632   0.972 -0.9266 -0.0193 -0.8656
18800TIP3   OH277814   4.315   1.788  12.647 -0.5691 -0.0310  0.2877
18800TIP3    H177815   4.343   1.826  12.564  0.1545  0.1055  0.5860
18800TIP3    H277816   4.384   1.812  12.709  0.3123 -2.4399  0.3538
18801TIP3   OH277817   5.353   3.599   5.071  0.3470 -0.4261 -0.5421
18801TIP3    H177818   5.259   3.607   5.059  0.2434 -1.1492 -0.2588
18801TIP3    H277819   5.363   3.543   5.148  0.9996  1.2020  0.6188
18802TIP3   OH277820   3.106   3.449  16.439  0.4163 -0.7808 -0.1847
18802TIP3    H177821   3.165   3.475  16.510 -1.1889  0.3866  0.7546
18802TIP3    H277822   3.129   3.506  16.366 -0.0441  0.1919  0.4210
18803TIP3   OH277823   6.194   6.120  10.689 -0.4641  0.0190 -0.7080
18803TIP3    H177824   6.175   6.071  10.609 -0.7944 -1.3057  0.1570
18803TIP3    H277825   6.109   6.155  10.716 -0.7422 -1.3030  0.1871
18804TIP3   OH277826   6.185   2.340  11.851 -0.5521 -0.5570 -0.2055
18804TIP3    H177827   6.220   2.259  11.812  0.2292 -0.6145  0.5702
18804TIP3    H277828   6.216   2.410  11.793 -1.1374 -0.7935 -0.8199
18805TIP3   OH277829   3.315   0.897  16.192 -0.4839 -0.3742 -0.0027
18805TIP3    H177830   3.258   0.946  16.250  0.1238 -1.2410  1.3885
18805TIP3    H277831   3.255   0.852  16.132 -1.1796 -0.0646  0.4466
18806TIP3   OH277832   5.872   1.579   4.928 -0.1737  0.4135  0.1346
18806TIP3    H177833   5.951   1.529   4.948  0.5301  1.5503  0.2128
18806TIP3    H277834   5.806   1.511   4.909  0.6195 -0.5618  0.7295
18807TIP3   OH277835   5.648   6.443   6.817  0.2404  0.0247 -0.0939
18807TIP3    H177836   5.630   6.516   6.758 -0.2171 -1.3653 -1.7738
18807TIP3    H277837   5.583   6.377   6.794  0.9112 -1.0879  1.0522
18808TIP3   OH277838   4.731   4.971   4.904  0.1726 -0.0796 -0.6332
18808TIP3    H177839   4.694   5.008   4.984 -0.4220 -2.0920  0.0890
18808TIP3    H277840   4.664   4.909   4.874  1.1836 -0.6955 -1.6785
18809TIP3   OH277841   3.363   0.832   3.762 -0.0260  0.2527  0.3232
18809TIP3    H177842   3.399   0.856   3.676 -0.3779  1.6769  0.5495
18809TIP3    H277843   3.400   0.897   3.822  0.5436 -0.9717  1.3457
18810TIP3   OH277844   0.646   4.137   0.261 -0.1837  0.5684  0.0654
18810TIP3    H177845   0.573   4.177   0.214 -1.2120 -0.8270  0.3999
18810TIP3    H277846   0.604   4.077   0.323  1.2403  0.1599  0.6693
18811TIP3   OH277847   1.349   3.957   4.847 -0.1614  0.6505 -0.3050
18811TIP3    H177848   1.409   3.910   4.790 -0.3561 -1.3164  1.0159
18811TIP3    H277849   1.384   4.046   4.850  2.2133 -0.2119 -0.2668
18812TIP3   OH277850   3.910   3.499   4.880 -0.5664 -0.3844  0.1140
18812TIP3    H177851   3.939   3.462   4.963 -1.6912 -0.9678  0.2644
18812TIP3    H277852   3.882   3.588   4.903 -3.4119 -1.4032  0.9406
18813TIP3   OH277853   2.240   1.380  16.007  0.0191  0.4991  0.2576
18813TIP3    H177854   2.326   1.360  16.044  0.1643  1.8576  0.7283
18813TIP3    H277855   2.177   1.342  16.068  0.2664  2.1925  1.6489
18814TIP3   OH277856   1.468   3.713  15.278  0.1419 -0.4659 -0.0664
18814TIP3    H177857   1.477   3.805  15.254 -1.2003 -0.6872 -1.5149
18814TIP3    H277858   1.411   3.675  15.211  2.1266 -2.7909 -0.5875
18815TIP3   OH277859   0.086   1.126   1.883  0.1835 -0.1419  0.2219
18815TIP3    H177860   0.041   1.042   1.880  0.5306 -0.3955  1.7456
18815TIP3    H277861   0.043   1.174   1.953  0.8478  0.4551  0.2284
18816TIP3   OH277862   3.136   2.812   4.565 -0.3404 -0.6133  0.0625
18816TIP3    H177863   3.057   2.772   4.601 -1.8772  3.4192  1.8548
18816TIP3    H277864   3.124   2.807   4.470 -3.1217  0.3214  0.2718
18817TIP3   OH277865   6.385   1.436  14.251 -0.1678 -0.1442 -0.4463
18817TIP3    H177866   6.368   1.526  14.223  1.1834  0.4969  0.6128
18817TIP3    H277867   6.455   1.406  14.193  2.0007  0.8700  1.4515
18818TIP3   OH277868   0.324   4.124   0.337  0.5138  0.1907  0.3998
18818TIP3    H177869   0.299   4.049   0.391 -0.7751  0.3178  0.0312
18818TIP3    H277870   0.349   4.191   0.401 -1.9632  0.6822  0.9937
18819TIP3   OH277871   3.416   6.466  11.410 -0.2949  0.1593 -0.1423
18819TIP3    H177872   3.480   6.427  11.470 -0.7384 -0.4005 -0.0212
18819TIP3    H277873   3.469   6.514  11.346  0.2180  0.1194  0.2473
18820TIP3   OH277874   2.317   6.478  15.461  0.3994  0.3175  0.0696
18820TIP3    H177875   2.226   6.466  15.435  0.7900  0.3130 -1.4173
18820TIP3    H277876   2.357   6.392  15.449  0.4489  0.1271  1.4608
18821TIP3   OH277877   1.467   5.098  12.080 -0.3160 -0.7365  0.2829
18821TIP3    H177878   1.524   5.140  12.016 -1.3214  0.2526 -0.0060
18821TIP3    H277879   1.513   5.018  12.105  0.0042 -1.2980 -1.8704
18822TIP3   OH277880   5.095   5.603  15.535  0.3475  0.3064 -0.2141
18822TIP3    H177881   5.108   5.508  15.529 -2.6093 -0.1565 -1.4475
18822TIP3    H277882   5.086   5.621  15.628  0.2365 -0.7570 -0.0122
18823TIP3   OH277883   5.254   0.666   3.560  0.4216 -0.3016  0.0970
18823TIP3    H177884   5.188   0.600   3.544  0.7386 -0.6343  0.1446
18823TIP3    H277885   5.298   0.679   3.476 -0.3711  0.6681 -0.1904
18824TIP3   OH277886   0.303   5.935   5.273 -0.0958  0.2246  0.0685
18824TIP3    H177887   0.357   5.856   5.281  4.7569  3.1831  1.0012
18824TIP3    H277888   0.323   5.969   5.185  1.6357  2.5339  1.2365
18825TIP3   OH277889   5.500   4.107  13.403  0.1153  0.4260  0.2004
18825TIP3    H177890   5.431   4.070  13.348 -0.4417  3.1690 -1.1200
18825TIP3    H277891   5.457   4.121  13.488  0.1827 -1.3090  0.5500
18826TIP3   OH277892   0.048   2.681  15.105 -0.1634  0.1410 -0.0818
18826TIP3    H177893   0.031   2.773  15.081 -0.5165  0.0383 -0.2254
18826TIP3    H277894  -0.002   2.630  15.041 -0.0240 -0.1522  0.0434
18827TIP3   OH277895   3.505   1.336  14.600  0.4001  0.7493 -0.1124
18827TIP3    H177896   3.461   1.328  14.685  1.0638  0.6242  0.2219
18827TIP3    H277897   3.587   1.381  14.619  0.4045  1.0223 -0.7417
18828TIP3   OH277898   3.396   6.345  14.741 -0.2482  0.0314 -0.5013
18828TIP3    H177899   3.391   6.409  14.669 -0.5067 -0.2730 -0.7535
18828TIP3    H277900   3.472   6.373  14.792  0.2690 -0.0658 -1.2023
18829TIP3   OH277901   5.215   2.351  13.690 -0.4750  0.3267 -0.4162
18829TIP3    H177902   5.175   2.267  13.711 -0.0436  0.2869  0.2673
18829TIP3    H277903   5.242   2.388  13.774  0.7797  0.4171 -0.8237
18830TIP3   OH277904   4.679   0.865  15.970 -0.2454 -0.0711  0.0801
18830TIP3    H177905   4.749   0.928  15.956 -1.3282  0.6894 -2.4205
18830TIP3    H277906   4.628   0.901  16.043 -0.7095  1.8895 -1.1477
18831TIP3   OH277907   2.894   3.513   5.763 -0.1773  0.2456  0.1603
18831TIP3    H177908   2.819   3.572   5.765 -0.5979 -0.1878 -1.4921
18831TIP3    H277909   2.969   3.568   5.786 -0.9115  0.8043  1.2750
18832TIP3   OH277910   4.876   3.855  14.437 -0.2468  0.4397 -0.0956
18832TIP3    H177911   4.855   3.840  14.345  0.1981  0.7044 -0.2456
18832TIP3    H277912   4.809   3.917  14.467 -0.4452  0.2863 -0.2180
18833TIP3   OH277913   1.623   1.648   0.992 -0.5946  0.0152 -0.2661
18833TIP3    H177914   1.708   1.628   0.951 -0.4714  0.4839 -0.2389
18833TIP3    H277915   1.646   1.692   1.073 -0.8656  0.0384 -0.2047
18834TIP3   OH277916   4.403   2.282   3.518  0.2872 -0.3670  0.4023
18834TIP3    H177917   4.396   2.292   3.613  0.9232  0.6712  0.3657
18834TIP3    H277918   4.313   2.277   3.487  0.0390  0.3425  0.9726
18835TIP3   OH277919   1.200   6.661   2.979  0.3057  0.0598 -0.1160
18835TIP3    H177920   1.175   6.597   2.912  0.5794 -0.8149  0.5876
18835TIP3    H277921   1.278   6.623   3.019 -0.3652  0.1225  1.2880
18836TIP3   OH277922   4.346   1.592   5.804  0.1071  0.4976 -0.1504
18836TIP3    H177923   4.356   1.535   5.727 -1.5764 -0.9298  0.6072
18836TIP3    H277924   4.293   1.540   5.865  0.3386  2.0835  1.4679
18837TIP3   OH277925   0.708   3.054   2.486 -0.0672 -0.3559 -0.0233
18837TIP3    H177926   0.741   3.049   2.397  0.5858  2.9570 -0.0899
18837TIP3    H277927   0.787   3.045   2.541  0.0515  0.9219  0.0491
18838TIP3   OH277928   2.306   6.226  12.054  1.0652 -0.2078  0.6451
18838TIP3    H177929   2.344   6.301  12.008 -1.2116 -0.5517 -2.0694
18838TIP3    H277930   2.291   6.161  11.985 -1.3087 -1.3082  2.0799
18839TIP3   OH277931   5.305   1.746   2.359 -0.0675 -0.2566 -0.0142
18839TIP3    H177932   5.243   1.813   2.331 -0.2000 -1.4286 -2.8562
18839TIP3    H277933   5.262   1.701   2.432 -1.4096  0.5906 -0.2681
18840TIP3   OH277934   0.193   5.178  17.068  0.3455 -0.1451 -0.5844
18840TIP3    H177935   0.190   5.224  16.984 -1.0563 -0.4816 -0.7418
18840TIP3    H277936   0.267   5.217  17.115 -1.1097  2.6954 -0.4638
18841TIP3   OH277937   1.990   5.961   4.846  0.1122  0.0138  0.3397
18841TIP3    H177938   1.916   5.979   4.904  0.5668  1.6120  0.4650
18841TIP3    H277939   1.987   5.866   4.833 -0.7552 -0.2259  1.9623
18842TIP3   OH277940   1.389   4.756  16.331  0.0466 -0.0265  0.3171
18842TIP3    H177941   1.375   4.767  16.237  0.8705 -2.6254 -0.1913
18842TIP3    H277942   1.305   4.724  16.364  0.0298  0.0037  0.3038
18843TIP3   OH277943   2.680   2.511   4.417  0.4969  0.0866 -0.1126
18843TIP3    H177944   2.684   2.494   4.511 -0.1668 -0.4379 -0.1754
18843TIP3    H277945   2.675   2.606   4.410  0.7230  0.1357  0.3762
18844TIP3   OH277946   2.800   1.843   3.215  0.0618  0.0851 -0.1724
18844TIP3    H177947   2.866   1.874   3.153  0.5960  0.1457  0.4123
18844TIP3    H277948   2.847   1.780   3.270 -0.2976  0.3017  0.3995
18845TIP3   OH277949   3.989   2.611   5.108  0.3064  0.1991  0.1990
18845TIP3    H177950   3.975   2.518   5.123 -0.2824  0.1346 -0.7049
18845TIP3    H277951   3.953   2.628   5.022  2.6489  0.7514 -0.7688
18846TIP3   OH277952   4.084   5.686  15.240 -0.4664 -0.2232 -0.1637
18846TIP3    H177953   4.087   5.590  15.241 -0.3452 -0.2711 -2.1912
18846TIP3    H277954   3.995   5.707  15.267 -0.7398 -0.9286 -0.5037
18847TIP3   OH277955   4.244   6.713   3.188  0.6388  0.0495 -0.2423
18847TIP3    H177956   4.274   6.804   3.195  0.2630  0.3758 -2.2443
18847TIP3    H277957   4.154   6.719   3.157  1.5761 -0.9162 -3.6606
18848TIP3   OH277958   0.007   2.389  13.570  0.0637  0.4295  0.0420
18848TIP3    H177959  -0.041   2.463  13.533 -0.6569  0.7823  1.5734
18848TIP3    H277960  -0.050   2.313  13.557  0.2593  0.3654 -0.4483
18849TIP3   OH277961   0.179   5.271  12.286  0.7738  0.2829 -0.0589
18849TIP3    H177962   0.191   5.187  12.330 -0.6167  0.9057  1.6336
18849TIP3    H277963   0.086   5.291  12.296  0.5858  0.9678 -2.4587
18850TIP3   OH277964   5.117   6.003  15.449 -0.2358 -0.5249  0.0652
18850TIP3    H177965   5.168   6.035  15.523  1.0770  0.1176 -1.0468
18850TIP3    H277966   5.026   6.013  15.475  0.1091  2.5828  0.4827
18851TIP3   OH277967   3.605   1.479  10.406 -0.7561 -0.2139  0.6504
18851TIP3    H177968   3.650   1.542  10.461  0.8737  1.1993 -2.0796
18851TIP3    H277969   3.659   1.400  10.409  1.0376  0.8532 -1.1284
18852TIP3   OH277970   2.763   3.641  12.380 -0.1390  0.3458  0.0029
18852TIP3    H177971   2.743   3.594  12.299 -0.1936 -0.1555  0.3028
18852TIP3    H277972   2.830   3.588  12.424 -1.4248 -0.3961  1.1628
18853TIP3   OH277973   1.783   1.217  15.849 -0.1631 -0.4703 -0.1584
18853TIP3    H177974   1.857   1.270  15.822  1.0451 -3.0630 -2.4359
18853TIP3    H277975   1.707   1.262  15.812  0.5742  0.6692 -0.3410
18854TIP3   OH277976   2.644   1.103   5.991 -0.3804  0.0846 -0.2038
18854TIP3    H177977   2.596   1.077   5.913 -0.8731  0.4611 -0.0378
18854TIP3    H277978   2.638   1.199   5.992 -0.4207  0.0798  0.3175
18855TIP3   OH277979   6.334   0.980  16.900  0.0352 -0.4674  0.4305
18855TIP3    H177980   6.279   1.035  16.844  1.0375  2.2070  1.8993
18855TIP3    H277981   6.292   0.983  16.985  0.9088 -0.7578  0.8826
18856TIP3   OH277982   3.547   3.589  12.702  0.4470  0.2964 -0.5514
18856TIP3    H177983   3.506   3.526  12.761  0.1156 -0.5053 -1.6014
18856TIP3    H277984   3.630   3.611  12.744 -0.1514  0.3901  0.6123
18857TIP3   OH277985   6.775   1.331   2.689  0.4562 -0.5759  0.1261
18857TIP3    H177986   6.799   1.368   2.774 -1.0174  1.5696 -0.3131
18857TIP3    H277987   6.847   1.356   2.631 -0.0442  0.7663  0.0633
18858TIP3   OH277988   5.905   3.044  12.567 -0.0329  0.1335  0.2884
18858TIP3    H177989   5.819   3.003  12.577 -0.9562  2.0529  0.8388
18858TIP3    H277990   5.936   3.057  12.657  0.3967  0.2881  0.1228
18859TIP3   OH277991   1.387   5.587   1.243 -0.5705  0.1180  0.5981
18859TIP3    H177992   1.354   5.669   1.205 -1.3565  0.2746  1.5759
18859TIP3    H277993   1.356   5.519   1.183  1.7580  0.6161 -1.3286
18860TIP3   OH277994   3.177   6.185  16.936 -0.2044  0.2718  0.0971
18860TIP3    H177995   3.147   6.110  16.987  0.7467 -0.5902 -0.5447
18860TIP3    H277996   3.129   6.178  16.853 -0.9096  1.0143  0.4293
18861TIP3   OH277997   1.583   1.861  11.859  0.0266  0.3854  0.3683
18861TIP3    H177998   1.545   1.888  11.774  0.9306  0.4630 -0.0211
18861TIP3    H277999   1.677   1.876  11.849  0.4008 -1.5154  0.6765
18862TIP3   OH278000   0.056   2.699  11.119  0.0598  0.2209  0.1370
18862TIP3    H178001  -0.001   2.742  11.182 -1.0674  1.6710 -1.7775
18862TIP3    H278002   0.095   2.770  11.068 -0.9094 -0.8977 -2.3303
18863TIP3   OH278003   5.751   5.126  14.364  0.5681 -0.0024 -0.0313
18863TIP3    H178004   5.729   5.096  14.276 -0.2180 -1.2933  0.5715
18863TIP3    H278005   5.678   5.097  14.419 -0.4657  3.3303  0.6257
18864TIP3   OH278006   4.523   4.050  16.375 -0.1630 -0.0612  0.1871
18864TIP3    H178007   4.502   3.973  16.428  0.4498  0.2362  0.8810
18864TIP3    H278008   4.590   4.097  16.425 -0.0411  0.5776 -0.5399
18865TIP3   OH278009   6.209   5.353   3.551 -0.2769 -0.2908 -0.5509
18865TIP3    H178010   6.197   5.259   3.564 -1.7593 -0.2903 -1.6344
18865TIP3    H278011   6.248   5.384   3.633 -3.0640 -1.2811  1.3138
18866TIP3   OH278012   5.368   1.211  12.752  0.7799  0.4335  0.3763
18866TIP3    H178013   5.385   1.151  12.679  0.9956 -1.6182  2.0403
18866TIP3    H278014   5.442   1.198  12.812 -1.1836 -0.7319  2.6989
18867TIP3   OH278015   3.693   6.651   3.204  0.1543 -0.0693 -0.0873
18867TIP3    H178016   3.705   6.576   3.262  2.0914  0.9840  1.0084
18867TIP3    H278017   3.777   6.696   3.206 -1.0667  2.3975 -0.3181
18868TIP3   OH278018   5.434   6.020  11.101  1.6555 -0.0197 -0.3211
18868TIP3    H178019   5.362   5.989  11.047 -0.1482 -1.1435  2.4840
18868TIP3    H278020   5.511   5.972  11.069  0.7973 -0.3223 -2.0503
18869TIP3   OH278021   2.712   5.340  16.127 -0.0243  0.3180 -0.5867
18869TIP3    H178022   2.690   5.305  16.041 -3.2787  2.5847 -0.8814
18869TIP3    H278023   2.642   5.309  16.185 -0.7258  2.7826  0.0143
18870TIP3   OH278024   3.814   3.222   1.158 -0.0113 -0.5941  0.1784
18870TIP3    H178025   3.855   3.171   1.088  1.7711 -0.9385  1.4322
18870TIP3    H278026   3.769   3.158   1.212 -2.2992 -0.2273 -1.1516
18871TIP3   OH278027   2.134   3.888   3.419  0.6213  1.2434  0.8380
18871TIP3    H178028   2.051   3.911   3.378  0.3286 -0.1983  0.5841
18871TIP3    H278029   2.200   3.909   3.352  0.4153  1.7547  0.7906
18872TIP3   OH278030   5.521   2.531   0.482 -0.1076 -0.2672 -1.0882
18872TIP3    H178031   5.495   2.610   0.529  0.7843 -0.6982  0.1721
18872TIP3    H278032   5.452   2.468   0.502  0.8304 -0.8042  0.6435
18873TIP3   OH278033   4.126   1.452  12.939 -0.0053 -0.9181 -0.1395
18873TIP3    H178034   4.101   1.403  12.861 -0.0321 -0.3232 -0.5121
18873TIP3    H278035   4.043   1.481  12.977  0.0198 -0.9814 -0.0363
18874TIP3   OH278036   4.922   6.495  15.606 -0.0908 -0.5677  0.0393
18874TIP3    H178037   4.982   6.507  15.680 -0.2431 -1.5421  0.3365
18874TIP3    H278038   4.911   6.583  15.570  1.2571 -0.3057  0.1795
18875TIP3   OH278039   5.107   6.669  16.159  0.7930  0.0998 -0.2863
18875TIP3    H178040   5.159   6.742  16.125  0.4035  0.4708 -0.1085
18875TIP3    H278041   5.091   6.613  16.083 -2.1698  2.1687 -1.3710
18876TIP3   OH278042   4.643   4.214  11.465 -0.6915 -0.6633 -0.1111
18876TIP3    H178043   4.584   4.249  11.398 -1.2055 -1.5956 -0.1570
18876TIP3    H278044   4.595   4.142  11.504 -0.0789 -0.6213  0.7352
18877TIP3   OH278045   3.634   3.348  13.484  0.8176  0.0504 -0.1533
18877TIP3    H178046   3.596   3.311  13.564  2.1481 -0.2061  0.3852
18877TIP3    H278047   3.694   3.416  13.515  1.2066  0.0868 -0.9519
18878TIP3   OH278048   4.354   6.210  15.065 -0.4733  0.4034 -0.0026
18878TIP3    H178049   4.398   6.159  15.133 -0.4771  1.8091  1.1199
18878TIP3    H278050   4.415   6.210  14.991 -0.0612 -0.3912  0.3199
18879TIP3   OH278051   1.705   1.216  11.633 -0.2297  0.1046  0.1699
18879TIP3    H178052   1.660   1.261  11.704  0.1655  0.1893  0.3676
18879TIP3    H278053   1.731   1.132  11.671 -2.2467 -0.9438 -0.6117
18880TIP3   OH278054   3.875   6.796  11.852 -0.0673  0.8701 -0.5590
18880TIP3    H178055   3.932   6.863  11.891 -2.5356  2.2561  0.8771
18880TIP3    H278056   3.824   6.844  11.787 -3.3980  1.0422  1.9611
18881TIP3   OH278057   5.238   3.192   2.404 -0.1463  0.5216 -0.0061
18881TIP3    H178058   5.241   3.262   2.469  0.7916 -0.2545  0.8108
18881TIP3    H278059   5.316   3.205   2.351  0.9210 -0.8322  1.1668
18882TIP3   OH278060   3.955   5.571   4.488 -0.3848  0.5152  0.1378
18882TIP3    H178061   3.933   5.532   4.572 -2.7474 -0.0470 -0.6833
18882TIP3    H278062   4.024   5.515   4.452 -0.2792  0.0157  1.0947
18883TIP3   OH278063   0.102   3.234   4.821  0.3091 -0.6517 -0.3365
18883TIP3    H178064   0.041   3.182   4.769 -0.6454  0.0142  0.0946
18883TIP3    H278065   0.047   3.285   4.880  0.9007  2.9544 -2.5506
18884TIP3   OH278066   3.493   6.594  16.964  0.0071 -0.0429 -0.8277
18884TIP3    H178067   3.424   6.528  16.968 -0.1453  0.1078 -0.9864
18884TIP3    H278068   3.573   6.546  16.984  0.1847 -0.6933 -2.8849
18885TIP3   OH278069   5.717   5.817   3.295  0.3563 -0.1241 -0.0612
18885TIP3    H178070   5.787   5.819   3.360  1.5790 -1.8906 -1.2226
18885TIP3    H278071   5.747   5.878   3.227  0.7494 -0.7843 -0.4979
18886TIP3   OH278072   4.163   6.458  12.300  0.1850  0.3481 -0.4762
18886TIP3    H178073   4.123   6.491  12.220 -2.8816 -0.5179  0.5609
18886TIP3    H278074   4.124   6.372  12.313  0.0733  0.7106  2.2458
18887TIP3   OH278075   5.593   1.994  12.173 -0.3215  0.3796  0.2605
18887TIP3    H178076   5.545   2.018  12.094  0.5078 -0.0377 -0.3917
18887TIP3    H278077   5.660   2.062  12.182 -0.1264  0.1770  0.3484
18888TIP3   OH278078   2.396   0.494  14.026  0.2043  1.0282 -0.0785
18888TIP3    H178079   2.421   0.517  14.115 -0.7714 -1.0983  0.8330
18888TIP3    H278080   2.472   0.449  13.990 -0.1399 -0.0890  0.5284
18889TIP3   OH278081   4.280   5.778  15.420 -0.2163 -0.6181  0.2620
18889TIP3    H178082   4.221   5.739  15.356 -0.4803  0.5482 -0.2388
18889TIP3    H278083   4.226   5.841  15.467  0.2842 -0.5556  0.7589
18890TIP3   OH278084   4.646   0.962   2.465  0.4640  0.1397  0.2743
18890TIP3    H178085   4.643   1.056   2.482 -1.4991  0.1583  0.0760
18890TIP3    H278086   4.625   0.922   2.549  0.4283 -0.0962  0.1539
18891TIP3   OH278087   2.028   5.074   0.871  0.2239 -0.3549 -0.3178
18891TIP3    H178088   2.115   5.098   0.904  0.3429 -0.5948 -0.4531
18891TIP3    H278089   1.967   5.116   0.931  0.4050  1.4605 -1.3346
18892TIP3   OH278090   1.063   1.035  14.821  0.8116 -0.5588 -0.3972
18892TIP3    H178091   1.072   1.038  14.726  2.3290 -1.8345 -0.3286
18892TIP3    H278092   1.139   0.986  14.851 -0.1607 -1.0693  1.4021
18893TIP3   OH278093   3.221   0.056   5.224  0.0395  0.2567  0.5018
18893TIP3    H178094   3.128   0.045   5.206 -0.0626 -0.8722  1.5560
18893TIP3    H278095   3.262   0.057   5.138 -0.6861 -2.1357  0.0544
18894TIP3   OH278096   2.886   2.384  16.046  0.7332 -0.0260  0.4923
18894TIP3    H178097   2.875   2.289  16.049  1.0182 -0.1173 -0.7047
18894TIP3    H278098   2.865   2.408  15.955  0.1117  1.1313  0.9146
18895TIP3   OH278099   6.588   3.986  13.825 -0.6736  0.0348  0.0595
18895TIP3    H178100   6.614   4.078  13.832 -1.9911  0.4410 -0.1410
18895TIP3    H278101   6.631   3.954  13.746 -0.4759  0.5652 -0.0480
18896TIP3   OH278102   6.793   3.509   6.055  0.0571  0.1087  0.0382
18896TIP3    H178103   6.808   3.414   6.053  0.7360  0.1569  1.7141
18896TIP3    H278104   6.840   3.539   6.132  1.0689  2.0399 -1.2473
18897TIP3   OH278105   3.443   0.830  12.455  0.0377  0.1069  0.1291
18897TIP3    H178106   3.508   0.804  12.391 -1.4918  0.3348 -1.5972
18897TIP3    H278107   3.450   0.765  12.525 -1.6034 -3.3445 -2.6054
18898TIP3   OH278108   5.523   1.496   5.850 -0.0891 -0.4866 -0.6843
18898TIP3    H178109   5.474   1.465   5.926  0.0195  0.6522 -0.1139
18898TIP3    H278110   5.475   1.463   5.775  0.6892 -2.9947 -0.1596
18899TIP3   OH278111   3.653   4.966  16.922 -0.1826  0.2623  0.3156
18899TIP3    H178112   3.712   4.992  16.852 -0.9838 -0.9610 -0.8660
18899TIP3    H278113   3.708   4.915  16.982  0.1167 -0.2798 -0.4102
18900TIP3   OH278114   0.372   6.512  13.092  0.0682  0.6869  0.4163
18900TIP3    H178115   0.363   6.582  13.027 -0.1713  0.6328  0.3880
18900TIP3    H278116   0.282   6.482  13.107  0.2513 -0.1959 -0.1974
18901TIP3   OH278117   6.079   5.089   1.540  0.9269 -0.6621 -0.1158
18901TIP3    H178118   6.161   5.094   1.491  0.1879 -0.2195 -1.3598
18901TIP3    H278119   6.102   5.120   1.628  1.3613  3.3456 -1.4364
18902TIP3   OH278120   3.545   3.820   4.643  0.2655 -0.7190 -0.3379
18902TIP3    H178121   3.473   3.791   4.587  0.5237  2.6776 -2.7042
18902TIP3    H278122   3.509   3.892   4.694  1.3364 -0.6315  0.3352
18903TIP3   OH278123   3.557   5.424  11.851 -0.3629 -0.8100  0.2808
18903TIP3    H178124   3.470   5.432  11.889  0.3181 -0.6167  1.8757
18903TIP3    H278125   3.577   5.331  11.855  0.3389 -0.6130  1.9296
18904TIP3   OH278126   2.894   3.517  13.857 -0.3891  0.5687 -0.1657
18904TIP3    H178127   2.875   3.570  13.779 -0.9095 -1.4272 -1.4756
18904TIP3    H278128   2.809   3.507  13.900 -0.4636  0.0898 -0.4151
18905TIP3   OH278129   2.553   3.777  14.634  0.1172 -0.2258 -0.3823
18905TIP3    H178130   2.509   3.822  14.706  1.8045  0.8481  0.0397
18905TIP3    H278131   2.643   3.763  14.665  1.1923  1.1821 -2.5745
18906TIP3   OH278132   2.796   2.165   3.391 -0.5233 -0.4942 -0.2363
18906TIP3    H178133   2.875   2.113   3.403 -1.0611 -0.9470  1.5770
18906TIP3    H278134   2.829   2.252   3.368  0.3997 -1.3196 -2.3085
18907TIP3   OH278135   5.807   6.203   0.851  0.0734  0.2296 -0.0320
18907TIP3    H178136   5.843   6.152   0.924 -0.7528  0.8134  0.8041
18907TIP3    H278137   5.882   6.217   0.793  0.7962 -0.0854  0.7901
18908TIP3   OH278138   4.529   1.082   1.472 -0.6678  0.5702 -0.0259
18908TIP3    H178139   4.494   1.156   1.522  1.2601  0.6714  1.2393
18908TIP3    H278140   4.607   1.055   1.519  0.5397 -0.1549 -2.2857
18909TIP3   OH278141   2.085   6.278   1.183 -0.3212  0.8767  0.4929
18909TIP3    H178142   2.069   6.269   1.089  0.5100  1.4973  0.2819
18909TIP3    H278143   1.998   6.289   1.221 -0.8313 -1.1589  0.0220
18910TIP3   OH278144   6.117   0.495  16.713 -0.1721  0.1788  0.2205
18910TIP3    H178145   6.152   0.469  16.798 -0.2926  2.2807  0.9521
18910TIP3    H278146   6.023   0.482  16.720 -0.0087 -1.6179 -0.3572
18911TIP3   OH278147   0.336   4.986   5.911  0.0245 -0.3463 -0.4560
18911TIP3    H178148   0.255   5.030   5.884 -0.0151  1.0455  1.6587
18911TIP3    H278149   0.320   4.960   6.002  2.3909  1.2191  0.4988
18912TIP3   OH278150   5.521   5.084   2.318 -0.3300  0.3624  0.1150
18912TIP3    H178151   5.569   5.159   2.354 -0.5200  0.5451 -0.0071
18912TIP3    H278152   5.515   5.103   2.224  2.5814 -1.4103 -0.5631
18913TIP3   OH278153   0.523   5.350  13.169 -0.5549  0.3913  0.6009
18913TIP3    H178154   0.563   5.309  13.246 -0.2172  0.3541  0.4078
18913TIP3    H278155   0.597   5.379  13.117 -0.7849  1.2942  0.7597
18914TIP3   OH278156   5.182   3.223  14.874 -0.6809  0.6411  0.2791
18914TIP3    H178157   5.171   3.135  14.911 -1.3168  0.1682 -0.9516
18914TIP3    H278158   5.104   3.271  14.902 -0.6705  0.5998  0.3801
18915TIP3   OH278159   3.811   4.587   0.139  0.1943  0.1435 -0.9916
18915TIP3    H178160   3.885   4.541   0.179  0.0138  1.1369  0.5498
18915TIP3    H278161   3.797   4.663   0.195 -2.6733 -0.5649 -0.5876
18916TIP3   OH278162   0.053   4.819   1.144  0.0061 -0.3655 -0.6495
18916TIP3    H178163   0.094   4.892   1.097 -0.3891  0.1974 -0.1390
18916TIP3    H278164  -0.017   4.860   1.194 -1.2020 -1.3114 -1.5223
18917TIP3   OH278165   4.110   0.464   0.917  0.0212 -0.4453  0.2818
18917TIP3    H178166   4.151   0.522   0.981  1.7527 -0.9597 -0.3109
18917TIP3    H278167   4.180   0.406   0.888 -1.0733 -1.2050 -0.9887
18918TIP3   OH278168   5.290   1.490  13.996 -0.6280 -0.2006  0.3580
18918TIP3    H178169   5.233   1.503  13.920  1.5832  2.6961 -1.0375
18918TIP3    H278170   5.299   1.578  14.033  0.2460 -1.1704  2.5816
18919TIP3   OH278171   4.300   5.315  13.865  0.0586  0.2900  0.2380
18919TIP3    H178172   4.229   5.349  13.810 -1.4823 -1.5184  0.9758
18919TIP3    H278173   4.339   5.245  13.811  0.0979  0.1018  0.5085
18920TIP3   OH278174   5.769   4.015   3.933  0.2266  0.4801  0.2622
18920TIP3    H178175   5.719   4.013   3.852 -0.7491 -2.5313  0.8029
18920TIP3    H278176   5.860   3.998   3.906  0.2817  1.7030 -0.3562
18921TIP3   OH278177   2.680   6.100   5.051 -0.2085  0.2615 -0.0206
18921TIP3    H178178   2.738   6.030   5.023 -1.2473  0.0316 -1.7469
18921TIP3    H278179   2.713   6.178   5.006 -0.2025  0.5050  0.3926
18922TIP3   OH278180   4.079   1.754  13.877 -0.6182  0.3325  0.2704
18922TIP3    H178181   4.052   1.701  13.951 -0.2206  0.4477  0.4980
18922TIP3    H278182   4.158   1.712  13.844 -2.0192 -1.0662 -1.5187
18923TIP3   OH278183   2.987   6.609  16.089  0.3816 -0.3159 -0.3975
18923TIP3    H178184   3.008   6.675  16.023 -1.3269 -0.9598 -1.6704
18923TIP3    H278185   2.898   6.632  16.117  0.7308 -0.6157  1.0040
18924TIP3   OH278186   2.057   4.388   2.447  0.2284 -0.5809  0.5170
18924TIP3    H178187   2.130   4.449   2.441 -1.3417  1.5502  1.8910
18924TIP3    H278188   2.072   4.341   2.529  0.9512 -1.4444 -0.0880
18925TIP3   OH278189   4.878   5.532   3.642 -0.6436  0.2199 -0.1540
18925TIP3    H178190   4.790   5.506   3.670 -1.2809  1.3220 -1.0232
18925TIP3    H278191   4.901   5.605   3.699 -0.1782 -0.2116  0.2230
18926TIP3   OH278192   3.189   0.230  13.676  0.3094  0.3612  0.1490
18926TIP3    H178193   3.232   0.262  13.756  0.4987 -2.1245  1.1296
18926TIP3    H278194   3.097   0.220  13.701 -0.2764  2.3874 -0.9208
18927TIP3   OH278195   1.325   3.262   5.525  0.0732 -0.8357 -0.0157
18927TIP3    H178196   1.418   3.260   5.546 -0.3018  0.2699  2.0165
18927TIP3    H278197   1.283   3.218   5.599 -1.1270  0.2218 -0.0413
18928TIP3   OH278198   1.927   0.314  11.933 -0.1481 -0.2329  0.0704
18928TIP3    H178199   1.950   0.385  11.873  2.9972 -0.5845  0.7075
18928TIP3    H278200   1.964   0.235  11.893 -2.6834 -1.4313 -0.0996
18929TIP3   OH278201   4.385   5.314  16.144 -0.5789  0.2667  0.0940
18929TIP3    H178202   4.441   5.358  16.208 -0.6952  0.7021 -0.0994
18929TIP3    H278203   4.440   5.307  16.066 -0.3964 -0.3715  0.2714
18930TIP3   OH278204   0.898   4.329  11.895 -0.3534  0.3211  0.3844
18930TIP3    H178205   0.845   4.345  11.817 -1.5797 -0.9865  0.8832
18930TIP3    H278206   0.863   4.390  11.961  1.4183  2.2122 -0.3327
18931TIP3   OH278207   1.077   1.955  10.682 -0.3786  0.4515 -0.5787
18931TIP3    H178208   1.045   1.869  10.710 -0.5946 -0.1327 -2.4966
18931TIP3    H278209   1.075   1.952  10.587  1.0459  2.0615 -0.7114
18932TIP3   OH278210   2.350   3.366   0.673  0.8489  0.3855 -0.1769
18932TIP3    H178211   2.444   3.379   0.660  0.4227  2.0051 -2.1322
18932TIP3    H278212   2.334   3.275   0.647  1.8220  0.1517  0.0008
18933TIP3   OH278213   3.491   6.368   3.398 -0.0307 -0.1548  0.0582
18933TIP3    H178214   3.480   6.311   3.321  1.4596 -0.0010 -0.2934
18933TIP3    H278215   3.428   6.334   3.462 -0.4127 -1.0801 -0.7848
18934TIP3   OH278216   0.645   1.486  14.554  0.5121 -0.2031 -0.6090
18934TIP3    H178217   0.662   1.547  14.483 -1.4939  0.5102 -0.5491
18934TIP3    H278218   0.632   1.542  14.631  2.3350 -0.9421  0.2965
18935TIP3   OH278219   1.817   2.248   5.694  0.1130 -0.3996  0.3713
18935TIP3    H178220   1.814   2.270   5.787 -0.7018 -1.9321  0.7622
18935TIP3    H278221   1.908   2.262   5.668  0.8089 -1.7240  1.8999
18936TIP3   OH278222   2.278   3.530  12.893  0.2581  0.2807  0.2256
18936TIP3    H178223   2.221   3.607  12.901  0.0536  0.2876 -1.0155
18936TIP3    H278224   2.235   3.463  12.946 -0.5322  0.5057 -0.1026
18937TIP3   OH278225   0.544   5.021   0.596  0.0641  0.0360  0.3111
18937TIP3    H178226   0.569   4.931   0.576  1.1863  0.3570  0.2198
18937TIP3    H278227   0.489   5.014   0.675 -1.7962 -0.9250 -0.9815
18938TIP3   OH278228   6.070   4.495   2.573  0.2898 -0.0515 -0.5091
18938TIP3    H178229   6.121   4.435   2.519 -1.2503 -0.1103 -1.9542
18938TIP3    H278230   5.984   4.452   2.582  0.0024  0.7201  0.6348
18939TIP3   OH278231   3.664   5.244  16.540 -0.1450  0.3609  0.3413
18939TIP3    H178232   3.569   5.241  16.545 -0.6733 -2.7082 -4.6920
18939TIP3    H278233   3.691   5.153  16.535  2.8099  1.1586 -0.6043
18940TIP3   OH278234   2.739   6.603   6.022  0.4289 -1.1684  0.5350
18940TIP3    H178235   2.676   6.665   6.057 -1.0432 -1.5036 -1.3902
18940TIP3    H278236   2.806   6.595   6.091 -0.1237  1.3358  1.4405
18941TIP3   OH278237   0.822   5.325  15.493 -0.7497  0.1445  0.0976
18941TIP3    H178238   0.858   5.309  15.580 -0.3505  1.1474  0.1257
18941TIP3    H278239   0.785   5.240  15.466 -0.5639 -0.2602  1.0876
18942TIP3   OH278240   3.497   0.524  13.264  0.1188  0.1763  0.6291
18942TIP3    H178241   3.444   0.445  13.277  0.0319  0.2152  0.5149
18942TIP3    H278242   3.439   0.596  13.289 -0.3015  0.3041 -0.6334
18943TIP3   OH278243   1.137   5.236   4.715 -0.0356 -0.1026 -0.5349
18943TIP3    H178244   1.099   5.260   4.631 -0.0278 -1.9461 -1.1261
18943TIP3    H278245   1.128   5.140   4.719  0.0006 -0.0744  1.5448
18944TIP3   OH278246   5.964   1.955   5.890 -0.3837  0.6362 -0.3724
18944TIP3    H178247   6.055   1.961   5.916 -0.1035 -1.9220 -0.5413
18944TIP3    H278248   5.920   2.024   5.940  1.4210  1.1666  0.5679
18945TIP3   OH278249   5.343   4.129  14.874 -0.3894  0.2806  0.2866
18945TIP3    H178250   5.313   4.134  14.783  0.3564 -1.9521 -0.1515
18945TIP3    H278251   5.291   4.194  14.920 -2.0140  0.2937 -1.4392
18946TIP3   OH278252   0.467   3.493  15.786 -0.5726 -0.4219 -0.1581
18946TIP3    H178253   0.541   3.455  15.739 -1.1453  0.0837 -1.5174
18946TIP3    H278254   0.495   3.583  15.807 -0.6606 -0.3517 -0.3416
18947TIP3   OH278255   4.486   6.117  12.060  0.5043 -0.2630 -0.2958
18947TIP3    H178256   4.516   6.173  11.988 -0.4647  0.7541  0.0567
18947TIP3    H278257   4.447   6.178  12.123 -0.6308 -1.3428  0.0789
18948TIP3   OH278258   5.981   3.584  10.685  0.4175 -0.2032 -0.1339
18948TIP3    H178259   5.974   3.665  10.735  0.3099 -2.1588  3.3750
18948TIP3    H278260   5.921   3.595  10.612 -0.8114  2.2845  1.1354
18949TIP3   OH278261   4.864   2.080   1.043  0.5091 -0.4532 -0.1819
18949TIP3    H178262   4.867   2.077   1.139 -2.5047  1.1209  0.0705
18949TIP3    H278263   4.833   2.168   1.022  3.9578  0.3531 -2.8488
18950TIP3   OH278264   4.318   1.468  16.206  0.0585 -0.9341 -0.9327
18950TIP3    H178265   4.267   1.421  16.272 -0.7067  0.6118 -0.3687
18950TIP3    H278266   4.332   1.403  16.137 -2.1535 -1.6358 -0.8309
18951TIP3   OH278267   0.349   5.969  11.799 -0.2174  0.2905 -0.2694
18951TIP3    H178268   0.389   6.052  11.772  1.2100 -0.1128  0.4806
18951TIP3    H278269   0.368   5.963  11.893  0.0170 -1.0430 -0.3784
18952TIP3   OH278270   1.898   0.657   1.918 -0.2195 -0.1098 -0.1924
18952TIP3    H178271   1.979   0.610   1.896 -1.3187 -2.9902  1.4369
18952TIP3    H278272   1.853   0.667   1.834  1.2033  0.3828 -0.9348
18953TIP3   OH278273   1.044   0.606   1.505  0.7040 -0.0661 -0.6260
18953TIP3    H178274   0.995   0.671   1.455  0.3888 -0.3815 -0.7334
18953TIP3    H278275   1.057   0.534   1.443 -1.0437 -1.1337  0.1689
18954TIP3   OH278276   1.801   4.520   1.467 -0.3174 -0.0474  0.2528
18954TIP3    H178277   1.803   4.530   1.372  0.8836  1.1931  0.3608
18954TIP3    H278278   1.894   4.515   1.492 -0.6357 -1.8746  1.2478
18955TIP3   OH278279   2.510   3.751   6.103  0.1652  0.1674  0.3209
18955TIP3    H178280   2.451   3.803   6.158  0.3071 -0.0161  0.6533
18955TIP3    H278281   2.532   3.809   6.030 -1.2465 -0.1286 -0.3680
18956TIP3   OH278282   4.568   6.461  15.569  0.2380 -0.2146  0.2481
18956TIP3    H178283   4.601   6.425  15.651 -1.3084  0.6471  1.3100
18956TIP3    H278284   4.492   6.407  15.547  0.1909  0.0257 -0.2009
18957TIP3   OH278285   2.140   6.086  11.762  0.3009  0.3384 -0.0416
18957TIP3    H178286   2.099   6.050  11.840  2.2265  0.0777  0.9053
18957TIP3    H278287   2.101   6.173  11.752 -0.4367  0.1188  0.8264
18958TIP3   OH278288   2.921   2.921  16.831  0.6502 -0.1874  0.0138
18958TIP3    H178289   2.885   2.874  16.906  0.6639 -0.6188 -0.2512
18958TIP3    H278290   3.016   2.913  16.840  0.7875  2.0562  1.4370
18959TIP3   OH278291   1.526   0.173   4.250  0.2160  0.2655 -0.6759
18959TIP3    H178292   1.524   0.245   4.314 -0.5130  0.4600 -0.9089
18959TIP3    H278293   1.434   0.159   4.228  0.2596 -1.3327  0.0219
18960TIP3   OH278294   5.904   2.592   4.160  0.3404 -0.1082 -0.4083
18960TIP3    H178295   5.900   2.552   4.073 -0.0709  2.0561 -1.4573
18960TIP3    H278296   5.821   2.568   4.201 -1.1030  1.7841 -2.0493
18961TIP3   OH278297   4.561   3.019  13.873 -0.1257  0.0940 -0.5923
18961TIP3    H178298   4.541   2.996  13.963  0.7632 -1.3049 -0.7054
18961TIP3    H278299   4.477   3.016  13.827 -0.6989  1.5586  0.3035
18962TIP3   OH278300   4.215   5.710  11.134 -0.4342  0.2655 -0.4416
18962TIP3    H178301   4.280   5.720  11.203  0.5334 -0.6801 -1.1796
18962TIP3    H278302   4.209   5.616  11.120  2.5321  0.4237 -4.4390
18963TIP3   OH278303   0.136   1.084   1.485 -0.7897 -0.2003 -0.1940
18963TIP3    H178304   0.223   1.100   1.523 -0.2731 -0.4765 -1.2239
18963TIP3    H278305   0.103   1.008   1.531 -0.3115 -0.3300 -0.0586
18964TIP3   OH278306   0.437   3.838   3.505 -0.2762 -0.5622  0.0237
18964TIP3    H178307   0.468   3.818   3.593  0.4792 -0.1703 -0.1482
18964TIP3    H278308   0.490   3.782   3.448 -1.3838 -1.4931 -0.1357
18965TIP3   OH278309   2.597   4.109   4.513 -0.3034 -0.1780  0.3253
18965TIP3    H178310   2.538   4.077   4.582  1.6533 -0.2623  2.0507
18965TIP3    H278311   2.678   4.132   4.559  1.4159 -1.0510 -2.0669
18966TIP3   OH278312   3.872   1.516  13.041  0.2967  0.6483  0.2778
18966TIP3    H178313   3.888   1.597  13.089  2.6421  0.3931  0.0314
18966TIP3    H278314   3.782   1.524  13.010 -0.9300  1.3734  3.5833
18967TIP3   OH278315   3.784   0.597   2.531  0.3088 -0.6382 -0.4712
18967TIP3    H178316   3.755   0.608   2.441  0.6610 -0.4507 -0.5654
18967TIP3    H278317   3.706   0.571   2.579 -0.3847  1.4234 -0.4019
18968TIP3   OH278318   6.760   3.293  14.496 -0.3263  0.1433 -0.2549
18968TIP3    H178319   6.737   3.360  14.561 -0.3208  0.7354 -0.8437
18968TIP3    H278320   6.854   3.306  14.481 -0.1783 -0.4533  0.1279
18969TIP3   OH278321   1.920   2.911   3.047  0.7110  0.1191  0.3468
18969TIP3    H178322   1.942   3.003   3.059 -1.1484  0.3183  2.7713
18969TIP3    H278323   1.831   2.902   3.081  0.7101 -2.5209 -0.1280
18970TIP3   OH278324   4.857   3.261   0.719 -0.0919  0.1069  0.2773
18970TIP3    H178325   4.944   3.288   0.688  0.3506  0.2122  1.5511
18970TIP3    H278326   4.834   3.187   0.663  0.3714  0.7071 -0.7348
18971TIP3   OH278327   0.335   1.916  11.794 -0.5022 -0.3898  0.2389
18971TIP3    H178328   0.428   1.895  11.807 -0.2229  0.5867 -0.1391
18971TIP3    H278329   0.291   1.831  11.800  0.4443 -0.9040  0.1202
18972TIP3   OH278330   1.235   2.819  14.931  0.2745 -0.3164  0.0370
18972TIP3    H178331   1.217   2.902  14.887 -2.2890 -0.4728  0.6313
18972TIP3    H278332   1.194   2.827  15.016  0.7238 -1.8892  0.4456
18973TIP3   OH278333   6.665   6.677  15.986  0.2910 -0.8606  0.4093
18973TIP3    H178334   6.739   6.697  16.043  0.2316  1.2073 -0.1538
18973TIP3    H278335   6.703   6.673  15.898 -0.3740  1.4832 -0.0506
18974TIP3   OH278336   1.163   4.942  14.615  0.6579 -0.2295 -0.1228
18974TIP3    H178337   1.075   4.924  14.582  0.2056 -0.4917  1.1650
18974TIP3    H278338   1.212   4.862  14.599  0.2828 -0.5566  0.3249
18975TIP3   OH278339   0.865   0.336   0.738  0.0817 -0.1794 -0.2199
18975TIP3    H178340   0.806   0.262   0.743 -0.7072  0.2700 -1.9681
18975TIP3    H278341   0.935   0.306   0.679  0.6162 -0.0699  0.3488
18976TIP3   OH278342   1.401   5.348   4.809 -0.1781 -0.1809  0.5898
18976TIP3    H178343   1.324   5.321   4.758 -1.5347  3.7753  0.2602
18976TIP3    H278344   1.367   5.367   4.896  0.4223  1.4566  0.4937
18977TIP3   OH278345   6.455   6.308   0.115 -0.0417 -0.1427 -0.1678
18977TIP3    H178346   6.432   6.222   0.147 -0.2455 -0.5637 -1.3720
18977TIP3    H278347   6.504   6.291   0.034 -1.4507  0.8687 -1.2933
18978TIP3   OH278348   4.590   4.721   5.510  0.0838 -0.2024 -0.1766
18978TIP3    H178349   4.621   4.672   5.586  1.4624 -0.9604 -1.1892
18978TIP3    H278350   4.667   4.769   5.479 -0.5646  0.4348 -0.8426
18979TIP3   OH278351   3.669   1.488  11.287  0.1428  0.1014 -0.1701
18979TIP3    H178352   3.612   1.494  11.363  0.8363  1.7483  0.2694
18979TIP3    H278353   3.737   1.425  11.312 -1.2694 -1.6566 -0.5962
18980TIP3   OH278354   0.093   5.524  13.184 -0.0867  0.1507  0.6753
18980TIP3    H178355   0.021   5.546  13.124 -0.6123 -1.6739  0.5639
18980TIP3    H278356   0.148   5.602  13.184 -0.7408  0.6938 -1.1872
18981TIP3   OH278357   3.060   0.497  12.621 -0.0086 -0.1184  0.3395
18981TIP3    H178358   3.058   0.402  12.614 -1.2909  0.0039 -1.2620
18981TIP3    H278359   3.101   0.527  12.540  0.5854  0.7189  0.9183
18982TIP3   OH278360   4.865   0.027  12.743 -0.7083  0.0931  0.5588
18982TIP3    H178361   4.959   0.024  12.762 -0.8837 -0.1853  1.4338
18982TIP3    H278362   4.846  -0.059  12.706 -0.8442 -0.3287  1.5649
18983TIP3   OH278363   5.855   3.940  15.276  0.1421  0.3738 -0.3135
18983TIP3    H178364   5.867   4.032  15.253 -0.7665  0.1002 -2.0785
18983TIP3    H278365   5.796   3.943  15.352  0.5209  1.2571 -0.0362
18984TIP3   OH278366   0.435   5.513   4.843  0.3694  0.1146  0.2008
18984TIP3    H178367   0.459   5.460   4.919  1.0370 -0.6942 -0.5434
18984TIP3    H278368   0.424   5.450   4.772  1.3751  0.9722 -0.7625
18985TIP3   OH278369   3.766   2.160  12.190 -0.0754 -0.8215 -0.2320
18985TIP3    H178370   3.729   2.236  12.235 -0.1417  0.0824 -1.7590
18985TIP3    H278371   3.853   2.150  12.228 -0.0646  0.0281 -0.0185
18986TIP3   OH278372   1.461   2.483  16.749 -0.3878  0.3275 -0.4079
18986TIP3    H178373   1.462   2.560  16.693 -1.4690  0.8454  0.2754
18986TIP3    H278374   1.370   2.456  16.753  0.0121 -1.2693 -0.9899
18987TIP3   OH278375   5.663   6.233   5.869 -0.7749 -0.0099  0.2936
18987TIP3    H178376   5.587   6.202   5.918 -0.7754 -0.6931 -0.1287
18987TIP3    H278377   5.694   6.156   5.821  0.7763  0.0035  1.2051
18988TIP3   OH278378   4.909   3.507  14.259  0.5543  0.1046 -0.5383
18988TIP3    H178379   4.908   3.580  14.196  3.1172  1.6069  0.9389
18988TIP3    H278380   4.875   3.545  14.340  0.6570 -0.7371 -0.0894
18989TIP3   OH278381   2.017   2.721  13.432 -0.2771  0.0413  0.6657
18989TIP3    H178382   1.972   2.712  13.349  0.1502 -1.2213  0.5393
18989TIP3    H278383   1.967   2.666  13.493 -0.1511  0.3498  1.0568
18990TIP3   OH278384   1.348   5.654  12.458 -0.3331 -0.0198  0.1695
18990TIP3    H178385   1.305   5.673  12.374  0.3314  2.6257  0.3337
18990TIP3    H278386   1.431   5.614  12.433 -0.7393 -0.5784 -0.3454
18991TIP3   OH278387   4.495   2.748  11.661  0.4628 -0.7135 -0.1373
18991TIP3    H178388   4.588   2.760  11.643  0.4599  0.0667  0.3317
18991TIP3    H278389   4.474   2.662  11.624  1.2657 -0.7007 -0.6375
18992TIP3   OH278390   3.141   2.023   0.731 -1.0928 -0.2477  0.1119
18992TIP3    H178391   3.121   1.947   0.676 -0.4669  0.0241 -0.5172
18992TIP3    H278392   3.120   2.099   0.676  0.0424  0.0306  0.0242
18993TIP3   OH278393   2.206   4.355  13.964 -0.3635 -0.2952 -0.0621
18993TIP3    H178394   2.152   4.428  13.995 -1.9647 -1.7670  0.8367
18993TIP3    H278395   2.228   4.306  14.043  4.0855  1.2379 -0.1106
18994TIP3   OH278396   1.109   6.158   4.325  0.7293  0.1378 -0.0975
18994TIP3    H178397   1.029   6.202   4.352  0.6546 -1.0606  1.8563
18994TIP3    H278398   1.136   6.203   4.245 -2.7722 -0.4665 -1.7979
18995TIP3   OH278399   2.449   5.215  16.916 -0.4235 -0.4221  0.6990
18995TIP3    H178400   2.486   5.133  16.949  0.2213  0.1596  1.4727
18995TIP3    H278401   2.524   5.276  16.914 -1.0898  0.4329  1.1069
18996TIP3   OH278402   0.476   4.302  13.736 -0.6183 -0.2216  0.5790
18996TIP3    H178403   0.395   4.313  13.686 -0.1021 -1.7892 -0.6826
18996TIP3    H278404   0.506   4.214  13.714  1.6702  0.4736  0.6714
18997TIP3   OH278405   3.740   0.318  16.645  0.2808  0.6915 -0.0810
18997TIP3    H178406   3.713   0.332  16.736  1.9528  0.2648  0.5348
18997TIP3    H278407   3.724   0.225  16.629  1.3443  0.4156  0.3170
18998TIP3   OH278408   3.451   1.115   2.672  0.6343 -0.3428  0.3280
18998TIP3    H178409   3.388   1.051   2.637  0.5173  0.3327 -0.7572
18998TIP3    H278410   3.397   1.188   2.702  0.7058 -1.0738  2.3594
18999TIP3   OH278411   5.309   1.480  11.061 -0.3034  0.8957  0.7391
18999TIP3    H178412   5.345   1.560  11.100  2.7842 -0.6664  1.4379
18999TIP3    H278413   5.360   1.468  10.981  1.1215 -1.5621  1.8814
19000TIP3   OH278414   2.134   2.818   5.619  0.1683  0.0241  0.3962
19000TIP3    H178415   2.214   2.770   5.597 -0.4339 -0.2359 -1.3741
19000TIP3    H278416   2.159   2.910   5.614  0.3650 -0.0548 -0.1698
19001TIP3   OH278417   2.380   4.039   4.986  0.1533 -0.3816 -0.1579
19001TIP3    H178418   2.422   4.125   4.995  2.4173 -1.2947 -1.1300
19001TIP3    H278419   2.377   4.004   5.075 -0.0016  0.3481  0.1303
19002TIP3   OH278420   4.443   6.751   5.724 -0.0806  0.0547  0.2101
19002TIP3    H178421   4.510   6.819   5.715  0.2902 -0.5473 -2.3932
19002TIP3    H278422   4.476   6.694   5.793 -0.7604  2.7783  3.0471
19003TIP3   OH278423   6.075   5.210   1.115 -0.0209  0.5763  0.2372
19003TIP3    H178424   6.032   5.231   1.198  0.2989  0.5520  0.4132
19003TIP3    H278425   6.168   5.203   1.138 -0.1154 -1.1769  0.2292
19004TIP3   OH278426   2.174   4.763  12.494  0.6039 -0.4715  0.4857
19004TIP3    H178427   2.266   4.787  12.487  0.6667 -0.6788  0.6044
19004TIP3    H278428   2.133   4.804  12.417  1.0214 -1.4645 -0.2985
19005TIP3   OH278429   0.246   2.974   0.479  0.1845  0.3423  0.2214
19005TIP3    H178430   0.157   3.003   0.502  0.4563  0.5526  1.0564
19005TIP3    H278431   0.233   2.908   0.411 -0.6411  0.0791  0.6170
19006TIP3   OH278432   3.915   2.244  11.950  0.1262  0.3804 -0.7921
19006TIP3    H178433   3.873   2.288  11.876  1.1416 -2.3279 -3.1441
19006TIP3    H278434   3.843   2.200  11.996 -0.2428  0.0142 -1.7080
19007TIP3   OH278435   3.538   0.285  14.026 -0.4316 -0.7458  0.0098
19007TIP3    H178436   3.569   0.251  14.110  0.9079 -2.4933 -1.1117
19007TIP3    H278437   3.615   0.282  13.969 -0.8477  2.0564 -0.8489
19008TIP3   OH278438   2.385   4.740  11.189  0.3377  0.1366  0.0180
19008TIP3    H178439   2.359   4.682  11.118  0.5343  0.8253 -0.6310
19008TIP3    H278440   2.476   4.717  11.207  0.6744  0.7789 -0.7975
19009TIP3   OH278441   3.503   4.773  12.300  0.0497 -0.9315  0.1690
19009TIP3    H178442   3.519   4.863  12.329 -2.3021 -0.2396 -0.4986
19009TIP3    H278443   3.432   4.742  12.356 -0.2529 -1.7951 -0.6771
19010TIP3   OH278444   5.349   3.422   4.343  0.1316  0.3938 -0.8085
19010TIP3    H178445   5.369   3.490   4.407 -0.6772 -0.1074  0.0135
19010TIP3    H278446   5.257   3.401   4.360  0.8366 -2.2083  0.2543
19011TIP3   OH278447   4.076   3.648   0.793  0.0476 -0.0038 -0.3050
19011TIP3    H178448   4.152   3.642   0.736  0.0031 -0.4945 -0.3172
19011TIP3    H278449   4.008   3.690   0.740 -0.2542 -1.1988 -0.8981
19012TIP3   OH278450   6.725   1.134  13.574 -0.0520 -0.7563  0.3092
19012TIP3    H178451   6.696   1.043  13.575  1.3404 -1.2382  1.5350
19012TIP3    H278452   6.649   1.184  13.545 -1.5553 -2.0940  1.7234
19013TIP3   OH278453   0.503   3.782  15.791 -0.6289 -0.7132  0.8617
19013TIP3    H178454   0.516   3.807  15.883  0.5254  0.2304  0.4782
19013TIP3    H278455   0.422   3.825  15.766  0.5507  1.5577  0.6551
19014TIP3   OH278456   2.484   2.570   2.089 -0.1387  0.1296  0.3448
19014TIP3    H178457   2.538   2.523   2.153  0.1723  0.1687  0.1153
19014TIP3    H278458   2.407   2.514   2.078  0.3162 -0.4368 -0.0740
19015TIP3   OH278459   5.767   5.716   4.699 -0.6199  0.5231  0.4134
19015TIP3    H178460   5.695   5.710   4.636 -1.0222  2.9241  0.5767
19015TIP3    H278461   5.840   5.755   4.650  0.0347 -0.3058  0.6992
19016TIP3   OH278462   4.116   2.724  11.375  0.0480  0.1399 -0.3579
19016TIP3    H178463   4.131   2.785  11.303 -1.9895  1.9949  0.6780
19016TIP3    H278464   4.030   2.687  11.357 -0.6431  0.8721  1.2359
19017TIP3   OH278465   6.564   3.772  16.874  0.2543  0.0436 -0.1907
19017TIP3    H178466   6.566   3.725  16.791 -1.7135 -2.0542  0.8277
19017TIP3    H278467   6.529   3.859  16.852  0.8952 -0.0383 -1.6643
19018TIP3   OH278468   4.266   0.439  11.137  0.0279 -0.5638 -0.0133
19018TIP3    H178469   4.320   0.516  11.120  0.6264 -0.9923 -0.0866
19018TIP3    H278470   4.326   0.375  11.175 -0.0211 -1.6986 -1.7570
19019TIP3   OH278471   1.991   4.176   4.074 -0.1381 -0.4127  0.6289
19019TIP3    H178472   1.974   4.135   4.159 -1.3583 -0.6230  0.3104
19019TIP3    H278473   1.929   4.134   4.015 -0.1138  0.5671 -0.1155
19020TIP3   OH278474   0.612   6.306   0.249  0.1680 -0.0837 -0.1367
19020TIP3    H178475   0.601   6.277   0.339  0.8637  2.3789  0.8118
19020TIP3    H278476   0.692   6.262   0.219  0.8182  0.2826  1.0012
19021TIP3   OH278477   0.225   5.610  14.900 -0.6466  0.0929  0.1096
19021TIP3    H178478   0.310   5.655  14.909 -0.7262  0.2077  0.2984
19021TIP3    H278479   0.235   5.530  14.952 -0.8481  0.3881  0.6138
19022TIP3   OH278480   1.753   5.063   5.851 -0.1574 -0.3607 -0.0154
19022TIP3    H178481   1.700   5.093   5.925  0.5529 -0.9602  0.7556
19022TIP3    H278482   1.835   5.110   5.859 -0.8233  1.2404 -1.7234
19023TIP3   OH278483   2.225   1.970   5.499 -0.2312  0.0977  0.3133
19023TIP3    H178484   2.243   1.926   5.582 -0.7087  0.6417  0.7102
19023TIP3    H278485   2.229   1.900   5.434  3.5367  0.1510  0.2689
19024TIP3   OH278486   2.883   1.488   0.546 -0.3740  0.4333 -0.1928
19024TIP3    H178487   2.807   1.497   0.603 -0.1842  1.4958 -0.0841
19024TIP3    H278488   2.890   1.573   0.502  1.7821  1.0237  1.1333
19025TIP3   OH278489   5.372   6.186   3.042 -0.8199 -0.3060 -0.3329
19025TIP3    H178490   5.438   6.171   3.110 -1.6663 -1.1421  0.3235
19025TIP3    H278491   5.337   6.099   3.023 -2.0472  0.1810 -0.3520
19026TIP3   OH278492   2.754   0.332  16.613 -0.4232  0.0546  0.4228
19026TIP3    H178493   2.806   0.404  16.578 -1.2615  1.2304  1.5145
19026TIP3    H278494   2.765   0.261  16.549  0.9321  0.9207 -0.3436
19027TIP3   OH278495   3.991   2.070   6.393 -0.2750 -0.2263  0.4057
19027TIP3    H178496   4.086   2.082   6.403  0.2708 -2.7727 -0.9356
19027TIP3    H278497   3.968   2.128   6.321  0.5819 -0.6664 -0.2452
19028TIP3   OH278498   6.687   2.765  10.797 -0.8148  0.5317 -0.2401
19028TIP3    H178499   6.595   2.736  10.793 -0.4438 -0.5923 -1.2567
19028TIP3    H278500   6.690   2.841  10.739 -0.9019 -0.0977 -1.1042
19029TIP3   OH278501   1.321   1.983  12.278 -0.4634 -0.2147 -0.0306
19029TIP3    H178502   1.402   1.945  12.312 -0.1191  0.5770  0.0440
19029TIP3    H278503   1.263   1.989  12.354 -0.1162  0.4472  0.1899
19030TIP3   OH278504   2.944   5.993  13.960  0.8080  0.5218  0.2827
19030TIP3    H178505   2.960   5.910  13.915 -1.9514  0.8761 -1.6560
19030TIP3    H278506   2.960   6.060  13.894  1.4074  1.4451  1.3306
19031TIP3   OH278507   5.986   5.178   4.972 -0.3598 -0.1815  0.5248
19031TIP3    H178508   6.023   5.160   5.059 -0.6726 -1.3116  0.4342
19031TIP3    H278509   5.892   5.170   4.984 -0.4659  0.5974  0.2773
19032TIP3   OH278510   2.759   6.070  16.847 -0.2223  0.1838  0.3455
19032TIP3    H178511   2.705   6.099  16.920 -0.8915  0.7418 -0.3623
19032TIP3    H278512   2.801   6.150  16.815  0.9928 -0.2280  0.8442
19033TIP3   OH278513   4.127   1.682  15.491  0.3817 -0.1591 -0.3569
19033TIP3    H178514   4.217   1.652  15.498  0.4027 -0.3718 -1.3482
19033TIP3    H278515   4.104   1.711  15.579  2.0633  1.7757 -0.5024
19034TIP3   OH278516   5.406   5.189   2.059 -0.1139 -0.2499 -0.0926
19034TIP3    H178517   5.316   5.168   2.034 -0.3981 -0.1742  0.8247
19034TIP3    H278518   5.451   5.204   1.976 -0.6224 -1.5829 -0.6420
19035TIP3   OH278519   0.437   4.301   3.067  0.1095 -0.0424  0.8984
19035TIP3    H178520   0.377   4.375   3.059 -0.1254 -0.3855 -0.7056
19035TIP3    H278521   0.383   4.224   3.053  0.6244 -0.4535  1.1269
19036TIP3   OH278522   0.500   3.100  12.096 -0.1360  0.1179  0.3465
19036TIP3    H178523   0.568   3.033  12.106  0.1258  0.5199  1.3857
19036TIP3    H278524   0.423   3.053  12.067 -0.0082 -0.6635  1.2523
19037TIP3   OH278525   0.571   3.179  13.282 -0.2066 -0.7187  0.0693
19037TIP3    H178526   0.639   3.112  13.279  0.9054  0.1937  2.4735
19037TIP3    H278527   0.560   3.206  13.191  0.1739 -3.2445 -0.8195
19038TIP3   OH278528   6.607   4.798  15.426  0.0689  1.0280 -0.1477
19038TIP3    H178529   6.660   4.722  15.401 -0.2751  0.8091 -0.2086
19038TIP3    H278530   6.649   4.831  15.506  1.3578  1.9121 -1.1309
19039TIP3   OH278531   4.401   2.869   1.463 -0.4520 -0.2185  0.6268
19039TIP3    H178532   4.374   2.960   1.479  0.9242  0.3066  0.1133
19039TIP3    H278533   4.418   2.834   1.550  1.1001  0.7226  0.7523
19040TIP3   OH278534   4.791   6.222   3.475  0.1215 -0.4921 -0.3750
19040TIP3    H178535   4.871   6.236   3.525  0.3343  0.1543 -0.8793
19040TIP3    H278536   4.754   6.141   3.511  0.5763 -0.3637  0.4078
19041TIP3   OH278537   1.089   1.277   6.106  0.5405 -0.7684  0.1358
19041TIP3    H178538   1.117   1.246   6.192 -0.0172 -0.1228  0.5651
19041TIP3    H278539   1.075   1.371   6.118  0.2236 -0.7155 -0.5962
19042TIP3   OH278540   3.484   4.387   4.549 -0.6568  0.0967 -0.5546
19042TIP3    H178541   3.513   4.478   4.542 -0.2897 -0.0107 -0.4689
19042TIP3    H278542   3.561   4.336   4.526 -0.9103 -0.1936 -0.7689
19043TIP3   OH278543   3.576   5.975  13.726 -0.3915 -0.1470  0.4131
19043TIP3    H178544   3.619   5.910  13.671 -1.8331 -1.8475  1.2217
19043TIP3    H278545   3.628   6.055  13.714  3.3752 -2.1497  1.8081
19044TIP3   OH278546   0.598   0.574  16.961  0.5374  0.0932  0.8453
19044TIP3    H178547   0.547   0.512  16.909 -0.1907  2.2673 -1.2680
19044TIP3    H278548   0.690   0.552  16.943  0.2874 -0.0310 -0.3382
19045TIP3   OH278549   1.072   1.420  11.374 -0.4138  0.0371  0.1882
19045TIP3    H178550   1.142   1.460  11.322 -1.8946  1.8617 -0.5249
19045TIP3    H278551   1.072   1.328  11.349  2.2111 -0.2177  0.8039
19046TIP3   OH278552   4.526   2.909  13.246  0.3640  0.1512  0.2274
19046TIP3    H178553   4.535   2.862  13.329 -3.5054 -1.0942  0.1222
19046TIP3    H278554   4.573   2.855  13.183 -1.2361 -1.9458  0.7180
19047TIP3   OH278555   4.050   1.203  15.635  0.2980 -0.4225  0.0203
19047TIP3    H178556   4.092   1.230  15.717 -0.3125 -1.0542  0.5477
19047TIP3    H278557   4.034   1.285  15.589 -0.0405  0.0031  0.8728
19048TIP3   OH278558   4.630   4.033   5.083 -0.0022  0.3732  0.0730
19048TIP3    H178559   4.556   3.990   5.126 -0.7555  0.4990 -1.0419
19048TIP3    H278560   4.707   3.995   5.124 -0.6699 -1.0380  0.0748
19049TIP3   OH278561   0.278   5.305   4.184  0.5277 -0.2084  0.0573
19049TIP3    H178562   0.212   5.255   4.136 -0.4282 -0.6479  1.7358
19049TIP3    H278563   0.354   5.307   4.126 -0.6603 -0.4389 -1.5650
19050TIP3   OH278564   4.168   2.814  13.602  0.0558  0.6329 -0.1342
19050TIP3    H178565   4.118   2.741  13.639 -1.4337  2.1654  1.0470
19050TIP3    H278566   4.249   2.774  13.569 -1.4586 -1.8184 -1.1871
19051TIP3   OH278567   3.105   3.513   2.446  0.7264  0.0678 -0.0753
19051TIP3    H178568   3.110   3.495   2.540  0.7590  1.4128  0.2044
19051TIP3    H278569   3.060   3.597   2.440  0.3607 -0.1977 -1.2957
19052TIP3   OH278570   3.782   3.053   4.319 -0.7249  0.4010 -0.1319
19052TIP3    H178571   3.717   3.044   4.249 -0.8525 -1.1432  0.1635
19052TIP3    H278572   3.858   3.004   4.287  0.3970  2.3052 -0.5364
19053TIP3   OH278573   1.946   5.997  15.310 -0.0629  0.4863 -0.4004
19053TIP3    H178574   2.007   5.963  15.376 -0.6318 -1.4264 -0.7692
19053TIP3    H278575   1.998   6.000  15.230 -0.2171 -0.3368 -0.5388
19054TIP3   OH278576   2.049   4.335  16.940  0.0932 -0.1580  0.2672
19054TIP3    H178577   2.030   4.313  17.031  1.3616 -1.0981  0.3215
19054TIP3    H278578   2.140   4.363  16.940 -0.3948  1.5788 -0.4451
19055TIP3   OH278579   1.818   1.580  15.877  0.4477 -0.3014 -0.4716
19055TIP3    H178580   1.857   1.520  15.813 -0.4691 -1.0358 -0.3680
19055TIP3    H278581   1.892   1.628  15.914  1.5915 -3.2742  1.4574
19056TIP3   OH278582   1.650   1.343   5.609  0.1989  0.1592 -0.3017
19056TIP3    H178583   1.675   1.254   5.586  0.4854 -0.2201  1.3614
19056TIP3    H278584   1.554   1.339   5.617  0.2159 -0.0133 -0.1760
19057TIP3   OH278585   2.398   5.506   0.801 -0.3979 -0.0777  0.3850
19057TIP3    H178586   2.369   5.452   0.727  2.3815 -1.1969 -0.0086
19057TIP3    H278587   2.459   5.569   0.762 -1.9180  1.9908  1.1903
19058TIP3   OH278588   3.697   1.270  16.968  0.0287 -0.3895 -0.5391
19058TIP3    H178589   3.681   1.217  16.890 -1.0137 -0.6592 -0.1584
19058TIP3    H278590   3.793   1.270  16.978  0.2971  0.8240 -2.6166
19059TIP3   OH278591   6.525   1.415  12.850 -0.4724 -0.5424  0.1736
19059TIP3    H178592   6.498   1.324  12.863 -0.4179 -0.5088  0.5425
19059TIP3    H278593   6.618   1.409  12.826 -0.2499 -0.5446  1.0028
19060TIP3   OH278594   5.375   1.687  14.243 -0.0988  0.0714  0.3650
19060TIP3    H178595   5.442   1.746  14.209 -0.3437  0.6259  0.8356
19060TIP3    H278596   5.424   1.608  14.268  0.1906 -0.0326 -0.5079
19061TIP3   OH278597   3.555   6.484  14.926  0.2416 -0.5134  0.4626
19061TIP3    H178598   3.586   6.438  15.003 -2.1288 -1.7870  0.7392
19061TIP3    H278599   3.618   6.462  14.857  2.4108  0.6714  1.9601
19062TIP3   OH278600   3.843   3.325  12.722 -0.2156  0.2336 -0.0696
19062TIP3    H178601   3.918   3.361  12.676 -0.9453  1.9930  0.0351
19062TIP3    H278602   3.784   3.295  12.652  0.8506 -1.8797 -0.1454
19063TIP3   OH278603   1.514   2.209   4.786 -0.4637 -0.6794 -0.7675
19063TIP3    H178604   1.421   2.211   4.766 -0.4928 -0.2536 -0.5990
19063TIP3    H278605   1.535   2.299   4.811 -0.2378 -1.0004  0.2276
19064TIP3   OH278606   4.633   5.379   6.348  0.5635 -0.6996  0.3299
19064TIP3    H178607   4.586   5.322   6.409  1.8705 -0.0827  1.9716
19064TIP3    H278608   4.725   5.367   6.369  0.8770  2.5453  1.2937
19065TIP3   OH278609   5.137   1.334  12.556 -0.6359 -0.2864  0.1562
19065TIP3    H178610   5.223   1.292  12.563 -0.7696 -0.8129 -1.1058
19065TIP3    H278611   5.093   1.312  12.638 -0.8813 -3.0766 -0.6242
19066TIP3   OH278612   4.545   4.598  16.703  0.0012 -0.1024 -0.7684
19066TIP3    H178613   4.629   4.637  16.678 -0.1282  1.3103  0.7714
19066TIP3    H278614   4.481   4.640  16.646  0.2142 -0.2878 -1.1435
19067TIP3   OH278615   1.718   6.536  13.674  0.4546 -0.2704  0.4071
19067TIP3    H178616   1.754   6.612  13.628 -0.8064  1.2292  1.7789
19067TIP3    H278617   1.766   6.532  13.756 -1.1545  0.6178  1.4336
19068TIP3   OH278618   3.620   4.477   3.215 -0.1728 -0.2374 -0.4249
19068TIP3    H178619   3.684   4.439   3.274 -0.2890  0.1795 -0.0214
19068TIP3    H278620   3.652   4.456   3.128  0.4003 -0.2203 -0.2233
19069TIP3   OH278621   6.774   4.458  12.527 -0.1736  0.9432 -0.0895
19069TIP3    H178622   6.796   4.521  12.596  0.4848  1.3234 -0.6359
19069TIP3    H278623   6.744   4.513  12.454  1.0448  0.6747 -0.8092
19070TIP3   OH278624   3.943   2.648   0.680  0.1766 -0.0060 -0.1932
19070TIP3    H178625   3.969   2.720   0.738 -0.4860  0.7829 -0.8431
19070TIP3    H278626   3.970   2.569   0.726 -0.9747  0.5490  1.5558
19071TIP3   OH278627   0.095   5.528   6.162 -0.3034 -0.3998  0.0910
19071TIP3    H178628   0.157   5.505   6.093 -1.5522 -0.8157 -0.9192
19071TIP3    H278629   0.062   5.444   6.194  1.3386 -0.3102  2.2801
19072TIP3   OH278630   6.113   5.111   3.284  0.1498 -0.0481  0.4847
19072TIP3    H178631   6.203   5.132   3.306 -0.3180  0.4223  2.1240
19072TIP3    H278632   6.083   5.054   3.356 -1.4688  1.5288  1.1391
19073TIP3   OH278633   0.381   2.213  10.508  0.1600 -0.1286 -0.4434
19073TIP3    H178634   0.421   2.213  10.595 -0.0687 -0.7210 -0.3344
19073TIP3    H278635   0.447   2.174  10.451  0.1406 -0.1401 -0.4577
19074TIP3   OH278636   1.945   3.822  11.261 -0.0427 -0.1776 -0.5195
19074TIP3    H178637   1.901   3.739  11.281  1.6819 -0.9951  0.0153
19074TIP3    H278638   2.003   3.802  11.188 -0.6604  0.9383 -1.3473
19075TIP3   OH278639   2.069   0.644   0.834 -0.1544 -0.2866  0.1507
19075TIP3    H178640   2.148   0.641   0.888 -0.6372 -0.4361  0.8664
19075TIP3    H278641   2.050   0.737   0.826 -2.5877 -0.2361  4.0710
19076TIP3   OH278642   4.416   3.671   5.550  0.2160 -0.2084 -0.1209
19076TIP3    H178643   4.485   3.672   5.616 -0.9500  2.8651  1.2632
19076TIP3    H278644   4.335   3.663   5.600 -0.6162  0.3447 -1.3357
19077TIP3   OH278645   4.942   3.192  10.750 -0.0016 -0.3837 -0.2278
19077TIP3    H178646   4.875   3.176  10.683 -0.1924 -2.8432  0.4744
19077TIP3    H278647   4.949   3.288  10.755 -2.1095 -0.1100 -1.6333
19078TIP3   OH278648   5.393   1.299   1.214  0.5726 -0.6713  0.2088
19078TIP3    H178649   5.453   1.299   1.139  1.1361 -2.3462  0.6173
19078TIP3    H278650   5.448   1.325   1.288  0.6749 -1.6203  0.4796
19079TIP3   OH278651   0.697   5.961  14.130 -0.0137 -0.3137  0.3803
19079TIP3    H178652   0.628   5.905  14.166  0.9248 -1.4090  0.4905
19079TIP3    H278653   0.778   5.914  14.147  0.7893  1.0049  0.3259
19080TIP3   OH278654   0.505   5.287   4.359 -0.2092 -0.3541 -0.3224
19080TIP3    H178655   0.418   5.288   4.320 -0.1743 -1.7103 -0.4822
19080TIP3    H278656   0.505   5.361   4.419 -1.0869  0.3179 -1.1262
19081TIP3   OH278657   0.712   3.509  17.055  0.3910  0.2368  0.3309
19081TIP3    H178658   0.675   3.463  16.981 -0.3856  1.5799 -0.1581
19081TIP3    H278659   0.775   3.448  17.093 -0.9518 -1.4041  0.0446
19082TIP3   OH278660   4.641   6.170   0.733  0.4336  0.2113  0.2255
19082TIP3    H178661   4.722   6.149   0.685  0.1390  1.6366 -0.9655
19082TIP3    H278662   4.581   6.203   0.666 -1.0758 -0.5943  1.1337
19083TIP3   OH278663   4.518   3.046  12.493  0.5805  0.6720  0.0515
19083TIP3    H178664   4.564   3.129  12.499  0.6082  0.5571  1.7330
19083TIP3    H278665   4.566   2.987  12.551 -0.8689  0.1923  0.8121
19084TIP3   OH278666   3.825   5.843  12.968  0.0278 -0.7102 -0.7281
19084TIP3    H178667   3.802   5.935  12.982  2.1108 -0.3456  0.7720
19084TIP3    H278668   3.750   5.807  12.921 -1.5591  1.3574  0.0427
19085TIP3   OH278669   0.593   3.553  12.525  0.0731 -0.2148 -0.0644
19085TIP3    H178670   0.652   3.547  12.450  1.1054 -0.0778  0.7164
19085TIP3    H278671   0.508   3.579  12.487  0.4227 -0.7347 -1.2365
19086TIP3   OH278672   3.360   4.394   0.735 -0.1058 -0.1641  0.0728
19086TIP3    H178673   3.323   4.467   0.686  1.4263  1.8267  1.7033
19086TIP3    H278674   3.291   4.369   0.797 -0.0808  0.9900  0.5807
19087TIP3   OH278675   2.133   4.828   2.311  0.0465  0.9315  0.3044
19087TIP3    H178676   2.136   4.786   2.397 -2.2633  2.1047  1.0552
19087TIP3    H278677   2.062   4.783   2.266  0.3734  1.2115 -0.4992
19088TIP3   OH278678   4.972   3.463  17.057  0.5021  0.1249 -0.0285
19088TIP3    H178679   5.059   3.436  17.087  0.3892  1.6726  1.9422
19088TIP3    H278680   4.918   3.384  17.063  1.2327 -0.3201  1.0457
19089TIP3   OH278681   2.432   4.521  11.412  0.0269 -0.0948  0.2971
19089TIP3    H178682   2.507   4.519  11.471  0.7981 -1.4396 -0.6815
19089TIP3    H278683   2.364   4.567  11.461  1.3665  0.8558  1.3323
19090TIP3   OH278684   1.128   5.173  14.242  0.1179 -0.1005 -0.2207
19090TIP3    H178685   1.131   5.084  14.209 -0.4835  0.0589 -0.7178
19090TIP3    H278686   1.188   5.222  14.186 -1.3424  0.2925 -1.4984
19091TIP3   OH278687   3.677   0.949  16.287 -0.1837  0.5044 -0.5862
19091TIP3    H178688   3.760   0.958  16.334 -0.5283  1.1012 -0.0783
19091TIP3    H278689   3.626   1.025  16.314 -1.4960 -0.6624  0.3450
19092TIP3   OH278690   6.302   1.507   1.446  0.2615  0.0693 -0.0715
19092TIP3    H178691   6.361   1.433   1.457  0.6462  0.3603 -0.1860
19092TIP3    H278692   6.265   1.496   1.358  3.5822  2.3172 -1.9771
19093TIP3   OH278693   3.114   5.231  15.608 -0.1529 -0.2543  0.3133
19093TIP3    H178694   3.137   5.138  15.606  1.2339  0.0741 -0.2916
19093TIP3    H278695   3.134   5.258  15.698  1.7649 -0.0247 -0.1455
19094TIP3   OH278696   0.680   6.747   3.110  0.3132  0.1852 -0.0889
19094TIP3    H178697   0.702   6.840   3.120  0.1978  0.4268 -1.7342
19094TIP3    H278698   0.675   6.713   3.199 -0.1020  1.8643  0.5569
19095TIP3   OH278699   5.856   3.890  16.796 -0.0859 -0.3696 -0.6747
19095TIP3    H178700   5.864   3.831  16.871  0.9071 -0.3750 -0.7691
19095TIP3    H278701   5.764   3.918  16.797 -0.2446 -0.8827  0.1500
19096TIP3   OH278702   3.845   3.911   4.707 -0.6786  0.4922 -0.0779
19096TIP3    H178703   3.820   3.997   4.740 -1.3930  0.9164 -1.6110
19096TIP3    H278704   3.939   3.905   4.723 -0.7684  1.2078  0.7975
19097TIP3   OH278705   0.660   3.663  15.577  0.2435 -0.0994 -0.4026
19097TIP3    H178706   0.685   3.580  15.618  1.2681  0.8928  1.0997
19097TIP3    H278707   0.591   3.697  15.634 -0.7514 -0.2740 -1.4737
19098TIP3   OH278708   3.045   5.739   2.107  0.6029  0.4039 -0.2299
19098TIP3    H178709   3.053   5.812   2.168  2.0020  0.0570  0.0594
19098TIP3    H278710   3.026   5.663   2.163 -3.7374  0.8719 -0.7441
19099TIP3   OH278711   1.765   2.042   3.138 -0.3785 -0.0246 -0.0122
19099TIP3    H178712   1.795   2.126   3.103 -2.2341  0.4402 -0.6295
19099TIP3    H278713   1.712   2.005   3.068 -0.1812 -1.3984  0.5295
19100TIP3   OH278714   0.467   2.547  13.683  0.2468  0.5434 -0.0961
19100TIP3    H178715   0.516   2.592  13.615  1.5483  2.3839  1.9606
19100TIP3    H278716   0.387   2.518  13.638  0.3365  2.9702 -2.0804
19101TIP3   OH278717   0.683   5.906   1.427 -0.8535 -0.6338  0.2363
19101TIP3    H178718   0.674   5.959   1.347  1.6490  1.3150  1.1096
19101TIP3    H278719   0.708   5.819   1.395 -2.1287 -0.5425 -1.1426
19102TIP3   OH278720   4.792   4.057   1.805 -0.1004 -0.1178  0.5340
19102TIP3    H178721   4.731   3.988   1.779  0.7630 -0.7276  0.0656
19102TIP3    H278722   4.845   4.017   1.874 -0.1201  0.3485  0.8192
19103TIP3   OH278723   6.051   2.275  16.124  0.3840  0.5478 -0.3523
19103TIP3    H178724   6.047   2.354  16.177  0.7420  0.0502  0.4220
19103TIP3    H278725   5.996   2.212  16.171  0.3128  0.2466 -0.8278
19104TIP3   OH278726   2.800   4.736  16.202 -0.2812  0.5729 -0.7728
19104TIP3    H178727   2.724   4.745  16.258  0.6084  1.0478  0.4056
19104TIP3    H278728   2.839   4.824  16.199  0.4843  0.2413 -0.9616
19105TIP3   OH278729   3.690   2.991  16.323 -0.0605 -0.4516 -0.5348
19105TIP3    H178730   3.737   2.921  16.278 -1.0909 -1.1882 -0.4904
19105TIP3    H278731   3.597   2.974  16.305 -0.3000  1.5197 -1.4155
19106TIP3   OH278732   3.061   3.529  12.158 -0.0064 -1.1766  0.4062
19106TIP3    H178733   2.965   3.522  12.166 -0.1066 -0.8312 -0.3723
19106TIP3    H278734   3.074   3.570  12.073  0.8322 -0.8496  0.6901
19107TIP3   OH278735   0.778   4.699   2.755  0.5180 -0.0814  0.4118
19107TIP3    H178736   0.746   4.610   2.771 -0.7619 -0.1161 -1.9254
19107TIP3    H278737   0.864   4.687   2.715 -0.2406 -0.3933 -1.2192
19108TIP3   OH278738   4.238   2.687  16.232 -0.2153 -0.1795 -0.0202
19108TIP3    H178739   4.146   2.662  16.245 -0.9627  2.0036 -0.6307
19108TIP3    H278740   4.235   2.755  16.165  1.8576  0.0489  0.0485
19109TIP3   OH278741   0.217   0.174  13.863 -0.3541 -0.2224 -0.3771
19109TIP3    H178742   0.133   0.159  13.907 -0.8867  1.3608 -0.8096
19109TIP3    H278743   0.207   0.130  13.778 -0.1378 -1.3713  0.1632
19110TIP3   OH278744   1.338   3.065   1.586  0.3878  0.0101  0.7114
19110TIP3    H178745   1.293   3.148   1.606  1.1034  0.9832 -1.4822
19110TIP3    H278746   1.273   3.013   1.539  0.2548 -0.2996  1.2263
19111TIP3   OH278747   6.197   4.050  15.674 -0.1106 -0.0543  0.0031
19111TIP3    H178748   6.169   4.084  15.589  0.1524 -0.9751 -0.4585
19111TIP3    H278749   6.288   4.025  15.661  0.2289  0.6941  0.8341
19112TIP3   OH278750   1.857   3.330   6.000  0.6127  0.2794  0.1428
19112TIP3    H178751   1.784   3.365   6.050  0.4409 -0.2145  0.2400
19112TIP3    H278752   1.935   3.368   6.042  0.3776  2.9673 -1.5773
19113TIP3   OH278753   1.345   5.979  10.780 -0.6514 -0.2328  0.3997
19113TIP3    H178754   1.285   5.905  10.789 -1.7512  0.6156  0.3419
19113TIP3    H278755   1.419   5.958  10.837 -0.9347 -1.3740  0.3650
19114TIP3   OH278756   3.889   1.524   5.389 -0.3582  0.2321  0.0575
19114TIP3    H178757   3.984   1.518   5.397 -0.4963 -1.6921  0.9772
19114TIP3    H278758   3.865   1.447   5.337 -1.4248  0.5141  0.1127
19115TIP3   OH278759   1.326   2.778   3.298  0.2177 -0.3108 -0.5255
19115TIP3    H178760   1.344   2.797   3.390  0.1152  0.0082 -0.5673
19115TIP3    H278761   1.231   2.790   3.290  0.2944  0.1652 -0.7809
19116TIP3   OH278762   3.416   6.442   0.733 -0.2852  0.7104 -0.4797
19116TIP3    H178763   3.458   6.464   0.650  2.0202  2.7545  1.0688
19116TIP3    H278764   3.461   6.363   0.763 -0.7179  0.3029 -0.8936
19117TIP3   OH278765   3.586   0.377   3.017  0.2786 -0.4913 -0.6426
19117TIP3    H178766   3.531   0.334   2.951  1.5645 -1.8487 -0.8961
19117TIP3    H278767   3.601   0.309   3.083 -0.1698  0.5533  0.5689
19118TIP3   OH278768   3.917   6.296  16.894  0.7290  0.0870  0.5788
19118TIP3    H178769   3.970   6.355  16.946  0.3629  1.1294 -0.2040
19118TIP3    H278770   3.837   6.344  16.876  0.1667 -0.8713  0.4207
19119TIP3   OH278771   2.285   5.708   0.335 -0.3547 -0.6027  0.2203
19119TIP3    H178772   2.354   5.762   0.372  0.4095 -2.0288  0.9585
19119TIP3    H278773   2.248   5.662   0.410 -2.1137  0.1049 -0.1569
19120TIP3   OH278774   2.664   6.063  15.724 -0.1717  0.2567 -0.3666
19120TIP3    H178775   2.608   5.985  15.728 -2.1534  1.6612  2.7808
19120TIP3    H278776   2.607   6.132  15.691  1.3765  0.6406 -2.4376
19121TIP3   OH278777   3.379   4.772  16.640  0.4794 -0.2173 -0.2335
19121TIP3    H178778   3.297   4.802  16.600  0.4623 -1.2806 -1.0362
19121TIP3    H278779   3.398   4.838  16.706  0.6483  1.7727 -2.1510
19122TIP3   OH278780   1.724   4.132  11.656 -0.3819 -0.2646 -0.1381
19122TIP3    H178781   1.780   4.087  11.593  2.5115  1.6089  0.8916
19122TIP3    H278782   1.755   4.103  11.741 -0.7583  1.0282  0.4675
19123TIP3   OH278783   5.309   5.511   5.550 -0.2962 -0.0833  0.0166
19123TIP3    H178784   5.307   5.606   5.564  1.7924 -0.1776  1.4886
19123TIP3    H278785   5.228   5.480   5.590 -0.7950  1.0339 -0.0757
19124TIP3   OH278786   5.828   3.683   1.989 -0.0745  0.4542 -0.7873
19124TIP3    H178787   5.842   3.620   1.918  2.0273 -0.8163  0.6584
19124TIP3    H278788   5.782   3.756   1.947  0.0862 -0.7220 -3.1887
19125TIP3   OH278789   3.138   5.703  12.322 -0.2520 -0.0199 -0.2487
19125TIP3    H178790   3.047   5.715  12.350 -0.8398 -0.1935 -1.9849
19125TIP3    H278791   3.143   5.612  12.293  0.7537 -0.2996  0.7247
19126TIP3   OH278792   4.658   2.388  16.261  0.2835  0.4279  0.2782
19126TIP3    H178793   4.571   2.395  16.299 -0.3879 -0.6340 -0.9815
19126TIP3    H278794   4.647   2.414  16.169  1.6396  1.8942  0.4849
19127TIP3   OH278795   4.875   2.030  15.941  0.1201  0.4012  0.0522
19127TIP3    H178796   4.801   1.973  15.964 -0.7389  0.6613 -1.8655
19127TIP3    H278797   4.852   2.115  15.979 -0.0962  0.2356  0.2943
19128TIP3   OH278798   6.260   3.179   1.787  0.2358 -0.7625  0.4740
19128TIP3    H178799   6.309   3.180   1.869 -1.0555 -0.5981  1.2686
19128TIP3    H278800   6.281   3.262   1.745 -0.4895 -0.0305  1.5121
19129TIP3   OH278801   2.425   1.397   3.080 -0.0739 -0.5268 -0.1459
19129TIP3    H178802   2.439   1.442   2.997 -0.4516 -1.5923 -0.8004
19129TIP3    H278803   2.332   1.373   3.079 -0.1750 -0.2288  0.7531
19130TIP3   OH278804   6.448   5.571   5.568  0.2892  0.0059 -0.0903
19130TIP3    H178805   6.492   5.494   5.531  0.7225 -0.6170  1.6025
19130TIP3    H278806   6.516   5.613   5.621  0.6989  2.7981 -2.5739
19131TIP3   OH278807   4.444   2.395   1.856 -0.4650 -0.4637  0.0597
19131TIP3    H178808   4.425   2.408   1.762  0.6583 -1.9294 -0.3958
19131TIP3    H278809   4.399   2.468   1.899 -2.1043 -0.4824 -1.4889
19132TIP3   OH278810   2.743   3.862  11.495  0.4106  0.4888  0.3414
19132TIP3    H178811   2.650   3.880  11.509 -0.0535 -0.4570 -1.2802
19132TIP3    H278812   2.756   3.875  11.401  1.7332 -0.1833  0.4080
19133TIP3   OH278813   2.611   4.527  16.875 -0.3628  0.0242  0.1880
19133TIP3    H178814   2.622   4.483  16.791 -1.0416  1.4311 -0.6755
19133TIP3    H278815   2.581   4.615  16.853 -0.4144  0.4855  1.9024
19134TIP3   OH278816   2.888   3.365   4.353 -0.2220 -0.1118 -0.0028
19134TIP3    H178817   2.862   3.452   4.324 -1.7259  0.1332  1.9117
19134TIP3    H278818   2.838   3.305   4.298 -0.6652  0.2690 -0.0161
19135TIP3   OH278819   6.152   5.353  14.057 -0.0314 -0.1414  0.2547
19135TIP3    H178820   6.211   5.357  14.132  1.0707 -1.0892 -0.5214
19135TIP3    H278821   6.198   5.298  13.994 -0.8774  0.7113 -1.1584
19136TIP3   OH278822   0.832   0.890   2.404  0.3699 -0.1303  0.7627
19136TIP3    H178823   0.782   0.970   2.389 -0.3586 -0.2699  2.2163
19136TIP3    H278824   0.908   0.897   2.347 -1.1363  0.2387 -1.3111
19137TIP3   OH278825   5.899   1.347  16.054  0.1834  0.5663  0.9211
19137TIP3    H178826   5.915   1.429  16.008 -1.4877  1.0451  1.1387
19137TIP3    H278827   5.899   1.370  16.147 -1.1866  0.5011  0.9463
19138TIP3   OH278828   0.668   3.362   1.184  0.5489  0.5512  0.3955
19138TIP3    H178829   0.639   3.309   1.109  1.9691  0.3294 -0.0339
19138TIP3    H278830   0.643   3.311   1.261  1.0102 -0.2811  0.0070
19139TIP3   OH278831   3.962   5.995  16.834 -0.2862  0.0474  0.2986
19139TIP3    H178832   3.948   6.067  16.896 -0.9748  1.6180 -1.5649
19139TIP3    H278833   4.016   5.932  16.882  1.6527  2.4842  1.5743
19140TIP3   OH278834   3.460   2.565  12.377  0.2253  0.2451  0.2998
19140TIP3    H178835   3.442   2.619  12.454  0.4098 -0.7208  1.0318
19140TIP3    H278836   3.438   2.622  12.303  0.6201  1.3946  1.0402
19141TIP3   OH278837   4.224   0.670   1.904  0.1779  0.4781 -0.6886
19141TIP3    H178838   4.257   0.680   1.993 -0.9126  3.2713 -0.4935
19141TIP3    H278839   4.301   0.680   1.848  0.7530 -0.5809 -0.1194
19142TIP3   OH278840   1.803   5.288  14.948  0.0417  0.3348  0.0779
19142TIP3    H178841   1.829   5.314  14.860 -0.0801  1.5690  0.3784
19142TIP3    H278842   1.868   5.330  15.005 -1.1039  1.3184  0.6859
19143TIP3   OH278843   3.605   1.207   6.054 -0.2603 -0.4847  0.2518
19143TIP3    H178844   3.683   1.259   6.036 -0.3320 -0.7583 -0.9409
19143TIP3    H278845   3.636   1.135   6.109  0.2773 -0.4409  0.0118
19144TIP3   OH278846   1.608   1.400   3.983  0.4241 -0.0703  0.2138
19144TIP3    H178847   1.634   1.437   4.067  0.5147 -0.1968  0.2414
19144TIP3    H278848   1.526   1.445   3.962  0.1903 -0.3247  0.5612
19145TIP3   OH278849   1.339   5.437  12.105  0.2906 -0.2353 -0.2351
19145TIP3    H178850   1.278   5.389  12.049 -0.2365  0.3409 -0.1767
19145TIP3    H278851   1.305   5.422  12.194  2.0338 -2.4722  0.1502
19146TIP3   OH278852   1.911   5.852  12.897 -0.4708 -0.1719 -0.2028
19146TIP3    H178853   1.904   5.947  12.889 -1.8086 -0.2261  0.0512
19146TIP3    H278854   1.822   5.824  12.919  0.0396 -1.4205  0.3229
19147TIP3   OH278855   5.081   2.382  11.558 -0.1998 -0.3215 -0.4829
19147TIP3    H178856   5.002   2.398  11.506 -1.1701 -2.5710  0.1631
19147TIP3    H278857   5.050   2.375  11.648  0.9959  0.3661  0.0071
19148TIP3   OH278858   6.095   5.655   2.208 -0.0813 -0.1110  0.1330
19148TIP3    H178859   6.038   5.709   2.154  0.2011 -0.2010 -0.2622
19148TIP3    H278860   6.119   5.712   2.281  0.0829  0.2473 -0.1962
19149TIP3   OH278861   3.424   0.018  13.921  0.2785  0.6336  0.5914
19149TIP3    H178862   3.473   0.075  13.863  1.9099  0.1974  1.4950
19149TIP3    H278863   3.406   0.071  13.998 -0.8084  0.8226  0.2293
19150TIP3   OH278864   2.972   5.562  15.698 -0.1636  0.4763 -0.6856
19150TIP3    H178865   2.898   5.520  15.743  0.0159  1.3268  0.4412
19150TIP3    H278866   2.946   5.561  15.605 -0.3297 -1.7338 -0.6823
19151TIP3   OH278867   4.017   2.076  15.168  0.3153  0.3845  0.3601
19151TIP3    H178868   4.016   1.999  15.224 -0.0913  0.1314  0.0057
19151TIP3    H278869   4.092   2.063  15.109  0.1763  0.2072  0.2233
19152TIP3   OH278870   5.104   5.069  11.554  0.3624 -0.4082 -0.2041
19152TIP3    H178871   5.059   5.135  11.606 -0.2312 -1.2062  0.3070
19152TIP3    H278872   5.192   5.106  11.540  0.4164 -0.0205  1.0439
19153TIP3   OH278873   3.877   3.823  14.140  0.0835 -0.3591  0.4993
19153TIP3    H178874   3.963   3.859  14.118  0.0923 -0.1591  0.8581
19153TIP3    H278875   3.860   3.759  14.071 -0.4815  1.2023 -0.9039
19154TIP3   OH278876   2.666   5.281   2.352  0.3841 -0.1900  0.8511
19154TIP3    H178877   2.582   5.244   2.378  0.1997  1.0563  2.1044
19154TIP3    H278878   2.681   5.354   2.412  0.8737  1.6158 -1.2875
19155TIP3   OH278879   5.938   4.020  14.557 -0.2668  0.0336 -0.6133
19155TIP3    H178880   5.855   4.016  14.605 -0.1328 -1.1766 -0.4699
19155TIP3    H278881   5.923   3.967  14.479 -0.1944  1.2697 -1.4920
19156TIP3   OH278882   3.958   0.219   3.327 -0.0169 -0.0410  0.1168
19156TIP3    H178883   3.946   0.158   3.401  1.6234  1.2003  1.5003
19156TIP3    H278884   3.897   0.290   3.345 -0.3384 -0.2094 -0.2948
19157TIP3   OH278885   2.040   0.527   3.521  0.0399 -0.5898 -0.6747
19157TIP3    H178886   2.064   0.453   3.578  0.7598 -0.5282 -0.8811
19157TIP3    H278887   2.040   0.490   3.433 -0.8658 -0.6342 -0.6618
19158TIP3   OH278888   0.425   1.893   2.674 -0.1688 -0.0123 -0.3989
19158TIP3    H178889   0.389   1.980   2.657  0.8729  0.4317 -0.4376
19158TIP3    H278890   0.514   1.896   2.637 -0.3601 -1.3212 -1.0207
19159TIP3   OH278891   2.772   3.875  11.205  0.1129 -0.6157 -0.1851
19159TIP3    H178892   2.838   3.846  11.143  0.6023 -0.7507  0.3895
19159TIP3    H278893   2.787   3.970  11.213 -0.3601 -0.4885 -0.7445
19160TIP3   OH278894   1.386   6.669   4.150 -0.9966 -0.0049 -0.9194
19160TIP3    H178895   1.385   6.684   4.244 -2.7559 -0.0567 -0.8967
19160TIP3    H278896   1.479   6.660   4.128 -0.5865 -0.4893  0.8675
19161TIP3   OH278897   5.595   4.738   3.987  0.0554 -0.0301  0.1058
19161TIP3    H178898   5.675   4.751   4.039 -0.1667  0.1030  0.4180
19161TIP3    H278899   5.537   4.687   4.044  0.2959 -1.0101 -0.4989
19162TIP3   OH278900   4.468   4.259   5.068 -0.2353 -0.1775  0.2337
19162TIP3    H178901   4.451   4.273   5.161  1.7493  0.6213  0.5181
19162TIP3    H278902   4.516   4.175   5.065 -1.6819 -1.0202 -0.2640
19163TIP3   OH278903   1.894   2.815   1.891  0.7677 -0.4114 -0.8764
19163TIP3    H178904   1.901   2.883   1.957  0.8288 -1.3816  0.1433
19163TIP3    H278905   1.843   2.855   1.820  2.3094  1.2689 -1.1036
19164TIP3   OH278906   5.104   6.669   2.188 -0.1324 -0.4644  0.0958
19164TIP3    H178907   5.145   6.678   2.102 -0.6451 -1.8439 -0.3192
19164TIP3    H278908   5.017   6.707   2.178 -0.8935 -2.2391 -0.5787
19165TIP3   OH278909   5.623   0.391   1.638 -0.3988  0.6133  0.5205
19165TIP3    H178910   5.528   0.402   1.633 -0.3278  0.9456 -0.4130
19165TIP3    H278911   5.657   0.452   1.572  0.4190 -0.0925  0.2732
19166TIP3   OH278912   6.601   4.089   2.211 -0.7369 -0.4311  0.4356
19166TIP3    H178913   6.578   3.998   2.230 -0.0276 -0.5348  0.8286
19166TIP3    H278914   6.689   4.099   2.246  0.5268 -0.5101 -2.4473
19167TIP3   OH278915   4.790   4.990  16.065  0.2852 -0.0786  0.2356
19167TIP3    H178916   4.848   4.915  16.049  0.1630 -0.4548  1.4888
19167TIP3    H278917   4.703   4.951  16.075 -0.4705  0.5663 -2.7703
19168TIP3   OH278918   1.190   1.362   2.532 -0.3249  0.1407  0.5040
19168TIP3    H178919   1.198   1.396   2.443  0.5505 -0.5451  0.3052
19168TIP3    H278920   1.124   1.418   2.574 -1.5877 -0.2193 -0.9140
19169TIP3   OH278921   1.205   4.138  14.111  0.4228 -0.2644 -0.0839
19169TIP3    H178922   1.239   4.130  14.022  1.1350  0.0432  0.1565
19169TIP3    H278923   1.217   4.051  14.149 -0.3497 -0.5374 -0.4432
19170TIP3   OH278924   6.803   4.460  15.670 -0.0774 -0.0108  0.3036
19170TIP3    H178925   6.858   4.448  15.747 -0.9357 -1.7609  0.6866
19170TIP3    H278926   6.720   4.495  15.704 -0.0752  0.2801  0.0208
19171TIP3   OH278927   3.526   3.047   3.384 -0.3022 -0.3607 -0.6319
19171TIP3    H178928   3.457   3.040   3.318 -0.0347  0.2286 -0.9910
19171TIP3    H278929   3.529   2.961   3.426  0.5531 -1.2586 -2.4321
19172TIP3   OH278930   5.994   4.767  13.665 -0.1994  0.0882 -0.1233
19172TIP3    H178931   5.942   4.837  13.703 -1.8720 -1.5415  0.7534
19172TIP3    H278932   5.930   4.711  13.620  0.9702 -1.2600 -0.1878
19173TIP3   OH278933   1.328   0.548   0.557 -0.4579  0.6836 -0.4257
19173TIP3    H178934   1.293   0.623   0.604 -0.2531 -0.1125  1.0636
19173TIP3    H278935   1.420   0.570   0.542 -0.5206  0.9362 -0.4440
19174TIP3   OH278936   5.483   4.584   2.785  0.2731 -0.3484  0.3429
19174TIP3    H178937   5.531   4.658   2.747 -0.6952 -0.0927 -0.4185
19174TIP3    H278938   5.432   4.622   2.856  1.4652 -0.6871  1.4031
19175TIP3   OH278939   4.764   6.218   4.337 -0.2807  0.4013 -0.5281
19175TIP3    H178940   4.739   6.305   4.369  0.3247  0.4583 -0.1779
19175TIP3    H278941   4.855   6.229   4.309  0.8680 -0.7808  2.2982
19176TIP3   OH278942   2.698   3.559   1.670 -0.0058  0.1077  0.2291
19176TIP3    H178943   2.661   3.485   1.622 -0.6566  0.8270 -0.4151
19176TIP3    H278944   2.640   3.632   1.650  1.6521  1.2465 -0.7016
19177TIP3   OH278945   6.640   1.011   2.082  0.1002  0.0561 -0.0030
19177TIP3    H178946   6.587   1.008   2.002  1.0292 -0.6044 -0.6179
19177TIP3    H278947   6.663   1.104   2.092 -0.6656  0.2580 -0.0587
19178TIP3   OH278948   0.305   2.148  13.875 -0.3964 -0.6966  0.1309
19178TIP3    H178949   0.350   2.138  13.791 -1.1257  0.7164 -0.4581
19178TIP3    H278950   0.281   2.059  13.899 -0.8844 -1.0807 -1.5828
19179TIP3   OH278951   5.216   3.714  11.465 -0.3051  0.0018  0.1880
19179TIP3    H178952   5.262   3.769  11.402  0.2918 -0.8520 -0.1313
19179TIP3    H278953   5.140   3.767  11.491  0.5895  1.2478  0.3846
19180TIP3   OH278954   4.877   4.235  12.505 -0.4119 -0.1082 -0.0248
19180TIP3    H178955   4.931   4.241  12.426 -0.0254 -1.0178  0.1544
19180TIP3    H278956   4.787   4.244  12.473 -0.4064 -2.3071 -0.8522
19181TIP3   OH278957   0.069   1.765  15.332  0.7519 -0.1459  0.1931
19181TIP3    H178958   0.070   1.691  15.271 -2.7929 -1.7705  1.8049
19181TIP3    H278959   0.022   1.833  15.285  1.6544  0.1530 -0.3097
19182TIP3   OH278960   2.055   0.502   4.518  0.3934  0.4197 -0.6124
19182TIP3    H178961   2.008   0.445   4.457  1.5907  0.6792 -1.8291
19182TIP3    H278962   2.146   0.500   4.488  0.9520  0.8653  0.9501
19183TIP3   OH278963   2.541   2.261  13.514  0.1179  0.0561  0.3371
19183TIP3    H178964   2.503   2.173  13.522 -0.4784  0.1841 -0.8677
19183TIP3    H278965   2.516   2.306  13.595  0.0730 -0.7468  0.7782
19184TIP3   OH278966   0.757   4.607  12.879  0.5341 -0.2245 -0.4046
19184TIP3    H178967   0.692   4.600  12.809 -0.9324 -0.4248  0.9272
19184TIP3    H278968   0.748   4.697  12.911  0.7812 -0.3061 -0.0963
19185TIP3   OH278969   1.825   6.247   1.309 -0.7829 -0.8521 -0.4838
19185TIP3    H178970   1.814   6.155   1.289 -2.5989 -0.8764  0.3583
19185TIP3    H278971   1.737   6.285   1.298 -0.3268  0.5290  0.2695
19186TIP3   OH278972   3.806   6.081   3.258  0.2311 -0.1846 -0.2371
19186TIP3    H178973   3.898   6.067   3.279  0.4665 -0.9260 -1.6224
19186TIP3    H278974   3.806   6.155   3.197 -0.2873  0.9462  1.0703
19187TIP3   OH278975   3.593   0.523   2.696  0.0481 -0.2811 -0.6159
19187TIP3    H178976   3.543   0.441   2.701 -0.5710 -0.0554 -2.2985
19187TIP3    H278977   3.528   0.592   2.713  0.7161 -0.1232  1.5630
19188TIP3   OH278978   0.593   5.179  13.368 -0.1804  0.4215  0.2476
19188TIP3    H178979   0.575   5.106  13.309  1.9651 -0.0061  0.0615
19188TIP3    H278980   0.657   5.146  13.430  1.1564  2.2174 -0.0840
19189TIP3   OH278981   0.927   5.891  16.142 -0.0761  0.4627  0.4269
19189TIP3    H178982   1.015   5.859  16.160 -0.3487 -0.0865  0.7939
19189TIP3    H278983   0.914   5.877  16.049 -0.6870 -1.7886  0.7929
19190TIP3   OH278984   6.208   1.314   3.074  0.4925 -0.0047  0.0015
19190TIP3    H178985   6.259   1.395   3.075  0.6545 -0.1022  1.2549
19190TIP3    H278986   6.145   1.323   3.145 -0.1558 -0.5776 -0.4790
19191TIP3   OH278987   1.006   0.579   2.912 -0.0880 -0.7681  0.5934
19191TIP3    H178988   0.937   0.646   2.913  0.2854 -0.3794  1.7682
19191TIP3    H278989   1.043   0.582   3.000  1.6545 -0.7290 -0.1013
19192TIP3   OH278990   3.095   0.725   6.391  0.0239 -0.0551 -0.2716
19192TIP3    H178991   3.034   0.651   6.397 -0.3536  0.3754  2.3279
19192TIP3    H278992   3.046   0.793   6.344 -0.6582 -0.5160 -0.2407
19193TIP3   OH278993   0.657   3.955   6.551 -0.2233 -0.1613  0.3472
19193TIP3    H178994   0.722   3.885   6.542 -1.2461 -0.8592 -3.7078
19193TIP3    H278995   0.698   4.031   6.511 -0.2545  0.7874  2.0219
19194TIP3   OH278996   1.238   0.050   0.834 -0.3973  0.1900 -0.0619
19194TIP3    H178997   1.179   0.037   0.908  0.4046  0.6737  0.6873
19194TIP3    H278998   1.192   0.111   0.777 -0.9051  0.0328  0.1701
19195TIP3   OH278999   3.426   0.634  14.448 -0.0961 -0.7077 -0.0767
19195TIP3    H179000   3.478   0.708  14.416  0.9515 -1.5909 -0.5028
19195TIP3    H279001   3.443   0.564  14.384 -1.4056 -1.1920  0.0732
19196TIP3   OH279002   3.672   3.431   0.628 -0.2097  0.2070 -0.3289
19196TIP3    H179003   3.680   3.411   0.721  1.2523  0.1360 -0.4400
19196TIP3    H279004   3.598   3.377   0.598  0.1937 -0.8540  0.5039
19197TIP3   OH279005   6.212   0.847   0.595 -0.0933  0.1049 -0.3704
19197TIP3    H179006   6.175   0.929   0.565  0.5636  0.1834 -0.9919
19197TIP3    H279007   6.263   0.870   0.673 -0.3720  0.1933 -0.2161
19198TIP3   OH279008   5.639   0.823   0.609 -0.2215 -0.2027 -1.0564
19198TIP3    H179009   5.700   0.862   0.546  0.5488  1.6777  0.7524
19198TIP3    H279010   5.561   0.877   0.603 -1.3360 -1.8679 -2.4894
19199TIP3   OH279011   2.522   5.039  15.430 -0.2225 -0.8089 -0.3267
19199TIP3    H179012   2.501   5.132  15.439  1.1272 -0.4298 -0.8956
19199TIP3    H279013   2.596   5.026  15.489 -0.5801 -1.6005 -0.0421
19200TIP3   OH279014   6.481   1.282  15.262 -0.5470  0.4161  0.1931
19200TIP3    H179015   6.490   1.202  15.210 -0.0454  0.4524  0.2249
19200TIP3    H279016   6.386   1.295  15.268 -0.6526 -0.4285  0.5680
19201TIP3   OH279017   2.242   5.909   2.558  0.1288 -0.5528  0.5756
19201TIP3    H179018   2.279   5.865   2.635  1.0788 -0.0769  0.4113
19201TIP3    H279019   2.282   5.865   2.484  1.3230  0.7228  0.4097
19202TIP3   OH279020   1.855   6.182  12.842 -0.3129  0.0739 -0.0596
19202TIP3    H179021   1.899   6.176  12.927  1.3345  0.4567 -0.8389
19202TIP3    H279022   1.818   6.270  12.839  1.6539  0.9419 -0.6188
19203TIP3   OH279023   0.529   3.031   3.977 -0.0306  0.0891  0.2800
19203TIP3    H179024   0.453   3.022   3.919 -0.1844 -0.2234  0.5275
19203TIP3    H279025   0.594   2.970   3.941 -0.2261 -0.3095  0.5928
19204TIP3   OH279026   2.571   1.180  11.307  0.3497  0.1883 -0.5738
19204TIP3    H179027   2.584   1.094  11.347  0.6456  0.3018 -0.4180
19204TIP3    H279028   2.478   1.182  11.284 -0.1407  0.6024  1.2688
19205TIP3   OH279029   5.987   3.256   6.229 -0.0762 -0.3833 -0.2075
19205TIP3    H179030   6.048   3.298   6.169  1.1623 -0.6634  0.8220
19205TIP3    H279031   5.905   3.304   6.217  0.7979  1.1351 -0.3785
19206TIP3   OH279032   1.384   0.788   1.821  0.7428 -0.8876 -1.1765
19206TIP3    H179033   1.448   0.746   1.764  1.1057 -1.3501 -0.4527
19206TIP3    H279034   1.302   0.787   1.772  1.4081  0.2629 -2.3709
19207TIP3   OH279035   5.253   4.418  11.022  0.3106 -0.7948  0.8291
19207TIP3    H179036   5.257   4.325  10.998 -0.1158 -0.7419  0.5515
19207TIP3    H279037   5.171   4.427  11.069  0.7006 -0.7045  1.5020
19208TIP3   OH279038   2.401   1.696  16.618  0.2600 -0.5061  0.3122
19208TIP3    H179039   2.438   1.733  16.698  0.5657 -1.3380  0.5633
19208TIP3    H279040   2.451   1.616  16.603  0.4208 -0.1981 -0.8946
19209TIP3   OH279041   3.469   2.419   3.956 -0.2401 -0.2397 -0.0698
19209TIP3    H179042   3.479   2.324   3.956 -0.5804 -0.2875  0.6984
19209TIP3    H279043   3.517   2.448   4.034  3.1870  0.6483 -2.2801
19210TIP3   OH279044   5.898   3.114  11.939 -0.8023  0.4033 -0.0754
19210TIP3    H179045   5.879   3.041  11.879 -0.9455  0.8787 -0.6188
19210TIP3    H279046   5.813   3.136  11.977 -0.4904 -0.8684  1.4551
19211TIP3   OH279047   0.415   6.625  13.916 -0.1809  0.1305  0.1215
19211TIP3    H179048   0.395   6.540  13.955  0.4093  0.3601  0.9388
19211TIP3    H279049   0.361   6.628  13.837  0.1300 -1.1966 -0.1732
19212TIP3   OH279050   6.788   6.188   0.719  0.1532  0.3980 -0.0497
19212TIP3    H179051   6.712   6.234   0.683 -1.4185 -0.1909  2.2783
19212TIP3    H279052   6.841   6.256   0.760 -0.1607  0.5958  0.0302
19213TIP3   OH279053   5.143   0.591  14.856  0.1501 -0.1839 -0.8672
19213TIP3    H179054   5.097   0.667  14.892 -0.4846  0.1788 -2.3786
19213TIP3    H279055   5.234   0.621  14.846  0.5116 -0.5299  1.0508
19214TIP3   OH279056   1.783   0.739  13.592 -0.1904 -0.7524  0.4779
19214TIP3    H179057   1.859   0.796  13.584 -0.9074  0.2412  0.5783
19214TIP3    H279058   1.712   0.797  13.619 -1.1883 -1.5060 -0.4237
19215TIP3   OH279059   1.745   6.776  12.630 -0.0264  0.2191  0.5692
19215TIP3    H179060   1.839   6.769  12.612  0.0285  0.3343  0.7982
19215TIP3    H279061   1.722   6.865  12.603  0.0918  0.4489  1.2137
19216TIP3   OH279062   3.548   1.237   3.364 -0.7064 -0.1043 -0.3722
19216TIP3    H179063   3.513   1.324   3.384  2.2972  0.9341  0.8885
19216TIP3    H279064   3.613   1.252   3.296 -0.4596 -1.4508 -0.4618
19217TIP3   OH279065   1.837   3.714  10.829  0.0667 -0.9083  0.0032
19217TIP3    H179066   1.775   3.758  10.770 -0.7159 -0.0267  1.4184
19217TIP3    H279067   1.923   3.733  10.792 -0.3370  0.5843 -0.2500
19218TIP3   OH279068   6.015   5.692  14.696  0.2888  0.1512 -0.0406
19218TIP3    H179069   6.046   5.659  14.781 -0.5642 -0.1040  0.1826
19218TIP3    H279070   6.074   5.652  14.632  2.2092  1.8834  0.5331
19219TIP3   OH279071   2.791   3.164  11.295 -0.2909 -0.1380 -0.2775
19219TIP3    H179072   2.780   3.121  11.381 -2.0447 -0.1891 -0.4765
19219TIP3    H279073   2.784   3.092  11.232 -1.6192  0.1843 -0.5399
19220TIP3   OH279074   5.457   0.557   4.744 -0.1920 -0.0629  0.4944
19220TIP3    H179075   5.457   0.486   4.808  1.7509  0.8107  1.5380
19220TIP3    H279076   5.532   0.612   4.768  0.2542  0.6485 -2.1725
19221TIP3   OH279077   6.431   2.182   3.649 -0.3154  0.1344  0.3501
19221TIP3    H179078   6.458   2.220   3.565 -1.1245 -0.4767 -0.2045
19221TIP3    H279079   6.387   2.100   3.625  0.1683 -0.4563  1.4340
19222TIP3   OH279080   6.659   3.359   1.045 -0.1293 -0.0971 -0.1289
19222TIP3    H179081   6.597   3.297   1.083  2.1480 -2.1849  0.5008
19222TIP3    H279082   6.694   3.407   1.121  0.4203 -0.3538 -0.2095
19223TIP3   OH279083   5.672   4.955  12.187 -0.0819 -0.3842 -0.1310
19223TIP3    H179084   5.651   4.867  12.155 -2.6201 -0.0471  0.4234
19223TIP3    H279085   5.752   4.979  12.140 -0.2613 -2.3391 -1.5395
19224TIP3   OH279086   5.071   3.842  16.947 -0.5101 -0.2143 -0.0349
19224TIP3    H179087   5.111   3.908  17.003 -1.3397  0.5481 -0.3165
19224TIP3    H279088   4.994   3.885  16.909 -1.7123 -1.6533  0.6166
19225TIP3   OH279089   1.321   3.375  11.906  0.6885  0.0140 -0.2010
19225TIP3    H179090   1.359   3.309  11.849 -1.3742 -1.7465  0.3336
19225TIP3    H279091   1.226   3.361  11.899  0.3074  0.4404  2.7971
19226TIP3   OH279092   2.805   2.792   0.950  0.3584  0.3331 -0.5423
19226TIP3    H179093   2.827   2.699   0.959  0.6794  0.3387 -1.1896
19226TIP3    H279094   2.870   2.838   1.004 -0.3867  0.1345  0.5468
19227TIP3   OH279095   2.261   2.860   1.231  0.6144 -0.3510  0.0258
19227TIP3    H179096   2.184   2.826   1.186  1.9795  0.0774 -2.8395
19227TIP3    H279097   2.326   2.791   1.225  1.0956  0.0265  0.6914
19228TIP3   OH279098   4.305   3.344  14.475  0.1276  0.2943 -0.2344
19228TIP3    H179099   4.375   3.347  14.410 -0.2815 -1.9039 -0.8535
19228TIP3    H279100   4.345   3.381  14.554  1.7542 -0.2248 -0.7661
19229TIP3   OH279101   1.864   2.650  13.227 -0.4302  0.2605  0.3182
19229TIP3    H179102   1.786   2.674  13.278 -1.8976  1.0214 -2.1263
19229TIP3    H279103   1.829   2.605  13.149  1.7197 -1.0642  0.0280
19230TIP3   OH279104   0.378   6.280   4.813 -0.0376 -0.2494  0.1044
19230TIP3    H179105   0.353   6.231   4.735 -2.2592 -1.9984  1.7777
19230TIP3    H279106   0.429   6.218   4.865  0.6112  0.5735  0.4743
19231TIP3   OH279107   3.933   1.199   0.752 -0.3962  0.9435  0.4815
19231TIP3    H179108   4.018   1.237   0.728  1.2573 -2.2063  0.8195
19231TIP3    H279109   3.950   1.150   0.832 -2.3187 -0.4425  0.1213
19232TIP3   OH279110   6.330   3.210   2.055 -0.0531 -0.3918 -0.4023
19232TIP3    H179111   6.396   3.184   2.119 -0.4209 -0.6396 -0.1192
19232TIP3    H279112   6.267   3.261   2.105  0.0805  0.1061 -0.7321
19233TIP3   OH279113   5.315   3.154  16.276  0.1723  0.4609  0.3503
19233TIP3    H179114   5.316   3.105  16.194  0.2246  2.8422 -1.1822
19233TIP3    H279115   5.222   3.169  16.293  0.1696  0.1523  0.6059
19234TIP3   OH279116   3.140   5.771   4.549 -0.0896 -0.2526 -0.5646
19234TIP3    H179117   3.168   5.862   4.540 -1.1515 -0.0045 -1.5150
19234TIP3    H279118   3.133   5.758   4.644 -0.9960  1.0041 -0.4327
19235TIP3   OH279119   1.427   1.681   2.554  0.2837  0.2627  0.1399
19235TIP3    H179120   1.405   1.681   2.460 -0.0980  0.6371  0.2228
19235TIP3    H279121   1.458   1.770   2.571  0.6932  0.0891  0.2927
19236TIP3   OH279122   6.195   2.247  14.248  0.8853  0.0223  0.5107
19236TIP3    H179123   6.115   2.287  14.282  0.3642 -0.8020  0.2824
19236TIP3    H279124   6.262   2.316  14.255 -0.2044  1.2722 -0.7983
19237TIP3   OH279125   5.812   3.781   5.701  0.0977  0.0302  0.3449
19237TIP3    H179126   5.817   3.695   5.744 -0.3215 -0.2692 -0.1874
19237TIP3    H279127   5.730   3.778   5.652 -0.2821  1.0154  0.9009
19238TIP3   OH279128   4.789   0.117  15.326 -0.4296  0.0886 -0.1220
19238TIP3    H179129   4.801   0.091  15.417  1.1068  2.5016  0.4545
19238TIP3    H279130   4.698   0.147  15.321 -0.7552 -0.7811  0.3929
19239TIP3   OH279131   1.487   0.388   4.444  0.2248  0.6133 -0.5455
19239TIP3    H179132   1.580   0.388   4.467 -0.0239 -0.4838  0.6171
19239TIP3    H279133   1.475   0.465   4.389  1.5476  1.5771  0.4547
19240TIP3   OH279134   2.074   6.187  16.423  0.2552 -0.0123 -0.0533
19240TIP3    H179135   2.159   6.230  16.413 -0.9326  3.5337  2.7802
19240TIP3    H279136   2.089   6.121  16.491  1.2539 -1.5645 -1.6786
19241TIP3   OH279137   0.293   6.039   5.521 -0.6688  0.5178 -0.0413
19241TIP3    H179138   0.301   5.997   5.435 -0.8778 -0.1382  0.2548
19241TIP3    H279139   0.199   6.056   5.530 -0.7289  0.0339  0.3076
19242TIP3   OH279140   3.826   1.414  15.034 -0.0807 -0.2697 -0.0454
19242TIP3    H179141   3.760   1.347  15.017  0.8727 -1.1374 -0.4297
19242TIP3    H279142   3.876   1.379  15.108 -0.3366  0.5999  0.5538
19243TIP3   OH279143   0.145   0.114  14.836 -0.0310 -0.7184  0.0151
19243TIP3    H179144   0.176   0.043  14.779  0.4505 -0.4292 -0.0897
19243TIP3    H279145   0.186   0.095  14.921 -0.0499 -0.6649  0.0360
19244TIP3   OH279146   1.648   4.217   5.378  0.7199  0.5056 -0.5319
19244TIP3    H179147   1.728   4.202   5.427 -0.6188 -1.0225  1.3335
19244TIP3    H279148   1.658   4.166   5.298  1.0024 -0.9904  0.4227
19245TIP3   OH279149   0.316   4.379  16.113  0.1249  0.2143 -0.0349
19245TIP3    H179150   0.330   4.286  16.097 -0.5747  0.1457 -0.2754
19245TIP3    H279151   0.358   4.395  16.198 -1.5335 -0.7951  1.0487
19246TIP3   OH279152   2.013   3.745   0.284  0.3270 -0.3639  0.1969
19246TIP3    H179153   1.942   3.684   0.306  0.6213 -0.8354 -0.1455
19246TIP3    H279154   2.034   3.725   0.193  0.7613 -0.0824  0.2368
19247TIP3   OH279155   6.207   4.189  12.563 -0.1908  0.2306  0.1186
19247TIP3    H179156   6.256   4.167  12.484 -0.8233 -0.3011 -0.1315
19247TIP3    H279157   6.157   4.266  12.539 -2.1958 -1.2735 -0.7925
19248TIP3   OH279158   6.683   0.554   4.003  0.1684  0.0523  0.6226
19248TIP3    H179159   6.618   0.542   4.073  1.2608 -0.5900  1.5700
19248TIP3    H279160   6.734   0.473   4.004  0.6105  0.2979 -0.5147
19249TIP3   OH279161   2.808   1.380   4.750 -0.3843  0.2420 -0.1381
19249TIP3    H179162   2.776   1.392   4.661  0.9363 -0.8708 -0.7930
19249TIP3    H279163   2.898   1.413   4.748 -0.3813  0.3372  0.8298
19250TIP3   OH279164   1.932   2.458  12.843 -0.1304 -0.3946 -0.2978
19250TIP3    H179165   2.011   2.479  12.893 -0.6042 -1.7213  1.0956
19250TIP3    H279166   1.860   2.497  12.893 -0.4177  0.3102 -1.2445
19251TIP3   OH279167   2.374   1.951   6.571 -0.1419  0.4922  0.4474
19251TIP3    H179168   2.464   1.919   6.559  0.7677  2.5486  1.3936
19251TIP3    H279169   2.382   2.046   6.571 -2.3633  0.7252  0.4516
19252TIP3   OH279170   4.035   1.340   1.154 -0.4337 -0.3590  0.5288
19252TIP3    H179171   3.973   1.321   1.084 -1.1657  1.0763  0.7641
19252TIP3    H279172   4.006   1.285   1.227  0.6051 -2.2136 -0.3670
19253TIP3   OH279173   6.462   4.385  13.559 -0.2962  0.1905  0.3095
19253TIP3    H179174   6.477   4.408  13.467 -1.7707  0.8676  0.2031
19253TIP3    H279175   6.491   4.462  13.608 -0.8382  0.4129  0.2927
19254TIP3   OH279176   6.679   3.191  13.865  0.0468  0.4429 -0.0205
19254TIP3    H179177   6.619   3.117  13.857  2.3430 -1.3935 -2.1524
19254TIP3    H279178   6.627   3.268  13.842 -2.0425 -0.6609  0.7352
19255TIP3   OH279179   4.379   2.740   3.942  0.4077 -0.4355  0.1454
19255TIP3    H179180   4.460   2.790   3.946 -0.6095  1.3501 -0.4233
19255TIP3    H279181   4.341   2.748   4.029  0.2881 -0.2525  0.0790
19256TIP3   OH279182   4.667   0.421   4.268 -0.3079  0.1836  0.2957
19256TIP3    H179183   4.712   0.341   4.241  2.1467  1.7545 -0.7038
19256TIP3    H279184   4.579   0.414   4.232  0.1962 -1.5952 -0.6617
19257TIP3   OH279185   3.582   5.163  14.299 -0.2356 -0.7484  0.5839
19257TIP3    H179186   3.530   5.128  14.227  0.1504  1.2808 -0.7601
19257TIP3    H279187   3.587   5.091  14.362 -0.5750 -2.5981 -1.3894
19258TIP3   OH279188   4.916   1.983   4.715 -0.4444  0.1319 -0.0353
19258TIP3    H179189   4.992   2.009   4.663 -0.0758 -1.6356 -0.4552
19258TIP3    H279190   4.902   2.055   4.775  0.5101  1.2456 -1.0992
19259TIP3   OH279191   1.852   3.621  11.947  0.0401 -0.0224  0.0612
19259TIP3    H179192   1.828   3.550  12.007  1.3966  1.6095  2.7464
19259TIP3    H279193   1.776   3.678  11.946  0.5029  0.6643  1.4564
19260TIP3   OH279194   2.096   1.686   1.945 -0.1901  0.3474 -0.1222
19260TIP3    H179195   2.090   1.711   2.038 -0.3101 -1.1349  0.2978
19260TIP3    H279196   2.189   1.675   1.929 -0.2682 -1.6130  0.4925
19261TIP3   OH279197   3.598   2.477   4.186 -0.3126 -0.5332 -0.3272
19261TIP3    H179198   3.540   2.411   4.225  0.5268 -1.3471 -0.4330
19261TIP3    H279199   3.686   2.450   4.210  0.1023  0.0950 -1.0651
19262TIP3   OH279200   0.455   1.387  12.028 -0.2488 -0.0697 -0.3623
19262TIP3    H179201   0.375   1.412  11.983 -0.9421 -0.9130  0.3667
19262TIP3    H279202   0.492   1.470  12.059 -0.4740  0.3849 -1.2837
19263TIP3   OH279203   3.152   3.294  12.259 -0.5451 -0.4854  0.1959
19263TIP3    H179204   3.230   3.289  12.203 -0.7752 -0.7325 -0.1047
19263TIP3    H279205   3.088   3.343  12.208 -0.1653  0.8270  0.9530
19264TIP3   OH279206   6.500   1.296   5.778 -0.2928 -0.1245 -0.2014
19264TIP3    H179207   6.509   1.313   5.872 -0.9103  1.5975 -0.4276
19264TIP3    H279208   6.451   1.214   5.773 -1.7862  0.6527  1.0028
19265TIP3   OH279209   0.879   3.147  15.938  0.5849 -0.0412  0.2270
19265TIP3    H179210   0.785   3.145  15.924  0.6874  0.4789 -0.6656
19265TIP3    H279211   0.895   3.084  16.008 -0.6454  1.3035  1.8229
19266TIP3   OH279212   4.328   3.038   0.486 -0.0223 -0.2783 -0.3915
19266TIP3    H179213   4.296   3.102   0.423  0.1984 -0.6480 -0.8811
19266TIP3    H279214   4.286   2.956   0.460  1.1586 -0.7329 -0.9230
19267TIP3   OH279215   1.233   2.167   4.727  0.0035 -0.0772  0.1393
19267TIP3    H179216   1.200   2.130   4.809 -0.5007  1.4767  0.6714
19267TIP3    H279217   1.178   2.128   4.659  0.2185 -1.1404  0.5545
19268TIP3   OH279218   4.736   3.535   4.540 -0.3792  0.2759 -0.0081
19268TIP3    H179219   4.767   3.455   4.499  1.8242  1.4092 -0.7760
19268TIP3    H279220   4.727   3.513   4.633  1.8876 -0.4877  0.1017
19269TIP3   OH279221   4.904   6.593  12.534 -0.0439 -0.4027 -0.5247
19269TIP3    H179222   4.927   6.506  12.502 -1.4438 -0.4374 -1.4777
19269TIP3    H279223   4.817   6.610  12.500 -0.4934  0.6935  1.0395
19270TIP3   OH279224   1.342   0.369  15.529 -0.6608 -0.0068 -1.1662
19270TIP3    H179225   1.296   0.422  15.465  0.3675  0.8812 -1.1994
19270TIP3    H279226   1.280   0.359  15.601 -0.6710  1.8443 -0.8560
19271TIP3   OH279227   6.650   0.925  11.074  0.3407  0.6254 -0.4144
19271TIP3    H179228   6.586   0.855  11.060 -0.0323  1.1063 -1.1403
19271TIP3    H279229   6.735   0.883  11.057  0.1581  0.2395 -0.3968
19272TIP3   OH279230   2.972   2.471  16.857 -0.4115  0.8369  0.2743
19272TIP3    H179231   3.026   2.448  16.933 -0.0233  3.4951  0.8846
19272TIP3    H279232   3.014   2.426  16.784 -0.5574 -1.4515  1.5153
19273TIP3   OH279233   5.887   3.852  11.249  0.3832  0.9434 -0.4696
19273TIP3    H179234   5.797   3.873  11.276  0.6175  0.4490  0.7408
19273TIP3    H279235   5.876   3.787  11.180 -0.2043  1.5158 -0.9339
19274TIP3   OH279236   1.118   0.527   5.630 -0.3701 -0.2243  0.3130
19274TIP3    H179237   1.030   0.563   5.628 -0.1859  0.2120 -0.7018
19274TIP3    H279238   1.106   0.432   5.623 -0.7199 -0.0679 -2.0895
19275TIP3   OH279239   4.588   5.836  14.386 -0.7905 -0.4130 -0.2962
19275TIP3    H179240   4.661   5.850  14.325 -1.0168  1.2565 -0.2208
19275TIP3    H279241   4.516   5.806  14.330 -0.3322 -1.1686 -0.4999
19276TIP3   OH279242   4.145   0.333  16.084  0.0771 -0.1341 -0.5280
19276TIP3    H179243   4.132   0.412  16.032  2.6939  1.6761  1.2998
19276TIP3    H279244   4.234   0.305  16.062  0.9935  0.2840  2.2548
19277TIP3   OH279245   3.320   2.656   5.907 -0.4984  0.3873 -0.3203
19277TIP3    H179246   3.245   2.601   5.886  0.9775 -1.7615 -0.3025
19277TIP3    H279247   3.282   2.735   5.945 -2.7282 -0.7182 -0.1001
19278TIP3   OH279248   4.544   0.537   2.417  0.1740 -0.0037  0.4125
19278TIP3    H179249   4.600   0.497   2.483  1.6619 -2.0092 -1.8741
19278TIP3    H279250   4.534   0.469   2.350 -1.9894  1.5871 -1.0409
19279TIP3   OH279251   1.697   6.457   3.159  0.1456 -0.1625  0.2978
19279TIP3    H179252   1.789   6.482   3.155  0.4469 -1.2524 -0.0759
19279TIP3    H279253   1.694   6.386   3.224 -0.3373 -0.4974 -0.0810
19280TIP3   OH279254   4.300   2.492   0.338  0.3484  0.1455 -0.5142
19280TIP3    H179255   4.321   2.520   0.427 -0.6148  2.6013 -1.0062
19280TIP3    H279256   4.380   2.510   0.288  0.7037 -0.7354 -0.2915
19281TIP3   OH279257   0.938   2.264  13.636  0.3588 -0.2453 -0.4187
19281TIP3    H179258   0.851   2.294  13.665  0.3247 -0.9071  0.1821
19281TIP3    H279259   0.924   2.237  13.545 -0.0591 -0.3263 -0.3334
19282TIP3   OH279260   3.467   0.678   4.825 -0.1777  0.1282 -0.0120
19282TIP3    H179261   3.385   0.716   4.792 -0.7333 -1.1025 -0.1040
19282TIP3    H279262   3.532   0.748   4.814 -1.4688  1.6115  1.2898
19283TIP3   OH279263   6.791   1.899  16.687 -0.3583 -0.2643  0.5086
19283TIP3    H179264   6.880   1.869  16.705  0.2041  1.1935  0.2755
19283TIP3    H279265   6.799   1.955  16.610 -1.6311 -0.8154 -0.0631
19284TIP3   OH279266   0.445   5.649   2.822  0.0721  0.2077  0.4140
19284TIP3    H179267   0.354   5.677   2.838  0.3895  1.6352 -0.0803
19284TIP3    H279268   0.495   5.694   2.890  0.5592  0.5031 -0.1307
19285TIP3   OH279269   3.709   1.696  14.873 -0.2006 -0.7526 -0.0656
19285TIP3    H179270   3.630   1.644  14.885 -0.0598 -1.0867 -0.5569
19285TIP3    H279271   3.719   1.745  14.955 -1.7841  0.5051 -0.5894
19286TIP3   OH279272   0.899   1.663   1.295 -0.0307 -0.2547  0.0568
19286TIP3    H179273   0.825   1.688   1.349 -0.5306 -1.1237 -0.2210
19286TIP3    H279274   0.961   1.736   1.306 -0.7617  0.3141  0.5627
19287TIP3   OH279275   1.844   5.679  14.998 -0.2462  0.4694 -0.5174
19287TIP3    H179276   1.887   5.764  14.989  0.1292  0.4090  0.5681
19287TIP3    H279277   1.752   5.701  15.016 -0.7244  0.5970 -2.7706
19288TIP3   OH279278   5.479   0.507  11.435 -0.0654  0.3530 -0.0060
19288TIP3    H179279   5.522   0.434  11.390  1.2425  0.8921  0.3372
19288TIP3    H279280   5.516   0.585  11.395 -0.7332  0.8440  0.3088
19289TIP3   OH279281   0.222   6.165   1.603 -0.5199  0.0882  0.5083
19289TIP3    H179282   0.225   6.260   1.594 -1.4894  0.0589 -0.2623
19289TIP3    H279283   0.314   6.137   1.594 -0.3145  0.8837  0.0658
19290TIP3   OH279284   0.464   3.861   5.635 -0.1821 -0.3990  0.0711
19290TIP3    H179285   0.474   3.811   5.554 -0.4484 -0.0557 -0.1783
19290TIP3    H279286   0.373   3.848   5.660 -0.7704  1.3917 -0.9731
19291TIP3   OH279287   3.171   4.042   1.525  0.0475 -0.0565 -0.2477
19291TIP3    H179288   3.192   4.130   1.495  0.7385  0.0312  0.4606
19291TIP3    H279289   3.114   4.055   1.601  0.8871 -0.1796  0.4214
19292TIP3   OH279290   4.967   4.881   3.013  0.0638  0.0458  0.1741
19292TIP3    H179291   4.920   4.950   3.059 -1.5412 -0.4067 -0.7220
19292TIP3    H279292   5.032   4.927   2.961  1.0683  0.6418  1.8869
19293TIP3   OH279293   0.752   4.592  14.535 -0.1843 -0.5409  0.1711
19293TIP3    H179294   0.775   4.517  14.480 -0.5261  0.6590 -1.7015
19293TIP3    H279295   0.835   4.637  14.551  0.0773 -1.4695  1.6085
19294TIP3   OH279296   0.756   5.464   2.884 -0.1845 -0.1474  0.4532
19294TIP3    H179297   0.820   5.439   2.951 -2.6348  0.8009  3.4028
19294TIP3    H279298   0.781   5.553   2.859  1.0763 -0.7088 -0.3541
19295TIP3   OH279299   2.744   2.231   1.196 -0.3555 -0.5909  0.6213
19295TIP3    H179300   2.735   2.305   1.256 -1.0934 -1.4226  1.5619
19295TIP3    H279301   2.713   2.156   1.246  1.7507 -1.8065  0.2092
19296TIP3   OH279302   1.496   0.606  11.552 -0.3932 -0.1275 -0.2493
19296TIP3    H179303   1.523   0.522  11.589 -1.2597 -0.5025 -0.4196
19296TIP3    H279304   1.499   0.667  11.625 -0.4013 -0.4640  0.0361
19297TIP3   OH279305   4.005   3.512  13.668  0.3569  0.3244 -0.4147
19297TIP3    H179306   4.088   3.537  13.627  0.4342  0.4154 -0.1996
19297TIP3    H279307   3.941   3.572  13.630  0.3151 -0.0108 -0.8903
19298TIP3   OH279308   4.901   1.853  16.762 -0.7555  0.5273 -0.2748
19298TIP3    H179309   4.953   1.855  16.682 -2.0009 -1.0104 -1.2133
19298TIP3    H279310   4.964   1.843  16.833  0.2577 -2.1260 -1.4292
19299TIP3   OH279311   0.030   0.092   2.548 -0.2395 -0.3395  0.0002
19299TIP3    H179312   0.076   0.063   2.627 -1.6471  2.5398  2.0122
19299TIP3    H279313  -0.056   0.050   2.554 -0.1710 -0.5354 -0.3325
19300TIP3   OH279314   0.394   5.503  11.036  0.3635  0.0076  0.0968
19300TIP3    H179315   0.351   5.544  10.960 -0.9702  0.5599  1.1071
19300TIP3    H279316   0.343   5.424  11.052  1.2553 -0.6275 -0.1758
19301TIP3   OH279317   3.758   6.694  13.375  0.2510 -0.5539  0.0782
19301TIP3    H179318   3.668   6.717  13.400  0.3857 -0.0474  0.1142
19301TIP3    H279319   3.761   6.598  13.379 -0.2416 -0.5639  0.2347
19302TIP3   OH279320   3.921   3.689   5.840 -0.6388  0.5495 -0.1693
19302TIP3    H179321   3.910   3.776   5.802 -0.5368  3.1167  4.8328
19302TIP3    H279322   4.011   3.666   5.820 -0.5495  1.7130 -1.3011
19303TIP3   OH279323   0.975   2.248   2.289  0.1360  0.0073  1.0008
19303TIP3    H179324   0.928   2.247   2.205  0.0467  0.8375  1.0345
19303TIP3    H279325   0.912   2.212   2.352  0.2005 -0.6089  0.7224
19304TIP3   OH279326   6.007   0.035   5.160  0.4046 -0.2948  0.4365
19304TIP3    H179327   6.051   0.098   5.218 -0.3724  0.2270  0.4792
19304TIP3    H279328   5.931   0.006   5.211 -0.1200 -0.0597 -0.2004
19305TIP3   OH279329   4.236   3.730  11.956 -0.4340  0.6137 -0.2051
19305TIP3    H179330   4.283   3.690  12.029  0.7518  1.9473 -0.1875
19305TIP3    H279331   4.151   3.687  11.955  1.2792 -3.1701 -1.2953
19306TIP3   OH279332   0.310   2.602  15.112 -0.8640  0.0857 -0.1719
19306TIP3    H179333   0.217   2.623  15.119 -1.1300 -1.5408  2.8140
19306TIP3    H279334   0.322   2.526  15.169  1.9134 -1.2534 -2.3023
19307TIP3   OH279335   0.736   0.397  13.721  0.0230 -0.2793  0.1032
19307TIP3    H179336   0.831   0.394  13.730  0.0441 -1.0328 -0.2604
19307TIP3    H279337   0.722   0.422  13.630 -0.1576  2.1100  0.7227
19308TIP3   OH279338   6.331   1.350   5.180 -0.0653 -0.0832 -0.8412
19308TIP3    H179339   6.374   1.433   5.161  1.5422 -0.6084  0.2895
19308TIP3    H279340   6.260   1.373   5.240  2.9110  0.1853  3.0149
19309TIP3   OH279341   5.665   0.094  13.702  0.0772 -0.1163  0.3391
19309TIP3    H179342   5.613   0.126  13.776 -0.5160  0.8525 -0.4616
19309TIP3    H279343   5.693   0.006  13.728  0.8168  0.6141  2.1494
19310TIP3   OH279344   0.104   0.555   5.579  0.4976  0.6491 -0.1994
19310TIP3    H179345   0.041   0.588   5.515  1.2484 -0.0533 -1.3418
19310TIP3    H279346   0.063   0.571   5.664 -2.1014 -1.4637 -0.9082
19311TIP3   OH279347   1.637   3.451  12.505  0.0710  0.3308 -0.5460
19311TIP3    H179348   1.612   3.498  12.426  0.0742  0.7233 -0.3163
19311TIP3    H279349   1.683   3.516  12.559 -1.3659  0.5462  0.4993
19312TIP3   OH279350   4.455   2.787   1.709 -0.6166  0.0364  0.1612
19312TIP3    H179351   4.496   2.700   1.713 -0.8567 -0.2533 -2.0526
19312TIP3    H279352   4.527   2.848   1.723  0.6291 -0.4791 -3.0584
19313TIP3   OH279353   3.466   1.934   2.875 -0.3291  0.2673 -0.0759
19313TIP3    H179354   3.550   1.900   2.905  0.4441  1.6933 -0.5107
19313TIP3    H279355   3.400   1.881   2.921  0.7979  0.3179  1.6805
19314TIP3   OH279356   2.962   6.755   5.443  0.1157  0.2971 -0.2614
19314TIP3    H179357   2.952   6.796   5.356 -0.1740  1.4098  0.2790
19314TIP3    H279358   2.932   6.822   5.504  1.8259  0.1331  0.8099
19315TIP3   OH279359   1.517   2.571  12.478 -0.6075  0.5705  0.3634
19315TIP3    H179360   1.512   2.477  12.465 -2.1285  0.6660  0.1587
19315TIP3    H279361   1.602   2.596  12.441  0.2771 -0.8440  1.3578
19316TIP3   OH279362   4.903   0.138  13.785  0.1889  0.0120 -0.1765
19316TIP3    H179363   4.879   0.058  13.832  0.3812  1.4048  2.4118
19316TIP3    H279364   4.907   0.110  13.693 -0.2574 -2.8207  0.5562
19317TIP3   OH279365   5.865   4.730  14.338 -0.3001  0.0253 -0.4066
19317TIP3    H179366   5.915   4.652  14.363 -1.3521 -0.1666  1.2999
19317TIP3    H279367   5.781   4.719  14.383 -0.9643  1.5028 -1.2396
19318TIP3   OH279368   6.263   4.831   2.979  0.1532  0.1553  0.1383
19318TIP3    H179369   6.232   4.745   3.009 -0.3041  0.6696  1.1892
19318TIP3    H279370   6.214   4.894   3.031  0.5916  1.0647 -0.5187
19319TIP3   OH279371   4.388   5.685   5.465  0.0847 -0.3724 -0.3182
19319TIP3    H179372   4.461   5.725   5.419 -1.5254  1.9664 -1.0084
19319TIP3    H279373   4.376   5.739   5.543 -2.3431  0.9034 -1.4331
19320TIP3   OH279374   0.721   1.579  11.606  0.0954  0.0781 -0.4757
19320TIP3    H179375   0.646   1.541  11.653  1.3251 -1.2346  0.5169
19320TIP3    H279376   0.729   1.525  11.527  1.2746 -1.2469  0.4856
19321TIP3   OH279377   0.533   1.609   4.138  0.1708  0.4195 -0.0031
19321TIP3    H179378   0.584   1.664   4.078 -1.3873  2.8072  0.7065
19321TIP3    H279379   0.555   1.519   4.113  3.8043  1.2828 -0.4154
19322TIP3   OH279380   0.873   3.988   0.123  0.0628 -0.7133 -0.2156
19322TIP3    H179381   0.833   4.045   0.189 -0.5500  0.7495 -1.7929
19322TIP3    H279382   0.803   3.929   0.095 -0.8320  1.1888 -2.2514
19323TIP3   OH279383   2.685   3.911   0.534 -0.0079  0.6993  0.1096
19323TIP3    H179384   2.751   3.864   0.585 -0.0611  0.6953  0.1760
19323TIP3    H279385   2.613   3.849   0.525 -0.9286  1.4108  1.9178
19324TIP3   OH279386   6.750   6.159   3.072  0.1356 -0.6096  0.0359
19324TIP3    H179387   6.725   6.069   3.053 -0.5038 -0.5933  0.7469
19324TIP3    H279388   6.693   6.185   3.144  0.9854  0.0422  0.4883
19325TIP3   OH279389   2.349   1.174  16.967  0.4526  0.1655 -0.2726
19325TIP3    H179390   2.336   1.094  17.018  0.8196  0.7982  0.8619
19325TIP3    H279391   2.289   1.238  17.006  0.2884  0.4938 -1.0468
19326TIP3   OH279392   6.693   1.518   4.283  0.3067 -0.2728  0.2806
19326TIP3    H179393   6.672   1.432   4.321  0.7764 -0.9765 -0.9938
19326TIP3    H279394   6.788   1.522   4.286  0.2900  0.1597  0.2266
19327TIP3   OH279395   2.669   5.382  14.520 -0.0143  0.2081 -1.1549
19327TIP3    H179396   2.659   5.477  14.521 -0.2298  0.1836 -0.2992
19327TIP3    H279397   2.764   5.369  14.517  0.1716  0.4870  1.3341
19328TIP3   OH279398   3.602   0.315   1.642  0.5055  0.6098  0.2142
19328TIP3    H179399   3.631   0.228   1.671  0.0903 -0.0696 -1.3008
19328TIP3    H279400   3.653   0.376   1.695  0.6737 -0.5585  1.4362
19329TIP3   OH279401   4.143   2.435   2.084 -0.3814  0.0000 -0.3041
19329TIP3    H179402   4.121   2.375   2.012  0.0365 -0.0991 -0.3505
19329TIP3    H279403   4.062   2.442   2.134 -0.6869  0.0941 -0.8058
19330TIP3   OH279404   2.557   0.878  15.055  0.3472  0.0758  0.1894
19330TIP3    H179405   2.590   0.830  14.979 -2.3144  0.2531 -1.2021
19330TIP3    H279406   2.487   0.822  15.090 -0.9748  1.6732  0.2000
19331TIP3   OH279407   5.471   5.478  17.106 -0.0697 -0.0342 -0.1967
19331TIP3    H179408   5.449   5.425  17.182  0.5705 -0.8084 -0.5420
19331TIP3    H279409   5.430   5.563  17.124  0.9125  0.1196  1.4648
19332TIP3   OH279410   5.056   0.600  13.479  0.6457 -0.0602 -0.6081
19332TIP3    H179411   4.970   0.566  13.454  2.0879 -3.2894 -1.6370
19332TIP3    H279412   5.043   0.695  13.484 -2.6042 -0.2839 -2.1759
19333TIP3   OH279413   0.258   1.834  12.600  0.3067  0.5624 -0.6313
19333TIP3    H179414   0.182   1.883  12.630  0.0822  0.8827 -1.6720
19333TIP3    H279415   0.221   1.757  12.556  0.5624  0.8329 -1.3416
19334TIP3   OH279416   6.288   6.194  14.777 -0.2586 -0.0139  0.2592
19334TIP3    H179417   6.326   6.227  14.858 -0.8538  1.1846  0.0779
19334TIP3    H279418   6.316   6.102  14.772  1.4989  0.4743  0.7546
19335TIP3   OH279419   3.541   0.429   4.519  0.2026  0.0887  0.4053
19335TIP3    H179420   3.456   0.426   4.564  1.9231 -1.5832  3.9673
19335TIP3    H279421   3.533   0.364   4.449 -1.5822  0.3511  0.3095
19336TIP3   OH279422   2.628   1.896   2.943  0.0962 -0.0271  0.1053
19336TIP3    H179423   2.599   1.913   3.032  0.8725 -1.4960  0.6553
19336TIP3    H279424   2.682   1.973   2.920 -0.0789  0.3368  0.9056
19337TIP3   OH279425   5.277   1.684  15.588 -0.2210 -0.3658 -0.2831
19337TIP3    H179426   5.349   1.724  15.637 -1.0383 -0.4041  1.0182
19337TIP3    H279427   5.227   1.637  15.655 -3.1823  2.1415 -0.5274
19338TIP3   OH279428   0.582   5.196   4.782  0.1046  0.3393 -0.4100
19338TIP3    H179429   0.502   5.233   4.745 -0.1365  0.8232  0.5769
19338TIP3    H279430   0.581   5.104   4.754  0.2677  0.8310 -2.1346
19339TIP3   OH279431   1.143   5.535  15.377 -0.1047  0.2705 -0.2360
19339TIP3    H179432   1.104   5.473  15.315 -2.2040  0.7620  0.5367
19339TIP3    H279433   1.190   5.480  15.439 -0.8367 -0.4672 -0.3173
19340TIP3   OH279434   5.800   3.682  15.193 -0.1046 -0.3422 -0.3592
19340TIP3    H179435   5.831   3.768  15.222 -1.1697  0.9633 -2.7919
19340TIP3    H279436   5.711   3.698  15.162 -0.4476 -2.4149 -0.5927
19341TIP3   OH279437   1.667   2.472   2.023 -0.2049 -0.2049  0.0929
19341TIP3    H179438   1.713   2.500   2.102  2.3564 -0.5145 -1.1950
19341TIP3    H279439   1.723   2.405   1.985 -0.9520  0.4648 -2.3621
19342TIP3   OH279440   6.437   1.782   1.478 -0.3687  0.6307 -0.0113
19342TIP3    H179441   6.394   1.699   1.461 -1.4663  0.8447  1.5638
19342TIP3    H279442   6.440   1.825   1.393 -0.0965 -0.8513 -0.7815
19343TIP3   OH279443   0.428   0.403   1.890  0.1172 -0.5984  0.1756
19343TIP3    H179444   0.341   0.396   1.851  0.6961  1.1178 -1.5768
19343TIP3    H279445   0.472   0.322   1.867 -0.8381 -1.2725  0.6665
19344TIP3   OH279446   5.738   5.176  13.846  0.1181 -0.1237  0.4684
19344TIP3    H179447   5.661   5.230  13.824  0.6339  0.7075  0.6671
19344TIP3    H279448   5.812   5.225  13.811  0.4443 -1.8912 -1.5930
19345TIP3   OH279449   2.893   1.282   5.634 -0.3651  0.5693  0.2248
19345TIP3    H179450   2.806   1.267   5.671 -1.1084  0.4188 -1.5033
19345TIP3    H279451   2.920   1.197   5.601  0.0018  0.8223 -0.1393
19346TIP3   OH279452   4.753   1.445  16.897  0.2228 -0.6007 -0.3653
19346TIP3    H179453   4.666   1.457  16.858 -0.6784 -0.5929  1.5146
19346TIP3    H279454   4.807   1.411  16.826 -0.4941  2.1749 -2.4503
19347TIP3   OH279455   5.535   6.026  10.262  0.1378  0.0618  0.0664
19347TIP3    H179456   5.439   6.032  10.253 -0.0621  1.9166  2.6182
19347TIP3    H279457   5.564   6.116  10.270  1.4849 -0.5670  4.2435
19348TIP3   OH279458   2.587   6.036   3.418  0.0048 -0.3647  0.4059
19348TIP3    H179459   2.676   6.001   3.426  0.4608  0.7508  0.3666
19348TIP3    H279460   2.591   6.122   3.459 -0.7970  0.1546 -0.5729
19349TIP3   OH279461   3.928   5.815   1.957 -0.3334  0.0486  0.6522
19349TIP3    H179462   3.853   5.797   2.015 -0.6420 -0.5447  0.0869
19349TIP3    H279463   3.983   5.738   1.965  1.2745  1.3250  2.6203
19350TIP3   OH279464   4.168   6.725   5.839 -0.0821 -0.3552 -0.7280
19350TIP3    H179465   4.241   6.702   5.781  1.0536 -2.0737  1.2391
19350TIP3    H279466   4.126   6.641   5.859 -3.4386  0.6741 -2.7040
19351TIP3   OH279467   4.442   0.081   1.155 -0.2826 -0.1489 -0.5945
19351TIP3    H179468   4.524   0.091   1.205 -1.4992 -1.6629  1.8991
19351TIP3    H279469   4.462   0.014   1.090  0.4264 -0.7224  0.1756
19352TIP3   OH279470   0.411   4.173  13.444  0.0316  0.6690 -0.1694
19352TIP3    H179471   0.390   4.089  13.403 -0.6499  1.2605 -1.0691
19352TIP3    H279472   0.357   4.176  13.523  1.1598 -0.3657  0.6848
19353TIP3   OH279473   3.254   0.165  12.586  0.1133 -0.3509  0.0762
19353TIP3    H179474   3.276   0.200  12.673  0.8535  4.2736 -1.7207
19353TIP3    H279475   3.159   0.156  12.588  0.1714 -1.0125  1.5254
19354TIP3   OH279476   3.618   2.015   5.105 -0.0947  0.3184  0.8359
19354TIP3    H179477   3.542   1.984   5.155 -0.5351  1.5992  1.0056
19354TIP3    H279478   3.583   2.033   5.018  1.1266 -4.1534 -0.8491
19355TIP3   OH279479   3.091   0.937  14.535 -0.1745  0.2835 -0.7308
19355TIP3    H179480   3.087   1.032  14.538 -0.4797  0.3068 -1.7239
19355TIP3    H279481   3.013   0.911  14.487  0.1100 -0.4475 -0.8097
19356TIP3   OH279482   4.571   5.086  14.614  0.0699  0.2992 -0.1519
19356TIP3    H179483   4.586   5.161  14.556  1.0429  0.0457 -0.2485
19356TIP3    H279484   4.507   5.032  14.567  1.1957 -0.1426 -1.2515
19357TIP3   OH279485   0.608   3.207  15.893  0.0789  0.4627 -0.2500
19357TIP3    H179486   0.516   3.202  15.866  0.1130 -0.5710 -0.2300
19357TIP3    H279487   0.617   3.292  15.935 -1.4373 -0.3478  1.8323
19358TIP3   OH279488   2.956   4.813   4.461  0.1055 -0.4038 -0.2958
19358TIP3    H179489   2.922   4.808   4.551  0.9274 -1.1191 -0.0121
19358TIP3    H279490   2.879   4.801   4.405 -0.8800  2.4566  0.2254
19359TIP3   OH279491   2.624   3.647  12.900 -0.1743 -0.0131 -0.1110
19359TIP3    H179492   2.567   3.662  12.825 -0.2202 -1.1208 -0.3192
19359TIP3    H279493   2.613   3.725  12.955 -1.5559 -0.0075 -0.3576
19360TIP3   OH279494   5.600   6.742   0.356  0.1028 -0.0944 -0.5749
19360TIP3    H179495   5.546   6.810   0.397  0.8272 -0.0384  0.3283
19360TIP3    H279496   5.686   6.753   0.396  0.1704 -1.7308 -0.2004
19361TIP3   OH279497   1.377   4.486  10.760  0.4690  0.1009 -0.5129
19361TIP3    H179498   1.288   4.488  10.725  0.1636  0.6065  0.2511
19361TIP3    H279499   1.421   4.415  10.713 -0.7076 -0.9727 -0.0454
19362TIP3   OH279500   0.985   2.282   0.540  0.3813 -0.3952 -0.5272
19362TIP3    H179501   1.055   2.277   0.605 -0.3046  0.1867  0.2878
19362TIP3    H279502   0.904   2.277   0.592 -0.1876  0.6148 -1.2725
19363TIP3   OH279503   5.056   1.352  14.786  0.2552  0.1427 -0.5098
19363TIP3    H179504   5.133   1.326  14.736 -0.4392 -0.6983 -1.1916
19363TIP3    H279505   5.020   1.427  14.738 -0.9988 -1.3012 -1.9516
19364TIP3   OH279506   3.300   3.213  11.261  0.1850 -0.4565 -0.3638
19364TIP3    H179507   3.264   3.159  11.191 -0.0970  1.9674 -2.2303
19364TIP3    H279508   3.223   3.249  11.306  0.3480 -0.2428 -0.2506
19365TIP3   OH279509   2.925   3.620   4.212 -0.0027 -0.8418  0.0346
19365TIP3    H179510   2.980   3.605   4.135  0.7895 -2.9216  0.9278
19365TIP3    H279511   2.861   3.685   4.183  1.7678  0.3093 -1.6083
19366TIP3   OH279512   3.226   4.258   6.192 -0.1136 -0.4276  0.2737
19366TIP3    H179513   3.136   4.284   6.211  0.0428  1.8452 -1.6956
19366TIP3    H279514   3.274   4.340   6.186  1.4608 -1.4091 -1.6554
19367TIP3   OH279515   4.636   6.482   3.953  0.8045 -0.4838  0.4065
19367TIP3    H179516   4.672   6.570   3.939 -0.8555  0.0788 -0.6819
19367TIP3    H279517   4.623   6.476   4.047  1.2872  0.2963  0.5328
19368TIP3   OH279518   1.879   2.104  12.849  0.6586 -0.4111 -0.0963
19368TIP3    H179519   1.930   2.148  12.781 -0.3236 -1.1885 -1.3766
19368TIP3    H279520   1.908   2.013  12.846  0.3913 -0.5139  0.3192
19369TIP3   OH279521   0.215   1.562   1.446  0.1756  0.0556 -0.1580
19369TIP3    H179522   0.181   1.489   1.395  2.2746 -1.4568  0.4681
19369TIP3    H279523   0.310   1.551   1.443  0.4583  0.6129  2.9570
19370TIP3   OH279524   3.312   2.760   1.019  0.5636 -0.0819  0.1852
19370TIP3    H179525   3.290   2.725   0.932  1.6170  0.3341 -0.2592
19370TIP3    H279526   3.260   2.840   1.026  2.1664  1.1301 -1.0401
19371TIP3   OH279527   1.303   3.568   3.905 -0.5105  0.2038  0.3624
19371TIP3    H179528   1.292   3.631   3.976 -2.2431  1.6019 -1.0704
19371TIP3    H279529   1.231   3.505   3.918  1.5935 -2.0727  2.1969
19372TIP3   OH279530   2.663   3.009  16.390 -0.2325 -0.0404 -0.2935
19372TIP3    H179531   2.569   2.994  16.401 -0.2179  0.9387  1.5101
19372TIP3    H279532   2.700   2.999  16.477  1.5781 -1.6542 -1.1754
19373TIP3   OH279533   5.481   4.465  15.590  0.2280  0.3190  0.0936
19373TIP3    H179534   5.399   4.496  15.629 -0.1809  1.8785 -1.8548
19373TIP3    H279535   5.522   4.544  15.556  0.6048 -0.8976 -2.4785
19374TIP3   OH279536   4.721   1.262   4.487 -0.1105 -0.0238  0.9176
19374TIP3    H179537   4.783   1.327   4.454  0.3459 -0.1310  1.5534
19374TIP3    H279538   4.642   1.313   4.509 -0.8529 -0.0965 -1.3627
19375TIP3   OH279539   3.956   1.352   2.331 -0.3242 -0.7347  0.1639
19375TIP3    H179540   3.958   1.329   2.424 -1.3708  1.1289  0.6787
19375TIP3    H279541   3.905   1.432   2.327 -0.8396 -1.1269 -2.1208
19376TIP3   OH279542   3.936   6.187  13.116 -0.2050  0.6326  0.1744
19376TIP3    H179543   3.892   6.272  13.123 -0.3055  0.7887 -1.7675
19376TIP3    H279544   3.874   6.132  13.068  1.0870  0.4529 -1.3838
19377TIP3   OH279545   6.434   2.934  12.343 -0.1430 -0.2470  0.5140
19377TIP3    H179546   6.502   2.995  12.315 -1.6813  1.3494  0.0544
19377TIP3    H279547   6.353   2.973  12.311 -1.2442 -2.3288  0.6401
19378TIP3   OH279548   4.378   2.267  15.863 -0.3941 -0.4439  0.5385
19378TIP3    H179549   4.356   2.175  15.877  2.6556 -1.2221  0.9416
19378TIP3    H279550   4.389   2.275  15.768 -0.4400 -0.5289  0.5264
19379TIP3   OH279551   2.609   2.262  11.249  0.1530 -0.7049 -0.4753
19379TIP3    H179552   2.554   2.235  11.175  0.2888 -1.6993 -0.2278
19379TIP3    H279553   2.698   2.261  11.214  0.1634 -0.6359 -0.4494
19380TIP3   OH279554   1.946   3.075  12.923 -0.4763 -0.2096  0.0117
19380TIP3    H179555   1.909   3.056  12.837 -1.5384 -0.3015  0.4676
19380TIP3    H279556   1.981   2.992  12.953 -1.1601 -0.4586  0.1476
19381TIP3   OH279557   2.445   2.792   4.207 -0.1840  0.1839  0.2649
19381TIP3    H179558   2.522   2.839   4.177 -1.8389  1.9670 -1.4486
19381TIP3    H279559   2.417   2.739   4.132 -1.2644  0.4532  0.4537
19382TIP3   OH279560   4.106   6.324  12.592 -0.0692 -0.0921  0.2195
19382TIP3    H179561   4.058   6.400  12.625  0.2991 -0.3352  1.3569
19382TIP3    H279562   4.106   6.335  12.497  0.8130  1.8541  0.4005
19383TIP3   OH279563   6.171   5.220  15.212  0.6662  0.2551 -0.1662
19383TIP3    H179564   6.212   5.137  15.234  0.4789 -0.1459 -1.2557
19383TIP3    H279565   6.097   5.228  15.273  1.2103  0.0573  0.5241
19384TIP3   OH279566   2.626   4.542  15.688 -0.3180  0.1052 -0.8521
19384TIP3    H179567   2.558   4.600  15.653  0.6975  0.8934 -1.5660
19384TIP3    H279568   2.642   4.478  15.619  0.5110  0.6616 -1.1958
19385TIP3   OH279569   0.743   1.756   4.625 -0.3836  0.0580  0.3416
19385TIP3    H179570   0.837   1.741   4.618 -0.4149 -0.1200  0.2992
19385TIP3    H279571   0.733   1.851   4.618 -0.3210 -0.0221 -0.9588
19386TIP3   OH279572   6.060   2.060  10.773 -0.1766  0.0487 -0.2352
19386TIP3    H179573   6.148   2.048  10.808 -0.3306  2.0062  0.9779
19386TIP3    H279574   6.039   1.977  10.730  1.6275 -1.0174  0.8439
19387TIP3   OH279575   0.269   1.357  15.778  0.3084  0.7174  0.0236
19387TIP3    H179576   0.280   1.371  15.684 -2.3032  1.0731 -0.2906
19387TIP3    H279577   0.250   1.264  15.787 -2.0470  1.1240 -0.1637
19388TIP3   OH279578   3.525   5.835  15.964  0.2107  0.2122  0.3085
19388TIP3    H179579   3.549   5.780  16.038 -0.3649  0.2502  0.5221
19388TIP3    H279580   3.451   5.887  15.995 -0.2965 -0.0558 -0.4231
19389TIP3   OH279581   6.758   6.649  17.133  0.1059 -0.2248 -0.3453
19389TIP3    H179582   6.663   6.647  17.148  0.1585  0.7693  0.2461
19389TIP3    H279583   6.785   6.558  17.134 -0.6953 -0.4667  0.5237
19390TIP3   OH279584   3.780   5.431   2.803  0.0261  0.0360 -0.2349
19390TIP3    H179585   3.739   5.387   2.877  2.1647 -0.1623  0.9412
19390TIP3    H279586   3.872   5.441   2.830  0.7039  0.6743 -2.5513
19391TIP3   OH279587   3.274   0.594  16.326 -0.2750  0.3532  0.0961
19391TIP3    H179588   3.358   0.639  16.341  0.1884 -1.0114  1.8476
19391TIP3    H279589   3.273   0.523  16.390 -2.4640 -0.1181 -0.3982
19392TIP3   OH279590   3.114   5.404   2.808 -0.6915  0.5629 -0.5692
19392TIP3    H179591   3.120   5.458   2.887 -2.3838 -0.2495  0.1579
19392TIP3    H279592   3.204   5.399   2.776 -0.2926  2.7103  0.0687
19393TIP3   OH279593   1.421   6.514   3.066  0.4425  0.4674  0.0124
19393TIP3    H179594   1.512   6.539   3.083  1.6835 -2.9182 -0.8041
19393TIP3    H279595   1.398   6.456   3.139 -0.1536 -0.6499 -1.0299
19394TIP3   OH279596   1.989   4.770  10.347  0.7346  0.6383 -0.0821
19394TIP3    H179597   1.962   4.806  10.263  4.2098  2.2485 -0.6793
19394TIP3    H279598   1.963   4.837  10.411  1.1468  1.0288 -0.3233
19395TIP3   OH279599   4.854   1.998   2.442 -0.3425 -0.7186 -0.1158
19395TIP3    H179600   4.821   1.947   2.368  0.5235 -1.2879 -0.1222
19395TIP3    H279601   4.790   1.982   2.511 -0.6473 -0.9581 -0.4454
19396TIP3   OH279602   4.885   0.112   1.718 -0.4117  0.0136 -0.0555
19396TIP3    H179603   4.901   0.151   1.804  0.2982 -0.1284 -0.1219
19396TIP3    H279604   4.911   0.180   1.656  2.5717 -1.1228 -0.2150
19397TIP3   OH279605   5.908   1.899  11.534  0.2301  0.2602  0.1473
19397TIP3    H179606   5.951   1.909  11.450  0.1922  0.4729  0.1511
19397TIP3    H279607   5.970   1.850  11.588 -0.4115 -1.3529 -0.5075
19398TIP3   OH279608   6.147   3.282  11.016 -0.0019 -0.1895 -0.2271
19398TIP3    H179609   6.055   3.268  10.993 -1.0229  1.2174  2.5729
19398TIP3    H279610   6.179   3.341  10.948 -1.1951 -0.5695 -1.1661
19399TIP3   OH279611   3.300   5.775   3.177 -0.1049 -0.3010  0.3447
19399TIP3    H179612   3.379   5.791   3.124 -0.6302 -1.6301 -0.9004
19399TIP3    H279613   3.230   5.764   3.112 -0.9585 -1.0151  1.3596
19400TIP3   OH279614   0.240   3.556   0.609  0.1593 -0.4584  0.1575
19400TIP3    H179615   0.250   3.612   0.533 -1.6988  0.6730  0.7023
19400TIP3    H279616   0.328   3.520   0.624  0.8673  0.4468 -1.6002
19401TIP3   OH279617   1.306   2.900  15.289  0.5180 -0.0390 -0.4493
19401TIP3    H179618   1.214   2.894  15.263 -0.0608  0.7502  1.2652
19401TIP3    H279619   1.346   2.955  15.222 -1.1369  2.7633  0.6751
19402TIP3   OH279620   1.363   4.080   0.073 -0.2921  0.0137 -0.2981
19402TIP3    H179621   1.398   4.081   0.162  1.9666 -0.1150 -1.1222
19402TIP3    H279622   1.392   3.997   0.036  1.6703  1.3772 -2.1351
19403TIP3   OH279623   6.735   1.257  15.426 -0.5807  0.2689  0.3042
19403TIP3    H179624   6.643   1.271  15.406 -0.4438  1.2641  0.2992
19403TIP3    H279625   6.766   1.343  15.456  0.3359 -0.0563  0.3202
19404TIP3   OH279626   5.607   0.578   1.414  0.4770 -0.2470  0.3023
19404TIP3    H179627   5.681   0.595   1.355 -1.1690 -0.6714 -2.0311
19404TIP3    H279628   5.557   0.659   1.413 -0.4756 -0.8186 -0.3285
19405TIP3   OH279629   3.669   4.766  14.391 -0.1888 -0.0495 -0.1861
19405TIP3    H179630   3.598   4.810  14.438  1.2499  0.0295  2.0475
19405TIP3    H279631   3.648   4.672  14.398  0.3016 -0.0875  1.2567
19406TIP3   OH279632   5.166   4.708   2.697 -0.5903  0.5198 -0.1921
19406TIP3    H179633   5.132   4.628   2.655  0.2828 -0.3290  0.6668
19406TIP3    H279634   5.130   4.779   2.644 -0.8725 -0.4573 -1.3735
19407TIP3   OH279635   2.296   2.534  11.519  0.9401  0.3183 -0.9467
19407TIP3    H179636   2.304   2.550  11.425 -0.3262 -2.1272 -1.5382
19407TIP3    H279637   2.287   2.439  11.527  1.2299  0.4438  1.6803
19408TIP3   OH279638   2.158   6.260  15.612 -0.0015  0.1146  0.4456
19408TIP3    H179639   2.101   6.288  15.540  0.6894  0.2759 -0.0469
19408TIP3    H279640   2.204   6.340  15.638  1.4331 -0.3865 -0.4697
19409TIP3   OH279641   5.971   4.440  11.309 -0.3849  0.4018 -0.5655
19409TIP3    H179642   6.063   4.430  11.284 -0.1446  2.1396 -0.4830
19409TIP3    H279643   5.924   4.439  11.226 -0.3644 -0.9551 -0.5812
19410TIP3   OH279644   4.522   1.611  11.506 -0.3649 -0.7335  0.0531
19410TIP3    H179645   4.490   1.540  11.561 -1.8887 -1.2805 -1.4858
19410TIP3    H279646   4.472   1.688  11.534 -0.5593 -0.8310 -0.0295
19411TIP3   OH279647   2.309   3.517  13.251 -0.1757 -0.0545  0.3215
19411TIP3    H179648   2.258   3.582  13.202 -0.0246 -0.6865 -0.7246
19411TIP3    H279649   2.277   3.523  13.341 -2.3153 -0.5999 -0.3481
19412TIP3   OH279650   3.587   5.154  15.343 -0.3093 -0.4201 -0.2132
19412TIP3    H179651   3.584   5.122  15.253  1.2888 -2.2141  0.3156
19412TIP3    H279652   3.521   5.103  15.389 -1.4655  0.8278 -0.4016
19413TIP3   OH279653   6.525   3.117   0.384  0.0064 -0.0724 -0.0477
19413TIP3    H179654   6.550   3.125   0.292  1.3888 -0.6427  0.2504
19413TIP3    H279655   6.451   3.177   0.394  1.4973  2.0464 -0.9371
19414TIP3   OH279656   4.523   3.421  16.489  0.4023  0.2008  0.0537
19414TIP3    H179657   4.429   3.433  16.475  0.8188  1.2414 -2.2986
19414TIP3    H279658   4.529   3.349  16.552 -1.9484 -0.7451 -0.6963
19415TIP3   OH279659   2.307   3.972   1.509 -0.2391  0.6175  0.7596
19415TIP3    H179660   2.329   3.910   1.440  0.7928 -0.0078  1.6342
19415TIP3    H279661   2.371   4.043   1.499 -0.3711  0.7442  0.8016
19416TIP3   OH279662   1.389   4.361   2.856 -0.0575  0.0241 -0.7397
19416TIP3    H179663   1.393   4.442   2.806 -1.4274 -0.9491 -2.5447
19416TIP3    H279664   1.302   4.326   2.838  0.3795 -1.6749  0.2579
19417TIP3   OH279665   0.676   6.175   2.468  0.0632 -0.8402 -0.3618
19417TIP3    H179666   0.684   6.152   2.560 -1.5657  0.3662  0.1304
19417TIP3    H279667   0.595   6.132   2.439 -0.8727  0.9220 -0.4804
19418TIP3   OH279668   3.402   1.958   5.286 -0.4845 -0.5520  0.1949
19418TIP3    H179669   3.479   1.918   5.327  0.3465  1.6225  0.9411
19418TIP3    H279670   3.337   1.962   5.357 -1.5199 -2.7757 -0.5455
19419TIP3   OH279671   5.631   0.590  14.373 -0.4448 -0.4001 -0.2832
19419TIP3    H179672   5.633   0.675  14.330  1.0512 -1.1854 -1.8827
19419TIP3    H279673   5.582   0.534  14.313  0.9292 -1.3051 -0.5983
19420TIP3   OH279674   5.074   0.813   5.531 -0.1428  0.0572  0.1099
19420TIP3    H179675   5.161   0.802   5.491  0.4619  0.0209  1.3822
19420TIP3    H279676   5.031   0.879   5.477  1.6253  1.9393  0.8880
19421TIP3   OH279677   6.602   1.039  13.841  0.0581 -0.0192  0.3208
19421TIP3    H179678   6.682   1.064  13.796 -0.5730 -0.6104 -1.1790
19421TIP3    H279679   6.537   1.031  13.772 -0.8786 -1.2665  1.2983
19422TIP3   OH279680   3.960   4.333  11.235  0.2924 -0.1125 -0.1345
19422TIP3    H179681   3.909   4.355  11.313  1.6771 -1.0063  1.0822
19422TIP3    H279682   3.913   4.260  11.194  0.3743 -0.6645  0.7434
19423TIP3   OH279683   0.735   1.613  11.960 -0.4247 -0.6302 -0.1206
19423TIP3    H179684   0.774   1.598  12.046 -0.2142 -0.0740 -0.1199
19423TIP3    H279685   0.771   1.543  11.906  0.8560  0.0838 -0.2097
19424TIP3   OH279686   1.136   2.639   0.986  0.1055 -0.3587 -0.0609
19424TIP3    H179687   1.088   2.569   1.030 -1.6763  0.0065 -1.3002
19424TIP3    H279688   1.215   2.598   0.953 -0.4097 -1.5346  0.1274
19425TIP3   OH279689   2.761   1.797  15.975 -0.1307  0.8092  0.5656
19425TIP3    H179690   2.709   1.849  15.915 -0.8965 -2.9622 -2.4628
19425TIP3    H279691   2.851   1.811  15.947 -0.0483  2.2431  1.4289
19426TIP3   OH279692   4.132   5.107   6.319  0.2687  0.2918 -0.3106
19426TIP3    H179693   4.087   5.057   6.386 -2.5141  0.5360 -1.8521
19426TIP3    H279694   4.117   5.199   6.342  0.1367  0.3833 -0.7577
19427TIP3   OH279695   5.327   3.633  13.494 -0.0050 -0.4740 -0.1251
19427TIP3    H179696   5.305   3.551  13.538 -1.5365  0.0965  0.2312
19427TIP3    H279697   5.380   3.606  13.418 -0.7879 -1.8283 -0.2205
19428TIP3   OH279698   4.251   3.931   5.488  0.2069 -0.1802  0.7966
19428TIP3    H179699   4.320   3.996   5.472 -1.0779  0.6176 -2.0691
19428TIP3    H279700   4.294   3.846   5.476  0.7490  0.3031 -0.8404
19429TIP3   OH279701   1.783   0.832   5.158  0.7988  0.5787 -0.2122
19429TIP3    H179702   1.865   0.808   5.116  0.2897 -1.8585  0.0271
19429TIP3    H279703   1.716   0.789   5.104 -0.2241  1.4460  0.3412
19430TIP3   OH279704   5.585   2.943  14.748  0.1597 -0.1355 -0.1108
19430TIP3    H179705   5.524   2.870  14.756 -1.2049  0.7926 -1.5435
19430TIP3    H279706   5.575   2.992  14.830 -1.3580  0.2258 -0.4892
19431TIP3   OH279707   0.958   6.438   2.659  0.0396 -0.1324  0.5618
19431TIP3    H179708   0.929   6.448   2.568  0.1109 -0.4743  0.5018
19431TIP3    H279709   1.053   6.442   2.654  0.1361 -1.9486  0.3907
19432TIP3   OH279710   1.105   6.358  16.736 -0.6053 -0.8147  0.1295
19432TIP3    H179711   1.039   6.302  16.695 -0.3327  0.3263 -2.0019
19432TIP3    H279712   1.172   6.369  16.669 -0.7181  2.1294  0.3724
19433TIP3   OH279713   4.508   5.789   3.009  0.0635  0.2367 -0.6184
19433TIP3    H179714   4.531   5.751   3.094 -1.5586  0.1502 -0.1858
19433TIP3    H279715   4.575   5.757   2.949  1.1394  0.1547  0.5875
19434TIP3   OH279716   0.677   3.308   1.983  0.2015 -0.0411 -0.0795
19434TIP3    H179717   0.592   3.283   1.949  0.1203  0.4749 -0.2622
19434TIP3    H279718   0.702   3.386   1.933  0.1314  0.6539  0.9442
19435TIP3   OH279719   0.502   1.918   0.595  0.4161 -0.0687  0.2497
19435TIP3    H179720   0.535   1.870   0.671 -1.1126 -2.4823 -0.5020
19435TIP3    H279721   0.417   1.952   0.623  0.1472 -0.4011 -0.1446
19436TIP3   OH279722   3.976   5.869  12.258 -0.5357  0.6666  0.4935
19436TIP3    H179723   3.926   5.920  12.194 -1.5652 -0.8728  0.0042
19436TIP3    H279724   3.909   5.823  12.308  0.3694 -1.2852 -0.0090
19437TIP3   OH279725   0.412   3.524   0.371  0.6440 -0.2286 -0.3602
19437TIP3    H179726   0.484   3.523   0.308  1.0851 -0.7260  0.1477
19437TIP3    H279727   0.391   3.431   0.384 -1.8733 -0.0727 -2.5191
19438TIP3   OH279728   4.463   3.519   3.563  0.0052 -0.2867 -0.2922
19438TIP3    H179729   4.372   3.547   3.552 -0.7841 -0.4110  4.2505
19438TIP3    H279730   4.459   3.424   3.570  0.8728 -0.5081 -2.0992
19439TIP3   OH279731   2.409   1.840   0.275 -0.0543 -0.1630 -0.5045
19439TIP3    H179732   2.392   1.928   0.307  1.0537  1.4051 -3.8104
19439TIP3    H279733   2.463   1.799   0.344  3.3620  3.4048 -0.7155
19440TIP3   OH279734   0.011   1.388  16.179  0.0836  0.1242 -0.3083
19440TIP3    H179735  -0.012   1.363  16.269 -1.1796  2.9138  0.2751
19440TIP3    H279736   0.043   1.478  16.187 -0.5383  0.6376 -2.6842
19441TIP3   OH279737   0.925   0.464  13.982 -0.3724 -0.3298 -0.0972
19441TIP3    H179738   0.964   0.551  13.990 -0.9123 -0.1711  1.0796
19441TIP3    H279739   0.830   0.481  13.981 -0.5702 -0.9821  2.1208
19442TIP3   OH279740   4.846   3.751  15.162 -0.1935  0.3070  0.1945
19442TIP3    H179741   4.925   3.793  15.129 -0.5669  0.2649 -0.7941
19442TIP3    H279742   4.780   3.820  15.162 -0.1994  0.3070  0.8789
19443TIP3   OH279743   6.102   1.137   4.233  0.0183 -0.6724  0.8720
19443TIP3    H179744   6.186   1.115   4.193 -0.4256 -0.0094 -0.4694
19443TIP3    H279745   6.051   1.055   4.229 -0.2678 -0.4427 -0.5856
19444TIP3   OH279746   5.625   3.234   4.365  0.4322  0.4772 -0.7817
19444TIP3    H179747   5.534   3.259   4.347 -0.2315 -1.7293 -0.8643
19444TIP3    H279748   5.676   3.280   4.300 -0.5582  2.1029 -0.4666
19445TIP3   OH279749   1.447   4.377  11.806  0.0803  0.1705  0.2785
19445TIP3    H179750   1.388   4.391  11.880  0.0975 -3.1927  1.0953
19445TIP3    H279751   1.390   4.351  11.734  0.3422 -1.0016  0.4680
19446TIP3   OH279752   1.554   4.538   2.529  0.1942  0.0785  0.0591
19446TIP3    H179753   1.519   4.568   2.445  1.2164  0.3316 -0.3006
19446TIP3    H279754   1.483   4.553   2.591 -0.5158  0.0624 -0.7272
19447TIP3   OH279755   1.548   5.248  12.336  0.1333 -0.1594  0.1250
19447TIP3    H179756   1.483   5.208  12.395  0.0645  0.4145  0.4420
19447TIP3    H279757   1.521   5.220  12.248 -1.4525  1.2752  0.0994
19448TIP3   OH279758   5.713   5.352   3.921 -0.7907 -0.3300  0.2621
19448TIP3    H179759   5.684   5.292   3.853 -0.0524 -0.1351 -0.2384
19448TIP3    H279760   5.641   5.414   3.931 -1.4513 -1.1320  0.6029
19449TIP3   OH279761   0.557   1.589   5.444 -0.0200 -0.3816  0.1373
19449TIP3    H179762   0.570   1.683   5.427 -0.6202 -0.3130  0.0431
19449TIP3    H279763   0.597   1.575   5.530  1.6709 -0.4153 -0.6074
19450TIP3   OH279764   0.532   3.079  13.952  0.3622 -0.1054  0.0110
19450TIP3    H179765   0.477   3.018  14.002  0.0135  0.3611  0.2024
19450TIP3    H279766   0.476   3.109  13.881 -0.0532  1.2950  0.8946
19451TIP3   OH279767   6.295   0.499  14.507 -0.7919 -0.5348  0.3482
19451TIP3    H179768   6.246   0.579  14.528 -0.1957 -0.4389  1.4419
19451TIP3    H279769   6.382   0.530  14.484 -0.2321 -0.9207  1.8605
19452TIP3   OH279770   5.449   0.136   1.807  0.5409 -0.0858  0.1865
19452TIP3    H179771   5.376   0.183   1.768 -0.7420 -1.8730  0.3029
19452TIP3    H279772   5.471   0.186   1.886  1.0586  1.7875 -1.0923
19453TIP3   OH279773   1.941   2.588  15.685  0.7076 -0.4384  0.7825
19453TIP3    H179774   2.018   2.532  15.671  0.3091 -0.9357  0.5180
19453TIP3    H279775   1.885   2.570  15.609  0.1596 -0.3773  1.1688
19454TIP3   OH279776   3.103   3.104   6.195 -0.0782 -0.3257 -0.3494
19454TIP3    H179777   3.146   3.190   6.191  1.1522 -0.9167 -0.2379
19454TIP3    H279778   3.152   3.056   6.261 -1.4252 -0.7730  0.3541
19455TIP3   OH279779   3.075   5.184  16.745  0.0750  0.4709  0.1228
19455TIP3    H179780   3.028   5.267  16.741  1.4623  1.2485 -0.7696
19455TIP3    H279781   3.023   5.125  16.691 -1.2477  0.5601  1.2551
19456TIP3   OH279782   2.901   2.817  14.933  0.2445 -0.1217 -0.5930
19456TIP3    H179783   2.843   2.813  15.009  0.0386 -2.5024 -0.7947
19456TIP3    H279784   2.843   2.835  14.859  0.4046  1.8813 -0.2787
19457TIP3   OH279785   1.772   3.656  16.932 -0.0931 -0.1122 -0.5108
19457TIP3    H179786   1.694   3.663  16.877  0.6573  0.9869 -1.4577
19457TIP3    H279787   1.825   3.731  16.909  1.3573 -0.9451 -0.0191
19458TIP3   OH279788   0.461   4.738   2.250  0.2792 -0.0568 -0.1406
19458TIP3    H179789   0.470   4.666   2.188 -1.8120  1.3115 -2.2192
19458TIP3    H279790   0.409   4.702   2.322 -1.6016 -0.4430 -1.6175
19459TIP3   OH279791   0.231   1.226   3.183  0.6513  0.4933  0.4027
19459TIP3    H179792   0.196   1.137   3.183 -2.1124  1.4222 -1.6401
19459TIP3    H279793   0.194   1.267   3.261 -1.0390  0.7760 -0.4952
19460TIP3   OH279794   4.493   2.020   3.458  0.4939  0.3488  0.5374
19460TIP3    H179795   4.549   1.989   3.529  0.9539 -0.8569 -0.2981
19460TIP3    H279796   4.480   2.113   3.476  3.3137  0.8712  0.4694
19461TIP3   OH279797   6.722   4.023  15.230  0.3455  0.0505 -0.4716
19461TIP3    H179798   6.745   3.930  15.234  1.8914  0.4685  2.5587
19461TIP3    H279799   6.798   4.065  15.191  0.4066  0.2478 -0.1411
19462TIP3   OH279800   2.559   4.993   0.945  0.9289 -0.3063  0.0096
19462TIP3    H179801   2.567   5.050   0.869  0.8095 -1.4951 -0.9196
19462TIP3    H279802   2.614   5.033   1.012  0.0287  1.4583 -0.2572
19463TIP3   OH279803   0.474   0.695   3.703 -0.4606 -0.2056 -0.7537
19463TIP3    H179804   0.477   0.682   3.608 -0.2804  2.3457 -1.1581
19463TIP3    H279805   0.388   0.733   3.719  0.1197  0.8665 -0.1297
19464TIP3   OH279806   0.265   3.596  12.767  0.2739  0.4542 -0.1208
19464TIP3    H179807   0.234   3.641  12.845 -0.3177 -1.2814  0.6983
19464TIP3    H279808   0.359   3.586  12.780  0.1042 -0.2816  0.6413
19465TIP3   OH279809   6.798   4.204   0.448 -0.3096 -1.2499  0.0886
19465TIP3    H179810   6.878   4.223   0.496  1.5926 -1.0508 -2.9414
19465TIP3    H279811   6.783   4.111   0.462  1.7346 -1.7890 -0.9982
19466TIP3   OH279812   0.119   5.004   1.964 -0.0513  0.2462  0.1332
19466TIP3    H179813   0.165   4.985   2.047  1.2988 -4.1624 -1.3376
19466TIP3    H279814   0.027   4.989   1.984 -0.1052  2.0032  1.4194
19467TIP3   OH279815   1.757   3.416  12.172 -0.4094 -0.5428 -0.0554
19467TIP3    H179816   1.849   3.417  12.198 -0.1497 -0.5100 -0.9407
19467TIP3    H279817   1.735   3.323  12.163 -0.8135 -0.6008  1.3022
19468TIP3   OH279818   0.724   5.849  11.775 -0.3475  0.4306 -1.1996
19468TIP3    H179819   0.777   5.892  11.842 -1.2379 -0.3938  0.0680
19468TIP3    H279820   0.788   5.808  11.717  0.5180  2.9238 -2.1480
19469TIP3   OH279821   4.028   2.757   1.077  0.8108 -0.1820 -0.1435
19469TIP3    H179822   3.965   2.702   1.030  0.4313  0.4230 -0.3591
19469TIP3    H279823   4.112   2.715   1.060  1.1594  1.6178 -3.9890
19470TIP3   OH279824   3.743   6.697  13.969 -0.1245 -0.2065  0.3211
19470TIP3    H179825   3.712   6.616  13.929 -0.5011 -0.6887  1.5449
19470TIP3    H279826   3.830   6.674  14.003 -1.2130 -0.8761  2.8476
19471TIP3   OH279827   4.802   5.292   4.709 -0.1472  0.0280 -0.2153
19471TIP3    H179828   4.736   5.249   4.763 -0.7370  0.3805 -0.6440
19471TIP3    H279829   4.803   5.241   4.628 -1.4127  1.2643 -1.0383
19472TIP3   OH279830   6.156   2.643   2.666  0.3175 -0.2659 -0.1411
19472TIP3    H179831   6.062   2.660   2.661  0.6467  1.5304 -0.9815
19472TIP3    H279832   6.170   2.566   2.611 -0.3790  0.7719 -1.8360
19473TIP3   OH279833   1.778   4.214   2.076 -0.0133 -0.4738  0.3044
19473TIP3    H179834   1.730   4.156   2.136  1.7419 -1.6387  0.6489
19473TIP3    H279835   1.861   4.232   2.120  0.1914  0.8990 -0.5861
19474TIP3   OH279836   2.219   2.080   0.875 -0.4426 -0.2582 -0.1714
19474TIP3    H179837   2.151   2.141   0.903 -0.2859 -0.5237  0.8406
19474TIP3    H279838   2.190   2.050   0.789 -0.0498  1.9435 -1.1457
19475TIP3   OH279839   4.529   3.528  16.836 -0.4964  0.5670  0.0508
19475TIP3    H179840   4.537   3.450  16.782 -0.0544  1.5455 -1.3633
19475TIP3    H279841   4.567   3.598  16.783  0.8445  1.4318  2.0143
19476TIP3   OH279842   4.863   3.663   3.578 -0.7594  0.1518 -0.1581
19476TIP3    H179843   4.922   3.710   3.637 -1.7231  0.8652  0.2595
19476TIP3    H279844   4.814   3.732   3.533  0.1193 -0.3580 -2.0063
19477TIP3   OH279845   3.938   2.289   2.540 -0.4931 -0.1883  0.1857
19477TIP3    H179846   3.864   2.258   2.593  0.2130 -2.2970  0.0061
19477TIP3    H279847   3.954   2.378   2.572 -0.1586 -1.2990  3.4749
19478TIP3   OH279848   5.715   5.666  13.176  0.2213 -0.1882  0.1704
19478TIP3    H179849   5.790   5.706  13.222  0.3249  0.8965 -0.8949
19478TIP3    H279850   5.749   5.645  13.089 -0.5583 -0.2201 -0.1284
19479TIP3   OH279851   2.132   5.461   0.936 -0.0162  0.4382  0.0411
19479TIP3    H179852   2.194   5.507   0.878  0.2708  0.9051  0.7135
19479TIP3    H279853   2.138   5.507   1.019 -1.1575  0.3806  0.1712
19480TIP3   OH279854   2.918   1.681   1.210 -0.2940 -0.2926 -0.9099
19480TIP3    H179855   2.918   1.633   1.293  2.9756 -0.4599 -0.8965
19480TIP3    H279856   2.888   1.769   1.234  1.2310 -0.1361  0.6301
19481TIP3   OH279857   6.379   2.573  12.313  0.1894  0.3418 -0.2663
19481TIP3    H179858   6.446   2.571  12.245 -0.4408 -0.7591 -0.9062
19481TIP3    H279859   6.374   2.482  12.344 -0.2512  0.6252  0.5175
19482TIP3   OH279860   3.562   0.281   3.766  0.2797  0.1311  0.3153
19482TIP3    H179861   3.648   0.267   3.806  0.7049  1.2619 -0.1549
19482TIP3    H279862   3.572   0.249   3.677  1.1441  2.7931 -0.6480
19483TIP3   OH279863   4.933   0.223  14.577 -0.4462 -0.3660  0.0051
19483TIP3    H179864   4.970   0.228  14.665  1.4974 -0.5638 -0.7556
19483TIP3    H279865   4.943   0.132  14.552  2.1745  0.3032 -1.6654
19484TIP3   OH279866   1.122   5.033  15.443 -0.1952 -0.5955  0.4962
19484TIP3    H179867   1.086   5.022  15.531  0.7400  2.5662  1.3899
19484TIP3    H279868   1.047   5.058  15.389 -0.5246 -1.1649  0.6767
19485TIP3   OH279869   5.379   3.859  14.958  0.4293 -0.4672 -0.5873
19485TIP3    H179870   5.464   3.892  14.986  0.5956 -0.1971 -1.3847
19485TIP3    H279871   5.332   3.936  14.927 -0.4295 -0.4869  0.6133
19486TIP3   OH279872   0.639   5.343   1.462  0.7620 -0.1046  0.7521
19486TIP3    H179873   0.685   5.421   1.492 -0.4553  0.3260  1.5834
19486TIP3    H279874   0.632   5.288   1.540  0.4965 -0.4805  0.4655
19487TIP3   OH279875   6.263   1.421  11.449 -0.0701  0.1757 -0.3074
19487TIP3    H179876   6.283   1.494  11.390  0.2081 -0.3203 -0.8389
19487TIP3    H279877   6.347   1.396  11.486 -0.4267  1.5473  1.6242
19488TIP3   OH279878   1.381   5.087   2.123 -0.4133 -0.2054 -0.6274
19488TIP3    H179879   1.326   5.159   2.093 -0.9691  0.1612  1.1891
19488TIP3    H279880   1.373   5.088   2.218  1.7678 -0.9389 -0.3864
19489TIP3   OH279881   2.051   0.636   0.009 -0.0748  0.1229 -0.6198
19489TIP3    H179882   2.113   0.564   0.024  0.9655  0.3855 -3.1273
19489TIP3    H279883   2.055   0.652  -0.086 -2.1443  1.8459 -0.5047
19490TIP3   OH279884   0.606   1.246  11.357 -0.3124 -0.6249  0.0712
19490TIP3    H179885   0.662   1.312  11.398  0.2954 -1.0399 -0.0975
19490TIP3    H279886   0.609   1.267  11.264 -0.1026 -0.9034  0.0154
19491TIP3   OH279887   4.338   0.946  10.763  0.2657 -0.6279  0.5120
19491TIP3    H179888   4.261   0.920  10.713 -0.1495  0.7433  0.3854
19491TIP3    H279889   4.340   0.887  10.838  0.0231 -1.7187 -0.3219
19492TIP3   OH279890   3.135   1.974  12.201  0.1620  0.3339  0.7571
19492TIP3    H179891   3.087   1.942  12.124  0.0258 -1.1788  1.4258
19492TIP3    H279892   3.226   1.977  12.172 -0.1587  2.3115 -0.2295
19493TIP3   OH279893   4.805   1.218   0.698  0.9291 -0.1670  0.1686
19493TIP3    H179894   4.892   1.195   0.664  0.0943 -0.3765 -1.9112
19493TIP3    H279895   4.785   1.302   0.657 -0.7603 -1.1630 -1.1317
19494TIP3   OH279896   3.453   4.098  16.546  0.2090 -0.4001 -0.4147
19494TIP3    H179897   3.546   4.101  16.527  0.2929 -2.4351 -0.6052
19494TIP3    H279898   3.441   4.155  16.621  1.2188  1.5643 -1.6629
19495TIP3   OH279899   5.238   4.170  13.068  0.0718  0.0714  0.0810
19495TIP3    H179900   5.286   4.135  12.993 -0.8444  0.9433 -0.9518
19495TIP3    H279901   5.235   4.097  13.130  1.4673 -0.4423 -0.4127
19496TIP3   OH279902   1.020   4.732   0.433  0.7856  0.4099  0.6981
19496TIP3    H179903   0.996   4.639   0.434 -0.3524  0.6946  0.2268
19496TIP3    H279904   1.079   4.741   0.508  1.5518 -0.8539  0.2940
19497TIP3   OH279905   4.757   3.214   3.759  0.4446 -0.6775 -0.7002
19497TIP3    H179906   4.780   3.300   3.724  0.2032 -0.1922  0.2943
19497TIP3    H279907   4.661   3.211   3.754  0.4673 -0.9919 -0.9678
19498TIP3   OH279908   3.974   6.661  14.203 -0.8230 -0.4863 -0.5523
19498TIP3    H179909   4.054   6.678  14.253 -1.4717  2.8450 -0.3847
19498TIP3    H279910   3.919   6.609  14.263  0.8801 -2.2197 -0.4164
19499TIP3   OH279911   3.614   4.005   5.936  0.2851 -0.1741 -1.0020
19499TIP3    H179912   3.602   4.005   6.031  2.9277  0.1077 -0.6098
19499TIP3    H279913   3.542   3.951   5.903 -0.2381 -0.9264  1.2152
19500TIP3   OH279914   3.816   0.959   2.457 -0.1407 -0.1603 -0.1190
19500TIP3    H179915   3.721   0.944   2.451 -0.3493  0.5883  0.9773
19500TIP3    H279916   3.855   0.875   2.430 -1.1642 -1.3231  1.7978
19501TIP3   OH279917   0.168   0.424  13.975  0.3737 -0.4424 -0.0161
19501TIP3    H179918   0.234   0.355  13.965 -0.1311 -0.9518  0.0911
19501TIP3    H279919   0.214   0.505  13.955  0.5702 -0.9592 -1.7946
19502TIP3   OH279920   1.063   2.315  15.210 -0.0975 -0.0050  0.0658
19502TIP3    H179921   1.155   2.339  15.220 -0.0173  0.0172 -0.6890
19502TIP3    H279922   1.026   2.386  15.157 -0.0130 -1.1689 -1.6170
19503TIP3   OH279923   2.160   0.385   5.197 -0.4487 -0.1862 -0.1049
19503TIP3    H179924   2.212   0.377   5.117  0.4642  0.6302  0.3939
19503TIP3    H279925   2.138   0.295   5.220  0.7468 -0.5510 -0.3338
19504TIP3   OH279926   1.443   4.111   0.938 -0.6038 -0.6970 -0.0889
19504TIP3    H179927   1.395   4.074   0.863 -0.3203 -0.1118 -0.5583
19504TIP3    H279928   1.526   4.063   0.940  0.1574  0.5129 -1.2603
19505TIP3   OH279929   0.983   3.234   5.501 -0.5516 -0.2326 -0.2406
19505TIP3    H179930   0.899   3.188   5.512 -1.2746  0.4634 -2.3601
19505TIP3    H279931   1.038   3.171   5.455 -1.6406  0.9582 -3.4207
19506TIP3   OH279932   4.334   5.698   5.983 -0.2008  0.0846 -0.2631
19506TIP3    H179933   4.282   5.730   6.056 -0.7695  0.0831 -0.6616
19506TIP3    H279934   4.411   5.658   6.024 -1.2991 -1.4136  0.4580
19507TIP3   OH279935   3.542   3.630   6.177 -0.2375 -0.2966  0.5626
19507TIP3    H179936   3.447   3.622   6.184 -0.1403 -1.4030  0.7738
19507TIP3    H279937   3.557   3.724   6.163 -1.4325 -0.2927 -0.8881
19508TIP3   OH279938   6.347   1.989   1.246 -0.1274 -1.3219  0.1513
19508TIP3    H179939   6.359   1.927   1.174 -0.3363 -2.8874  1.4047
19508TIP3    H279940   6.267   1.960   1.290  1.1188 -1.7754  2.2798
19509TIP3   OH279941   2.021   2.159   2.887  0.2289  0.1766 -0.3172
19509TIP3    H179942   1.941   2.206   2.910  0.3463  1.0082 -1.5329
19509TIP3    H279943   2.080   2.175   2.960 -0.3520  0.4033  0.1111
19510TIP3   OH279944   0.139   3.808   4.027  0.2399 -0.2085 -0.6198
19510TIP3    H179945   0.165   3.719   4.001 -0.1192 -0.6855  0.6094
19510TIP3    H279946   0.137   3.806   4.122 -1.8333  0.5107 -0.6060
19511TIP3   OH279947   2.287   0.871   0.742  0.2535  0.3450 -0.0168
19511TIP3    H179948   2.289   0.927   0.820  1.0431  0.8373 -0.3708
19511TIP3    H279949   2.281   0.933   0.669  2.1794  0.0594 -0.4772
19512TIP3   OH279950   2.246   0.980  10.921 -0.6930  0.6068  0.5474
19512TIP3    H179951   2.247   0.929  11.002 -1.3813 -3.2015 -1.5981
19512TIP3    H279952   2.218   1.068  10.947  0.8177  0.0855  4.5879
19513TIP3   OH279953   2.315   0.187  12.959  0.4428  0.2452 -0.1479
19513TIP3    H179954   2.334   0.103  12.918  2.2083 -0.1314  1.3221
19513TIP3    H279955   2.401   0.225  12.976  0.3902 -1.4202  6.7135
19514TIP3   OH279956   4.080   2.233  16.819  0.3742 -0.1731 -0.0909
19514TIP3    H179957   4.042   2.198  16.899 -2.0607  2.3467  0.0135
19514TIP3    H279958   4.014   2.295  16.786  3.0167  1.9510 -1.8206
19515TIP3   OH279959   2.400   3.287   0.053 -0.2723  0.2741  0.1225
19515TIP3    H179960   2.386   3.359  -0.009 -0.0782  2.2329  2.2095
19515TIP3    H279961   2.486   3.305   0.092  0.9084 -2.4655 -0.9140
19516TIP3   OH279962   5.769   4.141  12.126  0.1583  0.2259  0.1955
19516TIP3    H179963   5.746   4.048  12.116  1.8930 -0.3596  1.2125
19516TIP3    H279964   5.685   4.186  12.125 -0.6218 -0.9669 -3.4330
19517TIP3   OH279965   2.624   0.958  13.434  0.0380  0.1536 -0.0128
19517TIP3    H179966   2.611   1.052  13.451 -0.0940  0.2449 -0.5937
19517TIP3    H279967   2.655   0.954  13.343  1.6351 -0.2534  0.5189
19518TIP3   OH279968   3.204   1.216   5.515 -0.1255  0.0794 -0.1228
19518TIP3    H179969   3.277   1.159   5.491 -1.0571 -1.4484  0.5290
19518TIP3    H279970   3.134   1.156   5.539 -1.2421  1.5211  0.3454
19519TIP3   OH279971   4.421   4.353   2.317  0.0303  0.4499  1.0276
19519TIP3    H179972   4.358   4.391   2.378  1.0947  2.2987  1.0549
19519TIP3    H279973   4.428   4.417   2.247  0.6041 -0.5396  0.1480
19520TIP3   OH279974   0.055   5.584   1.121  0.0008  0.1323 -0.1856
19520TIP3    H179975   0.042   5.647   1.050 -0.8833 -0.4097 -0.5214
19520TIP3    H279976   0.077   5.638   1.197 -2.7096  1.0856  0.0444
19521TIP3   OH279977   3.614   4.935   0.849  0.1283 -0.2057 -1.0665
19521TIP3    H179978   3.686   4.988   0.884 -2.3105  1.9842  1.1414
19521TIP3    H279979   3.589   4.980   0.767 -0.2725  0.5917 -0.5282
19522TIP3   OH279980   6.181   2.822   5.799 -0.3415  0.1206  0.0348
19522TIP3    H179981   6.236   2.859   5.730 -0.0024  0.2615  0.3780
19522TIP3    H279982   6.156   2.898   5.852  0.1168 -0.0967  0.5728
19523TIP3   OH279983   1.155   1.514  16.633  0.4952  0.4597 -0.4658
19523TIP3    H179984   1.071   1.545  16.601 -0.7569 -0.3787  1.7962
19523TIP3    H279985   1.159   1.423  16.604  0.3749  0.3523 -0.1519
19524TIP3   OH279986   1.769   6.058   0.560 -0.0029 -0.2287  0.2686
19524TIP3    H179987   1.683   6.028   0.530 -0.7798  1.1111  1.0465
19524TIP3    H279988   1.831   6.000   0.516 -1.2857 -1.1022 -0.4726
19525TIP3   OH279989   1.951   4.171  14.540 -0.5786 -0.0301  0.1650
19525TIP3    H179990   2.007   4.194  14.466 -1.0907  0.3074 -0.1287
19525TIP3    H279991   1.910   4.088  14.514  0.7039 -0.9415  0.9092
19526TIP3   OH279992   6.319   1.911   0.716  0.8589  0.6578  0.6958
19526TIP3    H179993   6.308   1.918   0.621  1.1414 -0.8731  0.5317
19526TIP3    H279994   6.255   1.972   0.752 -1.0985 -0.6294 -0.4348
19527TIP3   OH279995   6.552   6.061  12.261 -0.2228 -0.3050  0.4729
19527TIP3    H179996   6.485   5.999  12.287 -0.1180 -0.2479  0.8845
19527TIP3    H279997   6.591   6.022  12.183 -2.1044  0.6461 -1.0124
19528TIP3   OH279998   5.131   5.160  14.467 -0.1345 -0.1832 -0.3143
19528TIP3    H179999   5.107   5.132  14.379  0.2073  2.2124 -1.2406
19528TIP3    H280000   5.226   5.148  14.472 -0.0750  0.2192 -0.4819
19529TIP3   OH280001   5.386   0.772  14.097  0.2024 -0.2851  0.0288
19529TIP3    H180002   5.305   0.722  14.103  0.3749 -0.9575 -2.2252
19529TIP3    H280003   5.363   0.849  14.045  1.4580 -1.7851 -2.9732
19530TIP3   OH280004   2.997   3.050  15.257 -0.2318 -1.1725  0.0776
19530TIP3    H180005   3.089   3.027  15.241  0.4566  1.6904 -0.5611
19530TIP3    H280006   2.999   3.098  15.340 -0.6422  1.3896 -1.3293
19531TIP3   OH280007   5.608   4.154   2.360  0.4888 -0.6501 -0.6473
19531TIP3    H180008   5.654   4.140   2.277 -0.3488  1.0389 -1.4312
19531TIP3    H280009   5.517   4.129   2.342  0.0906  0.6621 -0.5531
19532TIP3   OH280010   2.306   2.413   1.934 -0.4375  0.5562 -0.2723
19532TIP3    H180011   2.268   2.459   1.859 -3.0824  0.9579  1.2104
19532TIP3    H280012   2.326   2.326   1.901 -3.5057  0.0229 -1.0261
19533TIP3   OH280013   1.835   6.378   0.027  0.4085 -0.6146  0.0190
19533TIP3    H180014   1.843   6.368  -0.068 -1.3078  4.0756 -0.8781
19533TIP3    H280015   1.785   6.302   0.055 -1.7776 -0.6560 -3.4077
19534TIP3   OH280016   1.022   4.829  13.061  0.4791 -0.0274  0.2303
19534TIP3    H180017   0.942   4.881  13.056  1.4311  1.3494 -2.4792
19534TIP3    H280018   1.085   4.887  13.103  0.3229 -0.8563  1.6970
19535TIP3   OH280019   4.304   3.210   2.629 -0.8965  0.0752 -0.1754
19535TIP3    H180020   4.341   3.262   2.701  0.2240 -0.7031 -0.1686
19535TIP3    H280021   4.378   3.190   2.573 -1.0223 -2.5323  0.4429
19536TIP3   OH280022   4.342   0.344  16.979 -0.0857  0.8909  0.5480
19536TIP3    H180023   4.349   0.366  16.886 -0.0535  0.8916  0.5500
19536TIP3    H280024   4.259   0.296  16.986  0.4038 -0.0134  0.3427
19537TIP3   OH280025   3.824   0.877   3.882 -0.1078 -0.4596 -0.0799
19537TIP3    H180026   3.917   0.877   3.905  0.3501  0.1856 -1.8201
19537TIP3    H280027   3.821   0.846   3.792 -1.7690 -2.0726  0.4604
19538TIP3   OH280028   4.946   4.533  16.497  0.4051  0.2135  0.7091
19538TIP3    H180029   4.901   4.540  16.412  0.5769 -0.4001  0.5607
19538TIP3    H280030   5.039   4.533  16.474  0.5466  2.3194  1.0693
19539TIP3   OH280031   5.611   0.253   5.764  0.1834 -0.1051  0.0738
19539TIP3    H180032   5.672   0.179   5.761  0.8316  0.4597 -1.3231
19539TIP3    H280033   5.567   0.243   5.848 -0.1992 -2.4407 -0.3253
19540TIP3   OH280034   0.273   0.971   1.729  0.1221 -0.6306  0.2118
19540TIP3    H180035   0.204   1.006   1.786  0.0185 -1.2108  0.4494
19540TIP3    H280036   0.333   1.045   1.717 -0.8013  0.0270 -0.4226
19541TIP3   OH280037   1.051   4.756   0.163  0.0716  0.0613  0.2987
19541TIP3    H180038   1.082   4.677   0.118  0.8255  0.2316  0.5100
19541TIP3    H280039   1.056   4.735   0.256 -0.3911  0.1183  0.3402
19542TIP3   OH280040   1.790   3.808  15.941 -0.0830 -0.1974  0.4368
19542TIP3    H180041   1.849   3.884  15.938  1.4706 -1.3739  0.0831
19542TIP3    H280042   1.849   3.732  15.942 -1.5904 -1.3970  1.3334
19543TIP3   OH280043   4.773   4.809   4.301 -0.3824 -0.3300 -0.0053
19543TIP3    H180044   4.839   4.849   4.244  1.7334 -2.5672  0.7013
19543TIP3    H280045   4.741   4.882   4.355  2.3100  0.7539  0.3193
19544TIP3   OH280046   4.778   1.725   5.145 -0.0075 -0.1160  0.5171
19544TIP3    H180047   4.750   1.711   5.055 -1.5998  0.5047  0.8742
19544TIP3    H280048   4.869   1.752   5.139 -0.3808  0.8889 -0.9850
19545TIP3   OH280049   0.418   2.448   4.132  0.3329 -0.1708  0.0820
19545TIP3    H180050   0.481   2.382   4.101  0.7773  0.1732  0.2311
19545TIP3    H280051   0.463   2.491   4.205  0.3303  0.7697 -0.4564
19546TIP3   OH280052   6.724   0.569  16.835  0.2177 -0.3104  0.0221
19546TIP3    H180053   6.798   0.523  16.874  0.4606  1.0490  1.2304
19546TIP3    H280054   6.661   0.580  16.906  0.6545  2.1946  0.1178
19547TIP3   OH280055   0.918   1.220   1.735 -0.1742 -0.0696 -0.0288
19547TIP3    H180056   1.009   1.202   1.761 -0.0200 -0.0611 -0.5430
19547TIP3    H280057   0.926   1.275   1.657 -0.6332  0.9510  0.6188
19548TIP3   OH280058   0.878   6.638   0.230  0.0207  0.1495  0.1482
19548TIP3    H180059   0.852   6.565   0.287 -0.2554 -0.7360 -1.0664
19548TIP3    H280060   0.796   6.669   0.192  0.2592  0.3326 -0.2178
19549TIP3   OH280061   2.458   4.608   0.857 -0.0166  0.0096  0.3838
19549TIP3    H180062   2.413   4.524   0.865  0.9857 -0.6408 -0.4869
19549TIP3    H280063   2.551   4.585   0.846 -0.0281  1.0167 -3.1416
19550TIP3   OH280064   2.210   3.591   5.179  0.1021 -0.2139 -0.1046
19550TIP3    H180065   2.163   3.509   5.197  0.9706 -0.5174  0.9499
19550TIP3    H280066   2.146   3.647   5.134 -1.1640 -0.7202  0.9977
19551TIP3   OH280067   2.762   6.591   3.358  0.0978 -0.4530  0.1738
19551TIP3    H180068   2.722   6.579   3.444 -0.8750  0.0486 -0.1833
19551TIP3    H280069   2.693   6.566   3.296  1.1990 -2.0479 -0.4690
19552TIP3   OH280070   4.345   0.784  15.341 -0.1324  0.0380  0.6472
19552TIP3    H180071   4.253   0.799  15.363  0.7095  2.9161  2.8356
19552TIP3    H280072   4.360   0.835  15.261 -0.1619  0.7755  1.0981
19553TIP3   OH280073   2.276   6.598  11.305 -0.1710 -0.5085  0.1904
19553TIP3    H180074   2.183   6.590  11.324 -0.1366 -1.2172  0.1060
19553TIP3    H280075   2.305   6.508  11.290 -0.2662 -0.0756 -3.4978
19554TIP3   OH280076   2.279   0.773   5.228 -0.0569  0.0662  0.3252
19554TIP3    H180077   2.348   0.827   5.190 -0.6292  1.1989  0.8609
19554TIP3    H280078   2.318   0.686   5.234  1.3398  0.6857  0.6579
19555TIP3   OH280079   5.200   5.921   0.254 -0.5801  0.1774 -0.1370
19555TIP3    H180080   5.249   5.896   0.332 -1.9282  0.0656  0.7062
19555TIP3    H280081   5.250   5.994   0.217  0.9029 -0.7662 -0.0538
19556TIP3   OH280082   2.267   6.504   0.438 -0.2439 -0.2758  0.2291
19556TIP3    H180083   2.361   6.510   0.454  0.0142 -0.7969 -0.9831
19556TIP3    H280084   2.229   6.578   0.486  0.8110  0.1044  0.4876
19557TIP3   OH280085   5.976   1.445  11.835  0.5721  0.4538  0.4415
19557TIP3    H180086   6.051   1.424  11.780  1.4448  0.8866  1.4165
19557TIP3    H280087   6.012   1.500  11.905 -0.4886 -0.0183  1.4096
19558TIP3   OH280088   4.506   0.300   5.338  0.0330  0.4309  0.4661
19558TIP3    H180089   4.544   0.252   5.264  0.7971  0.5407  0.7765
19558TIP3    H280090   4.566   0.282   5.411  0.3046  1.8180  0.6001
19559TIP3   OH280091   4.013   5.119  16.572 -0.7807 -0.0362 -0.7314
19559TIP3    H180092   4.001   5.213  16.560 -2.1256 -0.1726 -0.5717
19559TIP3    H280093   3.941   5.092  16.629 -0.5089 -1.2004 -0.9028
19560TIP3   OH280094   0.971   1.220  15.283  0.1609 -0.1488  0.1907
19560TIP3    H180095   1.030   1.190  15.351  0.9319  0.6384 -0.1109
19560TIP3    H280096   1.027   1.239  15.209 -0.6754 -1.0227 -0.6939
19561TIP3   OH280097   0.775   0.192  15.023 -0.4262  0.3068 -0.4772
19561TIP3    H180098   0.836   0.174  15.094 -1.6815 -2.6968 -0.0047
19561TIP3    H280099   0.828   0.184  14.943  0.2656 -0.0270  0.0010
19562TIP3   OH280100   2.799   2.178   5.003  0.6817 -0.1988  0.1461
19562TIP3    H180101   2.835   2.090   4.989 -0.0330 -0.4282 -0.3220
19562TIP3    H280102   2.780   2.210   4.915 -0.1795 -0.0608  0.3709
19563TIP3   OH280103   6.107   2.793  15.498 -0.3715  0.1270 -0.3648
19563TIP3    H180104   6.172   2.846  15.453  0.1228  1.4656  1.7868
19563TIP3    H280105   6.154   2.712  15.522  0.3542  0.8108  0.6012
19564TIP3   OH280106   0.574   1.868   5.413 -0.5125  0.4747  0.7248
19564TIP3    H180107   0.655   1.890   5.459 -0.8767  1.8883  0.7508
19564TIP3    H280108   0.602   1.837   5.328  0.1193 -0.8933  1.3976
19565TIP3   OH280109   6.021   5.323   1.377  0.2938 -0.3953 -0.0246
19565TIP3    H180110   6.022   5.372   1.459  0.3764  1.0404 -0.8451
19565TIP3    H280111   6.113   5.316   1.351  0.3039 -1.2163  0.1974
19566TIP3   OH280112   3.909   3.610   3.494  0.1715  0.2701  0.4217
19566TIP3    H180113   3.856   3.571   3.563 -1.5112 -0.1395 -1.0245
19566TIP3    H280114   3.880   3.701   3.491 -2.0686 -0.4126 -1.7107
19567TIP3   OH280115   3.759   3.575   2.729  0.1227 -0.0013  0.5503
19567TIP3    H180116   3.780   3.490   2.690 -1.3553 -0.5930  0.9819
19567TIP3    H280117   3.668   3.592   2.704 -0.3201  0.4105  2.2907
19568TIP3   OH280118   6.458   1.941   4.683  0.7008  0.6146  0.5943
19568TIP3    H180119   6.471   1.921   4.591 -0.1515 -0.7597  0.7382
19568TIP3    H280120   6.450   1.855   4.725  0.9519  1.2149  1.9279
19569TIP3   OH280121   1.815   1.968   6.413  0.2195 -0.0566  0.2635
19569TIP3    H180122   1.822   2.018   6.495 -0.8939 -0.1177  0.4113
19569TIP3    H280123   1.721   1.952   6.403  0.5656 -3.1023  0.8208
19570TIP3   OH280124   2.962   6.110   2.121 -0.0889 -0.1575 -0.2185
19570TIP3    H180125   2.878   6.082   2.083  0.6296 -3.1361  0.1336
19570TIP3    H280126   3.028   6.077   2.059  0.8779  2.0563 -0.4350
19571TIP3   OH280127   0.146   5.110  11.642 -0.4819 -0.6464  0.5676
19571TIP3    H180128   0.130   5.187  11.697 -1.6398 -0.5340  0.0917
19571TIP3    H280129   0.218   5.065  11.686  0.5126  0.9088  0.6422
19572TIP3   OH280130   5.189   5.172   5.814  0.3281 -0.2363 -0.1745
19572TIP3    H180131   5.173   5.188   5.907  1.6044 -0.3991  0.0889
19572TIP3    H280132   5.140   5.092   5.795  1.5618 -1.2794  0.8448
19573TIP3   OH280133   4.608   5.707   3.439 -0.1700 -0.3140  0.1654
19573TIP3    H180134   4.533   5.756   3.407 -0.6452 -1.4690 -0.5606
19573TIP3    H280135   4.596   5.618   3.404 -0.1683 -1.3825  2.6780
19574TIP3   OH280136   0.479   1.097   4.350  0.5780  0.3923  0.2678
19574TIP3    H180137   0.399   1.058   4.313  0.5719  0.9082 -0.2827
19574TIP3    H280138   0.550   1.057   4.300  0.6213  0.4961  0.2471
19575TIP3   OH280139   2.952   0.815  11.012  0.0323 -0.2595 -0.6064
19575TIP3    H180140   2.859   0.837  11.026  0.1673 -0.4985  0.8896
19575TIP3    H280141   2.973   0.852  10.927 -1.4966 -0.3792 -1.0756
19576TIP3   OH280142   2.907   3.889   1.187 -0.2111 -0.6090 -0.3239
19576TIP3    H180143   2.907   3.871   1.093 -0.8195 -0.3244 -0.3849
19576TIP3    H280144   2.888   3.982   1.193  3.4547  0.2857 -0.0353
19577TIP3   OH280145   4.102   0.402   5.677 -0.0663  0.2844  0.2408
19577TIP3    H180146   4.153   0.321   5.675  0.2332  0.4663  0.5068
19577TIP3    H280147   4.034   0.389   5.611  0.5938  0.2300 -0.4293
19578TIP3   OH280148   1.418   3.520   1.911 -0.1558  0.0265  0.6405
19578TIP3    H180149   1.455   3.435   1.935  1.2241 -0.0613 -1.5052
19578TIP3    H280150   1.342   3.530   1.968 -0.0904 -2.4308  1.2922
19579TIP3   OH280151   3.835   5.023   4.957  0.2792  1.2794 -0.1938
19579TIP3    H180152   3.821   5.033   4.863  1.8954  0.5162 -0.5592
19579TIP3    H280153   3.750   4.998   4.992 -0.1385  0.6034 -1.6065
19580TIP3   OH280154   5.441   5.626  16.861  0.0226 -0.5373 -0.3633
19580TIP3    H180155   5.420   5.690  16.929  0.1586  1.3643 -2.0048
19580TIP3    H280156   5.506   5.568  16.901  2.4617  2.3574  0.2410
19581TIP3   OH280157   2.794   4.042  13.387 -0.2217  0.2335  0.3083
19581TIP3    H180158   2.786   3.957  13.343 -0.3409  0.8592 -0.9447
19581TIP3    H280159   2.889   4.052  13.401 -0.2288 -0.2105  0.6779
19582TIP3   OH280160   3.111   2.909  16.520 -0.1418 -0.0482 -0.3828
19582TIP3    H180161   3.029   2.898  16.472  0.1068 -0.2391 -0.7654
19582TIP3    H280162   3.108   2.999  16.553 -0.3942  0.0242 -0.6009
19583TIP3   OH280163   4.882   5.293   0.165  0.4531  0.2708  0.1695
19583TIP3    H180164   4.821   5.343   0.111  2.5009  1.3352 -1.2898
19583TIP3    H280165   4.886   5.340   0.248 -2.0437 -0.8701  1.0183
19584TIP3   OH280166   3.110   5.104  16.239  0.7019 -0.4612  0.0686
19584TIP3    H180167   3.160   5.124  16.161  0.7036  0.1899  0.2318
19584TIP3    H280168   3.131   5.013  16.259 -1.0564 -1.3906 -2.0002
19585TIP3   OH280169   1.654   0.832   3.628 -0.0319 -0.5323  0.1644
19585TIP3    H180170   1.725   0.896   3.624 -0.4308  0.0080  1.2498
19585TIP3    H280171   1.690   0.754   3.587  0.0092  0.7616 -2.5225
19586TIP3   OH280172   4.230   4.230  11.264  0.0154  0.4373 -0.1618
19586TIP3    H180173   4.158   4.285  11.233  0.2764  1.8091  1.5081
19586TIP3    H280174   4.199   4.194  11.347  0.9535  0.4517  0.2143
19587TIP3   OH280175   2.201   5.427  16.481 -0.0590 -0.0602  0.5230
19587TIP3    H180176   2.181   5.485  16.408  1.4735  1.5800  1.3247
19587TIP3    H280177   2.292   5.445  16.502 -0.7385  0.5082  3.6043
19588TIP3   OH280178   5.980   2.674   4.513  0.4554  0.2824  0.0391
19588TIP3    H180179   6.015   2.704   4.596  0.3254  2.6415 -0.6892
19588TIP3    H280180   6.011   2.738   4.449  0.0443 -1.1252 -1.6401
19589TIP3   OH280181   4.771   1.115   3.935 -0.1987  0.3990  0.3139
19589TIP3    H180182   4.828   1.094   4.009 -0.8308 -0.2118  0.6512
19589TIP3    H280183   4.738   1.203   3.954 -1.6920 -0.3880  1.6804
19590TIP3   OH280184   6.103   4.476  11.846  0.4507  0.3762  0.5457
19590TIP3    H180185   6.023   4.528  11.835  0.9266  1.2989  1.3062
19590TIP3    H280186   6.091   4.402  11.787 -0.3475  1.2302 -0.4130
19591TIP3   OH280187   0.019   1.474   4.779  0.2892 -0.0459  0.0962
19591TIP3    H180188   0.038   1.557   4.822 -0.1640  0.7592 -1.1877
19591TIP3    H280189   0.054   1.407   4.838  3.4902  1.1483 -0.2626
19592TIP3   OH280190   0.104   0.172  15.721 -0.4628  0.9122 -0.5041
19592TIP3    H180191   0.126   0.241  15.658  0.2249 -0.2444 -1.5975
19592TIP3    H280192   0.031   0.126  15.681  0.1171  0.0295 -0.5866
19593TIP3   OH280193   1.730   6.755  14.309  0.5305 -0.3687 -0.3098
19593TIP3    H180194   1.750   6.777  14.218  1.7065 -0.9248 -0.2063
19593TIP3    H280195   1.646   6.711  14.306  1.7253 -2.7554 -1.4864
19594TIP3   OH280196   4.875   3.410   5.998  0.1775 -0.1818 -0.0941
19594TIP3    H180197   4.806   3.357   6.038  0.3222 -0.1274  0.2274
19594TIP3    H280198   4.866   3.394   5.904 -2.5047  2.4646 -0.4355
19595TIP3   OH280199   5.072   4.983   3.351 -0.4961  0.0429  0.3852
19595TIP3    H180200   5.103   4.987   3.441 -0.8652 -2.0433  0.6420
19595TIP3    H280201   5.134   5.039   3.303 -0.5653  1.5627  1.9532
19596TIP3   OH280202   2.348   4.784   5.489  0.0174 -0.1986 -0.2704
19596TIP3    H180203   2.431   4.753   5.525  0.7775  2.0905  0.0805
19596TIP3    H280204   2.283   4.762   5.556  0.7754  0.3045  0.6555
19597TIP3   OH280205   3.728   2.771   1.801  0.1415  0.0928  0.1803
19597TIP3    H180206   3.779   2.767   1.882 -1.1868 -0.0897  1.0353
19597TIP3    H280207   3.793   2.766   1.731  1.3988  1.1987  1.2240
19598TIP3   OH280208   0.915   3.411  13.198  0.5747 -0.1283 -0.0423
19598TIP3    H180209   0.879   3.438  13.113  0.2100  0.0293  0.1578
19598TIP3    H280210   0.886   3.479  13.259 -1.5309 -1.6208  0.7488
19599TIP3   OH280211   6.694   4.207   4.477 -0.2122  0.2241 -0.4583
19599TIP3    H180212   6.783   4.196   4.511  0.2984  1.2935 -1.3840
19599TIP3    H280213   6.681   4.132   4.419  0.5469  0.6849 -1.2406
19600TIP3   OH280214   3.987   4.859   3.893 -0.1929  1.0728  0.0741
19600TIP3    H180215   4.065   4.914   3.899  1.2681 -0.6944 -1.3855
19600TIP3    H280216   3.958   4.867   3.802 -1.7538  1.7048  0.5977
19601TIP3   OH280217   6.279   1.194  13.897  0.6006 -0.6631  0.2871
19601TIP3    H180218   6.315   1.125  13.841  0.3251  0.0015 -0.7454
19601TIP3    H280219   6.271   1.270  13.839 -0.5779 -0.2136  0.9970
19602TIP3   OH280220   1.251   5.372   5.046  0.2615 -0.2910  0.1246
19602TIP3    H180221   1.181   5.373   4.981  0.9497 -1.3157 -0.6666
19602TIP3    H280222   1.206   5.371   5.130 -0.6593 -0.3928 -0.3562
19603TIP3   OH280223   4.089   2.881  15.316 -0.1377  0.5750 -0.3596
19603TIP3    H180224   4.127   2.850  15.398  0.4062  1.1189 -0.3986
19603TIP3    H280225   4.137   2.835  15.248 -2.3092 -1.8687 -0.3822
19604TIP3   OH280226   3.653   1.561  10.150  0.0111 -0.2697 -0.4486
19604TIP3    H180227   3.666   1.655  10.163  2.0967  0.1182 -3.7855
19604TIP3    H280228   3.633   1.527  10.236  0.4688  3.0574  1.1462
19605TIP3   OH280229   3.817   1.964   1.121  0.1258  0.9372 -0.0280
19605TIP3    H180230   3.767   2.018   1.182  2.0882  0.8289  1.8492
19605TIP3    H280231   3.837   2.022   1.048 -0.5757  1.7433  0.4005
19606TIP3   OH280232   1.900   0.378   2.636  0.0289 -0.3135 -0.1059
19606TIP3    H180233   1.961   0.311   2.605  0.3393 -0.2317  0.3224
19606TIP3    H280234   1.930   0.400   2.724  0.9623  1.6193 -0.8518
19607TIP3   OH280235   6.228   1.572  13.494 -0.0680 -0.0652 -0.6540
19607TIP3    H180236   6.306   1.546  13.446  0.1636 -1.6502  0.5246
19607TIP3    H280237   6.259   1.597  13.581 -0.8366 -0.4418 -0.2610
19608TIP3   OH280238   5.154   4.893   3.592  0.1319  0.0837  0.5153
19608TIP3    H180239   5.208   4.860   3.663  1.5003 -1.9060 -1.3270
19608TIP3    H280240   5.072   4.844   3.599  1.7615 -3.2990 -1.5668
19609TIP3   OH280241   2.140   3.248  13.792  0.3656 -1.1579 -0.3124
19609TIP3    H180242   2.082   3.186  13.836 -2.0481 -1.9452 -4.1097
19609TIP3    H280243   2.216   3.196  13.767 -1.0991 -2.4430 -2.4043
19610TIP3   OH280244   0.967   2.598  13.698  0.3670  0.4371 -0.0592
19610TIP3    H180245   1.020   2.546  13.637 -0.5401 -0.2628 -0.2655
19610TIP3    H280246   1.032   2.642  13.753  1.1743 -0.9810  0.1784
19611TIP3   OH280247   0.217   5.421  15.122  0.3822  0.3335  0.1461
19611TIP3    H180248   0.182   5.336  15.148  1.8514 -0.1627  0.5766
19611TIP3    H280249   0.189   5.481  15.191  1.6241 -0.3596  1.2859
19612TIP3   OH280250   3.369   1.542   5.687 -0.1360  0.5478 -0.1315
19612TIP3    H180251   3.394   1.453   5.712  1.7077 -0.2963 -4.1609
19612TIP3    H280252   3.395   1.597   5.762  1.1988 -1.9747  1.3702
19613TIP3   OH280253   3.787   5.794   3.422 -0.2645  0.2428  0.3773
19613TIP3    H180254   3.731   5.733   3.470 -1.2626  1.2594  0.5534
19613TIP3    H280255   3.768   5.777   3.330 -1.0098  0.7089  0.4413
19614TIP3   OH280256   1.502   1.916   1.714 -0.2722  0.7649  0.1443
19614TIP3    H180257   1.530   1.969   1.789 -2.0298  0.8242  0.8142
19614TIP3    H280258   1.406   1.922   1.715 -0.3907 -0.3375 -1.3135
19615TIP3   OH280259   6.067   4.266  14.643  0.3653  0.2946 -0.2535
19615TIP3    H180260   6.018   4.186  14.626 -0.4699  0.8976 -0.7561
19615TIP3    H280261   6.043   4.292  14.732  1.8787 -0.8613  0.5312
19616TIP3   OH280262   0.248   5.588  13.909 -0.3414 -0.2051 -0.2647
19616TIP3    H180263   0.200   5.649  13.853 -0.6880 -0.1733  0.0624
19616TIP3    H280264   0.206   5.597  13.995  2.4650  2.4441  0.9899
19617TIP3   OH280265   2.005   6.641   5.361 -0.4222 -0.2660 -0.4130
19617TIP3    H180266   1.913   6.622   5.346 -0.2911  0.1210 -1.8945
19617TIP3    H280267   2.052   6.570   5.316  0.0103 -0.1231 -0.1992
19618TIP3   OH280268   5.084   6.050   3.349 -0.0107  0.1226  0.0527
19618TIP3    H180269   5.032   5.979   3.313 -0.2285  0.6764 -0.7631
19618TIP3    H280270   5.084   6.035   3.444 -2.3748  0.5696  0.1823
19619TIP3   OH280271   4.487   5.761  11.733  0.2450  0.2560 -0.2681
19619TIP3    H180272   4.439   5.844  11.732  1.8626  1.2424 -0.8154
19619TIP3    H280273   4.444   5.707  11.667 -0.8596  0.6324  0.1256
19620TIP3   OH280274   4.850   5.520  11.990  0.1142  0.2685  0.0167
19620TIP3    H180275   4.857   5.472  12.073  0.8049  1.8740  0.9260
19620TIP3    H280276   4.938   5.517  11.953  0.4838  1.8549  0.6998
19621TIP3   OH280277   1.283   6.735   3.323 -0.2782  0.0733 -0.4513
19621TIP3    H180278   1.328   6.731   3.407  0.9124  1.7422 -0.9521
19621TIP3    H280279   1.352   6.721   3.258 -0.6619  1.4607 -1.2050
19622TIP3   OH280280   3.822   3.114   2.149  0.1672 -0.0830  0.0033
19622TIP3    H180281   3.761   3.186   2.135 -1.8108 -1.9066 -1.6017
19622TIP3    H280282   3.816   3.095   2.243 -1.5020  0.0577 -0.0463
19623TIP3   OH280283   6.056   2.802  13.392  0.2326  0.2717  0.5878
19623TIP3    H180284   6.002   2.746  13.336  2.1503 -1.0056 -0.0555
19623TIP3    H280285   5.994   2.838  13.456 -1.3121 -1.4425  0.1447
19624TIP3   OH280286   0.739   3.387  11.786 -0.4431 -0.3188  0.1293
19624TIP3    H180287   0.745   3.342  11.870  1.4899  1.2766  0.9370
19624TIP3    H280288   0.714   3.477  11.809 -2.0734 -0.3717 -1.2354
19625TIP3   OH280289   5.218   4.932  12.694  0.2102  0.2767 -0.2429
19625TIP3    H180290   5.201   5.008  12.748  1.5655 -0.4432  1.2901
19625TIP3    H280291   5.284   4.961  12.631 -0.0910  0.6558 -0.3835
19626TIP3   OH280292   4.992   2.701  12.704 -0.2040  0.6546  0.2877
19626TIP3    H180293   5.027   2.778  12.659 -1.2134  1.4956  0.9053
19626TIP3    H280294   4.953   2.648  12.635 -1.1000  1.5783  0.0647
19627TIP3   OH280295   3.346   2.760  14.003  0.2141  0.1879 -0.4078
19627TIP3    H180296   3.316   2.848  13.980  0.0470 -0.2138 -1.8354
19627TIP3    H280297   3.386   2.770  14.090 -1.2200  1.3413  0.1613
19628TIP3   OH280298   2.861   2.887  12.264  0.4096  0.4131  0.4854
19628TIP3    H180299   2.919   2.930  12.202  1.1252 -0.7913  0.2932
19628TIP3    H280300   2.883   2.926  12.349  1.2985  0.1732  0.3680
19629TIP3   OH280301   4.495   4.834   4.802  0.9078 -0.4492  0.1811
19629TIP3    H180302   4.523   4.837   4.710  2.5091 -0.9478  0.6134
19629TIP3    H280303   4.465   4.744   4.815  1.2629 -0.5540  0.2922
19630TIP3   OH280304   0.428   1.270   2.835 -0.1288  0.1431 -0.6536
19630TIP3    H180305   0.410   1.336   2.902 -1.6494 -1.7330  0.9071
19630TIP3    H280306   0.523   1.259   2.838 -0.2478 -1.1495  2.5968
19631TIP3   OH280307   2.888   0.957   0.571  0.0418 -0.1118  0.1603
19631TIP3    H180308   2.823   0.967   0.502  0.7197  0.2014 -0.4482
19631TIP3    H280309   2.856   1.013   0.642 -0.3357  0.0590 -0.1387
19632TIP3   OH280310   4.929   1.161   5.775 -0.6848 -0.4276 -0.2197
19632TIP3    H180311   5.019   1.187   5.756 -0.8084  0.5287  0.4368
19632TIP3    H280312   4.885   1.164   5.690 -0.0657 -1.0959 -0.5780
19633TIP3   OH280313   0.005   0.093   5.003  0.3570 -0.0523 -0.0409
19633TIP3    H180314   0.099   0.102   4.984  0.1993  2.9787  0.1651
19633TIP3    H280315   0.002   0.046   5.086  1.5553 -1.8111 -0.9060
19634TIP3   OH280316   3.825   1.219  13.151  0.2332  0.0328  0.0987
19634TIP3    H180317   3.834   1.223  13.055 -1.5066  0.8523 -0.0799
19634TIP3    H280318   3.820   1.310  13.178 -3.1231 -0.1219  0.4583
19635TIP3   OH280319   3.587   2.176   3.999 -0.0469 -0.0202 -0.4819
19635TIP3    H180320   3.542   2.100   3.962 -0.2794  0.0843 -0.4142
19635TIP3    H280321   3.644   2.139   4.067  0.9698 -0.2984 -1.4582
19636TIP3   OH280322   1.446   2.364   3.432  0.3551  0.0525  0.3152
19636TIP3    H180323   1.443   2.297   3.500  1.1449  0.4995  0.7924
19636TIP3    H280324   1.534   2.358   3.396  0.6112  1.1932  0.7264
19637TIP3   OH280325   3.017   3.410  15.050  0.0999  0.0527 -0.2375
19637TIP3    H180326   3.033   3.332  14.997 -0.2691 -0.1936  0.0090
19637TIP3    H280327   2.924   3.429  15.038  0.3234  0.8528 -0.8208
19638TIP3   OH280328   0.986   4.512   4.560  0.2971 -0.1078 -0.5022
19638TIP3    H180329   1.021   4.596   4.532  0.1045  0.0541 -0.2718
19638TIP3    H280330   1.062   4.461   4.587  0.5627 -0.5254 -1.9498
19639TIP3   OH280331   0.752   1.163   0.109 -0.0772 -0.1954  0.3456
19639TIP3    H180332   0.811   1.230   0.075  0.3756 -1.8086 -2.2994
19639TIP3    H280333   0.664   1.199   0.096  0.1727  1.2419  2.1665
19640TIP3   OH280334   3.399   5.524  14.801  0.0945 -0.2793  0.4649
19640TIP3    H180335   3.330   5.460  14.783 -2.7143  2.4380  0.8381
19640TIP3    H280336   3.423   5.508  14.892 -0.5598 -0.8101  0.5557
19641TIP3   OH280337   0.905   2.640  15.487 -0.3280  0.1209  0.3044
19641TIP3    H180338   0.994   2.669  15.469  0.6421 -1.8733  1.5128
19641TIP3    H280339   0.865   2.714  15.534 -0.1093  1.9103 -2.1327
19642TIP3   OH280340   2.811   0.589  13.638  0.1951  0.4210  0.2634
19642TIP3    H180341   2.826   0.557  13.726 -0.8488  2.2446  1.1707
19642TIP3    H280342   2.853   0.676  13.636  1.0657  0.0089 -1.3677
19643TIP3   OH280343   4.949   0.962  11.599 -0.4773  0.5755  0.5145
19643TIP3    H180344   4.865   1.008  11.599 -0.2835  0.9268  0.7014
19643TIP3    H280345   4.968   0.947  11.506 -0.5282  0.8876  0.4555
19644TIP3   OH280346   6.333   5.983  17.029 -0.4488 -0.1998 -0.5289
19644TIP3    H180347   6.355   5.931  17.106  0.8615  1.8142  0.5497
19644TIP3    H280348   6.238   5.978  17.022 -0.5161 -1.0751  0.7425
19645TIP3   OH280349   1.921   6.669  14.976 -0.0522 -0.1624  0.2170
19645TIP3    H180350   1.994   6.727  14.998 -0.6940  0.0392  1.9982
19645TIP3    H280351   1.909   6.680  14.882  1.4864  0.6478  0.0868
19646TIP3   OH280352   2.869   2.125   1.746  0.1963  0.1945  0.4103
19646TIP3    H180353   2.900   2.160   1.830  0.3158 -0.3871  0.6158
19646TIP3    H280354   2.941   2.141   1.685  0.0857  0.6726  0.4055
19647TIP3   OH280355   4.553   0.088   6.397 -0.2725  0.5908  0.1345
19647TIP3    H180356   4.535   0.110   6.306 -0.7932  0.2881  0.1630
19647TIP3    H280357   4.485   0.026   6.421  0.9216 -0.7587  0.1769
19648TIP3   OH280358   5.303   4.500   1.348 -0.1579 -0.0669  0.0884
19648TIP3    H180359   5.310   4.421   1.401 -0.8081  0.1765  0.5545
19648TIP3    H280360   5.259   4.472   1.268 -2.6966  0.2368  1.2665
19649TIP3   OH280361   4.560   6.676  13.745 -0.1281  0.1914 -0.5860
19649TIP3    H180362   4.595   6.611  13.684 -0.6604  0.1488 -0.8461
19649TIP3    H280363   4.468   6.653  13.756  0.3723 -1.0049  1.7569
19650TIP3   OH280364   0.632   6.129   1.236 -0.1984  0.3651  0.1019
19650TIP3    H180365   0.675   6.171   1.162 -2.2553 -0.8589 -1.9286
19650TIP3    H280366   0.539   6.128   1.212 -0.7178 -1.6709  1.8940
19651TIP3   OH280367   4.242   2.453   4.198  0.9200  0.1959  0.5070
19651TIP3    H180368   4.315   2.404   4.162 -0.5638 -0.6759 -1.5110
19651TIP3    H280369   4.179   2.458   4.127 -1.7931 -0.7438  2.6393
19652TIP3   OH280370   6.209   1.438  14.472 -0.3454  0.0535  0.3519
19652TIP3    H180371   6.202   1.350  14.435 -2.6337  0.3456 -0.0559
19652TIP3    H280372   6.264   1.486  14.409  0.9729 -1.0558  0.6139
19653TIP3   OH280373   4.824   3.343   2.277 -0.1370 -0.1600  0.4438
19653TIP3    H180374   4.867   3.258   2.264  0.4249  0.1257  0.4131
19653TIP3    H280375   4.821   3.381   2.189 -0.6522 -0.2644  0.4094
19654TIP3   OH280376   3.817   6.476  15.191 -0.8939 -0.6499 -0.0631
19654TIP3    H180377   3.776   6.562  15.198 -0.3817 -0.5302  2.0600
19654TIP3    H280378   3.745   6.415  15.176 -1.4796 -0.0599  0.3194
19655TIP3   OH280379   5.339   1.774   2.691  0.3221 -0.1322  1.1452
19655TIP3    H180380   5.255   1.786   2.736 -0.5410 -2.1492  0.2211
19655TIP3    H280381   5.330   1.689   2.648  2.9500 -0.5018  1.1991
19656TIP3   OH280382   1.655   0.855   0.692  0.4345  0.1441  0.1331
19656TIP3    H180383   1.671   0.761   0.682 -1.0603 -0.2303  0.8580
19656TIP3    H280384   1.592   0.861   0.764  1.1018  1.7751  0.6360
19657TIP3   OH280385   0.975   5.236   5.523  0.4002  0.1813  0.6654
19657TIP3    H180386   0.880   5.231   5.515  0.3327  2.5215 -0.6832
19657TIP3    H280387   0.990   5.306   5.587  1.2239  0.4223  0.2125
19658TIP3   OH280388   6.101   5.836  12.347 -0.4384  0.0563  0.2398
19658TIP3    H180389   6.112   5.825  12.253 -0.8844  1.3646  0.0099
19658TIP3    H280390   6.022   5.889  12.356 -0.3664  0.0095  1.3571
19659TIP3   OH280391   3.446   5.592   1.398  0.2451  0.1360  0.1510
19659TIP3    H180392   3.506   5.591   1.323  1.7981  0.6662  1.3245
19659TIP3    H280393   3.487   5.653   1.460 -1.3355  0.2175  1.1673
19660TIP3   OH280394   3.290   0.420  12.357 -0.4252 -0.2988 -0.0214
19660TIP3    H180395   3.205   0.380  12.374 -0.7775  0.0907 -0.8323
19660TIP3    H280396   3.299   0.417  12.262  0.4317 -0.2590  0.0529
19661TIP3   OH280397   5.109   2.678  15.630  0.0294 -0.4440 -0.4636
19661TIP3    H180398   5.129   2.647  15.719 -0.6896 -1.9054 -0.7838
19661TIP3    H280399   5.184   2.649  15.578 -0.3870 -1.1638 -0.6633
19662TIP3   OH280400   3.020   0.717  16.317 -0.5629 -0.6273 -0.3907
19662TIP3    H180401   3.051   0.787  16.375 -1.4177  0.2462 -0.9391
19662TIP3    H280402   3.099   0.675  16.285  0.0435  0.8185 -0.8977
19663TIP3   OH280403   3.611   4.076   0.726  0.2732 -0.3767  0.2103
19663TIP3    H180404   3.577   4.002   0.776  1.6316 -0.4618  1.0742
19663TIP3    H280405   3.639   4.038   0.643  2.0119 -1.1088  1.0725
19664TIP3   OH280406   2.720   3.036   1.937 -0.0611  0.5909 -0.2674
19664TIP3    H180407   2.809   3.071   1.937  0.0439  0.5174  2.1631
19664TIP3    H280408   2.729   2.947   1.901  1.1090  0.1038  1.1345
19665TIP3   OH280409   1.088   1.055   5.320 -0.3825  0.8861 -0.5806
19665TIP3    H180410   1.085   0.971   5.273 -1.2651  1.0246 -0.7938
19665TIP3    H280411   1.024   1.046   5.390  0.2462  1.0295  0.0294
19666TIP3   OH280412   0.375   5.227   1.390 -0.3548 -0.9311  0.0554
19666TIP3    H180413   0.415   5.159   1.337 -2.0615 -2.1268  0.2203
19666TIP3    H280414   0.448   5.281   1.419  0.8537 -1.5321 -1.6687
19667TIP3   OH280415   4.831   4.945  13.610 -0.5925  0.5083  0.4040
19667TIP3    H180416   4.889   4.911  13.542  0.9947  1.9317  0.9879
19667TIP3    H280417   4.837   4.881  13.681  1.0240  1.0694  0.8167
19668TIP3   OH280418   1.091   2.438   3.028 -0.0978 -0.1465 -0.8814
19668TIP3    H180419   1.149   2.384   3.081 -1.9003 -0.1384  1.2123
19668TIP3    H280420   1.143   2.515   3.007  0.5002  0.1802  1.5005
19669TIP3   OH280421   1.269   4.256   2.208 -0.1627  0.2999  0.5584
19669TIP3    H180422   1.243   4.319   2.141 -3.7562  0.9988  2.3988
19669TIP3    H280423   1.294   4.309   2.283  3.9458 -0.4735  0.0012
19670TIP3   OH280424   6.688   1.291  16.895 -0.7511  0.1928  0.5531
19670TIP3    H180425   6.779   1.278  16.869 -0.8275  1.2486 -0.3099
19670TIP3    H280426   6.638   1.232  16.839 -0.5446 -1.1630  1.7421
19671TIP3   OH280427   6.713   4.986  16.979  0.3420 -0.6188  0.8316
19671TIP3    H180428   6.726   4.947  16.893 -1.1233 -0.4978  0.5290
19671TIP3    H280429   6.747   4.921  17.041  2.2609 -0.3138  0.1575
19672TIP3   OH280430   5.346   3.028  11.397  0.0136 -0.6471  0.1088
19672TIP3    H180431   5.420   3.049  11.339 -2.1109  1.5797 -2.0692
19672TIP3    H280432   5.283   2.984  11.340 -1.7917  0.7933  0.8905
19673TIP3   OH280433   0.361   4.153  12.879 -0.3995 -0.0007 -0.0591
19673TIP3    H180434   0.341   4.176  12.969  1.5974  1.2341  0.1338
19673TIP3    H280435   0.363   4.058  12.877 -0.2785 -0.0309  1.2321
19674TIP3   OH280436   6.762   2.379  10.785 -0.1966  0.0698  0.1227
19674TIP3    H180437   6.683   2.364  10.733  0.4280  0.0083 -0.8257
19674TIP3    H280438   6.802   2.293  10.793  1.0367  0.4539 -1.4908
19675TIP3   OH280439   1.540   6.531   3.712 -0.0596 -0.1826 -0.7642
19675TIP3    H180440   1.518   6.442   3.685  0.9212 -0.3640 -1.0059
19675TIP3    H280441   1.528   6.531   3.807  1.9276 -1.1989 -0.4629
19676TIP3   OH280442   0.615   0.569   2.723 -0.1234  0.5152  0.1166
19676TIP3    H180443   0.589   0.485   2.685 -0.1445 -0.0592  1.3463
19676TIP3    H280444   0.538   0.624   2.713 -0.2767  0.2405 -0.2705
19677TIP3   OH280445   3.752   3.129  13.348 -0.3604 -0.0382 -0.0492
19677TIP3    H180446   3.736   3.045  13.392  0.5181  0.4108  1.1707
19677TIP3    H280447   3.697   3.191  13.396 -2.1519 -0.1164 -1.8729
19678TIP3   OH280448   6.045   4.635  15.084 -0.7600 -0.0176  0.4193
19678TIP3    H180449   6.045   4.546  15.118 -0.0736 -0.5462 -0.8943
19678TIP3    H280450   6.123   4.640  15.029 -1.4370  0.9996 -0.4969
19679TIP3   OH280451   5.669   1.075  14.828  0.8709  0.0376  0.2406
19679TIP3    H180452   5.760   1.046  14.827  1.0603  0.6312 -0.4016
19679TIP3    H280453   5.630   1.029  14.903  1.6251 -0.4235  0.3589
19680TIP3   OH280454   5.005   6.246   5.601  0.1191  0.6704 -0.8171
19680TIP3    H180455   5.019   6.337   5.573  1.4670  0.4195 -1.0617
19680TIP3    H280456   5.092   6.207   5.596 -0.2261 -0.3157  0.4552
19681TIP3   OH280457   3.730   0.358   3.370 -0.6969  0.0113  0.9562
19681TIP3    H180458   3.698   0.440   3.332 -0.6458  0.4742  1.8854
19681TIP3    H280459   3.714   0.292   3.302  1.1859  1.1337 -0.6660
19682TIP3   OH280460   3.340   2.668  15.687 -0.2312  0.4771  0.2490
19682TIP3    H180461   3.349   2.655  15.593 -1.0825  0.0828  0.2055
19682TIP3    H280462   3.344   2.580  15.724  0.8552  0.6939  0.6623
19683TIP3   OH280463   4.787   1.518  12.318 -0.5838 -0.3007 -0.2968
19683TIP3    H180464   4.745   1.589  12.269 -0.5511  0.9029  1.3353
19683TIP3    H280465   4.867   1.557  12.353 -0.7870 -0.9709  0.9981
19684TIP3   OH280466   6.142   0.154  11.299 -0.3747  0.0123 -0.0987
19684TIP3    H180467   6.207   0.084  11.302  0.7624  1.0498  2.3540
19684TIP3    H280468   6.067   0.120  11.348  0.7313  0.8902  2.3869
19685TIP3   OH280469   4.165   5.073   0.848 -0.1192  0.2398  0.6630
19685TIP3    H180470   4.242   5.087   0.793  0.5634  0.2422  1.5822
19685TIP3    H280471   4.100   5.136   0.816 -0.1732 -0.5517 -0.8808
19686TIP3   OH280472   2.274   2.625   4.485 -0.0605 -1.0899 -0.1508
19686TIP3    H180473   2.342   2.589   4.429  0.9206 -0.0011  0.2976
19686TIP3    H280474   2.289   2.586   4.571  0.6936 -0.0404  0.2127
19687TIP3   OH280475   1.658   2.770  14.270 -0.1192 -0.5713 -0.0499
19687TIP3    H180476   1.610   2.763  14.352  0.3486  1.5614  0.4569
19687TIP3    H280477   1.747   2.793  14.296  0.3575 -1.1383 -1.1117
19688TIP3   OH280478   6.163   0.515  16.002  0.2096  0.1510 -0.1305
19688TIP3    H180479   6.226   0.568  16.050 -0.1499  2.3368 -1.8987
19688TIP3    H280480   6.081   0.564  16.006 -0.1861 -0.3105 -1.6904
19689TIP3   OH280481   2.052   1.888  11.335 -0.1819 -0.0835  0.4646
19689TIP3    H180482   2.119   1.827  11.363 -0.6630 -0.2255  1.3388
19689TIP3    H280483   2.077   1.912  11.245  1.0465 -0.1034  0.7798
19690TIP3   OH280484   5.409   2.870  12.622  0.2371  0.1416  0.3487
19690TIP3    H180485   5.363   2.880  12.539 -0.7274  1.2417  0.9808
19690TIP3    H280486   5.357   2.806  12.670  1.4657 -1.4121 -0.3237
19691TIP3   OH280487   2.446   2.823  12.145  0.2602 -0.0347 -1.0254
19691TIP3    H180488   2.356   2.849  12.126 -0.5382  0.3732  2.6495
19691TIP3    H280489   2.439   2.733  12.178  1.4335 -0.4893 -1.8965
19692TIP3   OH280490   6.217   1.467   0.965  0.1401 -0.1581 -0.2889
19692TIP3    H180491   6.249   1.423   0.886 -1.2749  0.2532 -1.1353
19692TIP3    H280492   6.122   1.469   0.954  0.0594  1.7477  0.4618
19693TIP3   OH280493   3.884   6.756  15.413  0.5114  0.2115  0.9738
19693TIP3    H180494   3.935   6.727  15.489 -0.5641 -0.6578  1.3946
19693TIP3    H280495   3.940   6.736  15.338  0.8645 -0.5840  1.4336
19694TIP3   OH280496   0.223   2.805  12.770 -0.0390 -0.8277  0.3514
19694TIP3    H180497   0.216   2.900  12.780 -1.8195 -0.9682  0.6846
19694TIP3    H280498   0.219   2.791  12.676 -1.4675 -0.6675  0.3751
19695TIP3   OH280499   3.489   3.810  16.787 -0.4319  0.2286  0.0736
19695TIP3    H180500   3.544   3.887  16.797 -1.5552  1.3868 -2.0115
19695TIP3    H280501   3.438   3.806  16.868  1.4322  0.1450  1.2816
19696TIP3   OH280502   2.791   3.803   3.897  0.4826  0.0319 -0.0024
19696TIP3    H180503   2.765   3.727   3.844 -1.9000  1.8778 -1.6949
19696TIP3    H280504   2.757   3.784   3.984 -1.2398 -0.3224 -0.7136
19697TIP3   OH280505   2.806   0.341   4.214 -0.1959  0.0714 -0.4526
19697TIP3    H180506   2.718   0.349   4.176 -0.2028  2.7865 -0.0848
19697TIP3    H280507   2.793   0.359   4.308  0.8226  1.2627 -0.5198
19698TIP3   OH280508   5.906   3.880   0.066 -0.5194  0.4746  0.0082
19698TIP3    H180509   5.838   3.923   0.118  0.4750  1.5691  0.4492
19698TIP3    H280510   5.964   3.952   0.039  0.5188 -0.4443 -0.2608
19699TIP3   OH280511   4.443   4.041  13.331  0.3197  0.2884  0.3633
19699TIP3    H180512   4.522   4.063  13.380  0.6894 -0.3309  0.0473
19699TIP3    H280513   4.448   4.095  13.252  1.2374 -0.9234 -0.4210
19700TIP3   OH280514   6.280   0.608   0.461  0.2609 -0.6077 -0.0495
19700TIP3    H180515   6.213   0.629   0.397  1.2584 -0.3705 -1.0571
19700TIP3    H280516   6.275   0.678   0.525 -0.4055 -0.5656 -0.1410
19701TIP3   OH280517   6.776   3.959   5.104  0.1604 -0.6177  0.0811
19701TIP3    H180518   6.682   3.977   5.100  0.0532 -1.0359  0.5420
19701TIP3    H280519   6.791   3.895   5.035  0.1094 -0.5270 -0.0137
19702TIP3   OH280520   3.364   1.394  12.853  0.1435  0.1375  1.1935
19702TIP3    H180521   3.376   1.424  12.943 -0.6651  0.5126  1.1809
19702TIP3    H280522   3.296   1.451  12.817 -0.4331 -0.8129  0.7327
19703TIP3   OH280523   1.073   2.095   5.333  0.1648  0.0750  0.4984
19703TIP3    H180524   1.080   2.016   5.387 -1.3777  0.0176  0.6625
19703TIP3    H280525   0.996   2.080   5.279  1.0204  0.6289 -0.9325
19704TIP3   OH280526   5.386   4.318   5.047  0.1508  0.1220 -0.0299
19704TIP3    H180527   5.335   4.299   5.126 -0.0709  0.0074 -0.1992
19704TIP3    H280528   5.416   4.408   5.059  0.1820  0.0782  0.2219
19705TIP3   OH280529   5.237   0.727   4.371  0.3023  0.3859  0.3296
19705TIP3    H180530   5.146   0.755   4.386  0.2802  1.0396 -0.9063
19705TIP3    H280531   5.251   0.740   4.278  1.8073  0.6625  0.5660
19706TIP3   OH280532   5.743   2.746  11.231 -0.0394  0.1078  0.3135
19706TIP3    H180533   5.810   2.782  11.174  0.7346  0.3338  1.3424
19706TIP3    H280534   5.661   2.784  11.200  0.6867  2.4346  1.0651
19707TIP3   OH280535   3.912   1.667  13.395  0.5165  0.3452 -0.2569
19707TIP3    H180536   3.992   1.710  13.366  0.2404  0.0396 -1.5271
19707TIP3    H280537   3.942   1.590  13.444  1.0572 -0.9974 -2.5530
19708TIP3   OH280538   3.515   5.068  13.045 -0.3609  0.1096 -0.4377
19708TIP3    H180539   3.420   5.052  13.048 -0.8240  2.2641 -1.5274
19708TIP3    H280540   3.526   5.150  13.093  0.2883  2.1792 -3.8414
19709TIP3   OH280541   0.464   6.788  10.960 -0.6045 -0.3148 -0.3879
19709TIP3    H180542   0.372   6.763  10.948 -0.6822  0.4917 -1.6471
19709TIP3    H280543   0.494   6.811  10.873  0.9601 -1.0352 -0.0620
19710TIP3   OH280544   1.191   4.705   5.318 -0.0730  0.2156  0.7072
19710TIP3    H180545   1.192   4.715   5.414 -0.3276  1.2845  0.6183
19710TIP3    H280546   1.099   4.699   5.295 -0.1898  2.4932  0.3403
19711TIP3   OH280547   1.434   1.352  14.001  0.0274  0.1044  0.3985
19711TIP3    H180548   1.463   1.395  13.921  2.2732 -1.3655  0.3607
19711TIP3    H280549   1.419   1.424  14.063  1.2258  1.1012 -0.4287
19712TIP3   OH280550   1.872   0.982  15.730 -0.4782  0.4759 -0.4963
19712TIP3    H180551   1.866   1.076  15.747  0.0896  0.2941  0.7611
19712TIP3    H280552   1.965   0.961  15.738 -0.6415 -0.2598 -0.4133
19713TIP3   OH280553   5.942   2.681   5.786  0.2027  0.1174  0.2194
19713TIP3    H180554   5.928   2.649   5.875 -1.1919 -1.2250 -0.4450
19713TIP3    H280555   6.021   2.734   5.793 -0.2647  0.6522  2.4006
19714TIP3   OH280556   2.227   5.525   0.510 -0.3520 -0.2400 -0.0267
19714TIP3    H180557   2.165   5.473   0.560 -3.0217  0.1901 -2.6472
19714TIP3    H280558   2.280   5.461   0.462 -0.3184 -0.5751  0.4558
19715TIP3   OH280559   3.013   0.436   0.886  0.2628 -0.3692  0.0501
19715TIP3    H180560   2.953   0.385   0.941  0.5395 -1.6174 -0.7662
19715TIP3    H280561   2.984   0.526   0.897 -2.1684 -0.9530 -0.7387
19716TIP3   OH280562   0.131   4.108   4.555  0.4367 -0.0449 -0.0630
19716TIP3    H180563   0.224   4.132   4.560  0.1410  1.0703  0.5059
19716TIP3    H280564   0.095   4.133   4.640 -0.7811  1.4525 -0.9524
19717TIP3   OH280565   2.988   2.907   1.186 -0.9935 -0.3429  0.0993
19717TIP3    H180566   2.995   2.994   1.146 -2.5525 -0.7524 -1.1752
19717TIP3    H280567   2.908   2.911   1.238  0.6447 -0.0389  2.7483
19718TIP3   OH280568   4.451   1.075   5.077 -0.4808  0.7135  0.4149
19718TIP3    H180569   4.467   0.989   5.038  0.7939  1.1194 -0.0279
19718TIP3    H280570   4.523   1.129   5.044  0.2599  1.2727  2.7224
19719TIP3   OH280571   0.226   4.755   3.332 -0.4139  0.4012  0.0659
19719TIP3    H180572   0.196   4.665   3.345  0.2770  0.1461 -0.0243
19719TIP3    H280573   0.318   4.745   3.307 -0.3126  1.1382  0.1362
19720TIP3   OH280574   6.663   5.941   4.242 -0.2731 -0.9349 -0.2352
19720TIP3    H180575   6.738   5.914   4.293  0.3174  1.3121  0.1917
19720TIP3    H280576   6.587   5.923   4.299  0.2749  0.3963  0.9555
19721TIP3   OH280577   6.387   1.569  14.863  0.2411  0.6957 -0.1993
19721TIP3    H180578   6.374   1.475  14.876 -1.4200  0.9429  0.0882
19721TIP3    H280579   6.447   1.594  14.933  0.7496 -0.1470 -0.3090
19722TIP3   OH280580   2.645   1.960   1.776  0.4395  0.5559 -0.2251
19722TIP3    H180581   2.671   1.922   1.693  0.5406 -0.5521  0.2939
19722TIP3    H280582   2.710   2.027   1.794  0.5462  0.6430 -0.9178
19723TIP3   OH280583   4.156   3.860   4.762  0.1002 -0.0546 -0.1340
19723TIP3    H180584   4.132   3.775   4.797  0.6012 -0.3902 -0.5949
19723TIP3    H280585   4.226   3.842   4.699 -0.4261  0.5860 -0.9235
19724TIP3   OH280586   4.017   3.626   3.224  0.1070  0.8713  0.0772
19724TIP3    H180587   3.974   3.616   3.309  1.6913 -1.2892  0.7433
19724TIP3    H280588   3.969   3.695   3.180 -3.0535 -0.3695  1.3018
19725TIP3   OH280589   3.794   5.719   5.686  0.0064 -0.0433  0.2665
19725TIP3    H180590   3.705   5.754   5.676 -0.6990 -1.8748 -0.3124
19725TIP3    H280591   3.809   5.669   5.606  1.0237 -0.9280  0.9800
19726TIP3   OH280592   3.250   0.392  14.567 -0.2395 -0.4512 -0.0685
19726TIP3    H180593   3.224   0.444  14.643  2.3993 -0.4432  0.9543
19726TIP3    H280594   3.346   0.399  14.565 -0.1622 -0.8861 -3.1219
19727TIP3   OH280595   1.677   2.921   0.978  0.2452  0.0791 -0.1243
19727TIP3    H180596   1.597   2.885   0.939  1.2334 -0.6318 -1.5643
19727TIP3    H280597   1.684   2.877   1.063 -0.6909 -0.1219 -0.1409
19728TIP3   OH280598   1.519   6.537   1.576 -0.1845 -0.6649 -0.7485
19728TIP3    H180599   1.567   6.479   1.635 -0.1508  0.5220  0.4444
19728TIP3    H280600   1.517   6.621   1.622 -2.1965 -0.3082 -1.4106
19729TIP3   OH280601   1.820   5.055  10.920  0.2945  0.4006 -0.5090
19729TIP3    H180602   1.841   5.148  10.907 -0.5631  0.6776 -0.0512
19729TIP3    H280603   1.733   5.057  10.962  0.5628 -0.5918  0.1118
19730TIP3   OH280604   3.214   0.031  17.095  0.3346 -0.2592  0.0703
19730TIP3    H180605   3.262   0.019  17.013  1.7801 -1.2073  1.0177
19730TIP3    H280606   3.252   0.110  17.133  2.4967 -1.9616  1.6584
19731TIP3   OH280607   1.094   0.602   2.452  0.0670  0.1104  0.1547
19731TIP3    H180608   1.147   0.679   2.472  0.9170 -0.2668 -0.5896
19731TIP3    H280609   1.013   0.615   2.503 -0.8111  2.6102 -1.6496
19732TIP3   OH280610   5.871   6.420  15.165  0.1907  0.0831  0.0991
19732TIP3    H180611   5.944   6.453  15.113  1.8942 -1.8036  1.1725
19732TIP3    H280612   5.834   6.350  15.111  0.1961 -0.0295  0.2419
19733TIP3   OH280613   4.403   2.676  13.690  0.0877  0.0371  0.3152
19733TIP3    H180614   4.400   2.581  13.700 -1.5327 -0.2537 -2.0065
19733TIP3    H280615   4.414   2.709  13.779  0.9785 -2.2994  1.1606
19734TIP3   OH280616   1.673   4.261  12.983 -0.8750  0.0447 -0.1962
19734TIP3    H180617   1.590   4.300  13.009 -0.3153  0.7088  0.6465
19734TIP3    H280618   1.680   4.182  13.036 -1.3717 -0.4989 -0.9172
19735TIP3   OH280619   1.627   3.580   0.008  0.4862  0.1267  0.5830
19735TIP3    H180620   1.538   3.582  -0.027  0.8230 -1.4797 -0.4601
19735TIP3    H280621   1.683   3.592  -0.069  1.2291 -2.5069  0.6104
19736TIP3   OH280622   6.329   0.618  12.356  0.0754  0.3387 -0.1153
19736TIP3    H180623   6.349   0.685  12.421  0.6006  1.0330 -0.9582
19736TIP3    H280624   6.243   0.643  12.321  0.0724  0.3234 -0.1189
19737TIP3   OH280625   2.597   1.650   5.832 -0.3517  1.0126 -0.2947
19737TIP3    H180626   2.520   1.594   5.844 -0.9447  1.5289 -1.5155
19737TIP3    H280627   2.569   1.736   5.865  1.2715  0.2089  3.6812
19738TIP3   OH280628   3.812   4.424  16.645 -0.1229 -0.3225 -0.3282
19738TIP3    H180629   3.850   4.415  16.733 -1.9830 -1.5194  0.4062
19738TIP3    H280630   3.756   4.501  16.652  1.2452  0.7981 -1.1061
19739TIP3   OH280631   5.202   0.442  10.897  0.2080 -0.3842 -0.4050
19739TIP3    H180632   5.265   0.451  10.968  0.4260  1.5833 -0.7880
19739TIP3    H280633   5.238   0.374  10.841  1.5662  0.0922 -0.1587
19740TIP3   OH280634   3.809   1.649  15.208  0.7274 -0.1462 -0.3108
19740TIP3    H180635   3.798   1.578  15.145 -2.7321 -1.7592  1.7595
19740TIP3    H280636   3.766   1.724  15.168 -0.8174 -0.9558 -0.2509
19741TIP3   OH280637   6.208   2.775  11.000  0.1189  0.3175 -0.3417
19741TIP3    H180638   6.257   2.833  11.058  0.4862 -0.6198  0.2965
19741TIP3    H280639   6.119   2.775  11.035  0.9140 -2.4712  2.0634
19742TIP3   OH280640   6.083   0.150  14.147  0.0800 -0.4317 -0.4943
19742TIP3    H180641   6.111   0.222  14.202  0.2130 -1.2038  0.4644
19742TIP3    H280642   5.993   0.133  14.174  0.4012 -1.3218  0.0440
19743TIP3   OH280643   5.143   5.891   5.431 -0.3392  0.3569 -0.1425
19743TIP3    H180644   5.223   5.861   5.474  0.6243  1.9122 -0.7629
19743TIP3    H280645   5.072   5.850   5.481  0.8164 -2.0158 -0.2721
19744TIP3   OH280646   1.346   4.572  14.983 -0.2708 -0.0672  0.2267
19744TIP3    H180647   1.430   4.591  14.942  0.1413 -0.8902  0.6638
19744TIP3    H280648   1.312   4.496  14.934  0.2971 -1.1592  1.4547
19745TIP3   OH280649   5.138   3.780   1.025  0.0548  0.0072  0.4683
19745TIP3    H180650   5.197   3.725   0.972  2.2483  1.2466  1.5158
19745TIP3    H280651   5.170   3.869   1.012 -2.0270  0.8240  0.6062
19746TIP3   OH280652   1.601   2.625   3.470 -0.2671  0.2037 -0.0246
19746TIP3    H180653   1.516   2.602   3.509  0.1322 -1.6636 -0.1592
19746TIP3    H280654   1.614   2.561   3.400  0.8289  1.0701 -0.6561
19747TIP3   OH280655   5.273   6.794   3.519  0.3568 -0.1198 -0.6375
19747TIP3    H180656   5.266   6.705   3.485  0.8059  0.2638 -1.7609
19747TIP3    H280657   5.279   6.783   3.614 -2.4705 -1.1514 -0.4708
19748TIP3   OH280658   3.191   3.499  16.189  0.3687  0.2652  0.3771
19748TIP3    H180659   3.170   3.419  16.141  0.7226  0.5566 -0.2833
19748TIP3    H280660   3.193   3.567  16.121  3.0780  0.3274  0.4031
19749TIP3   OH280661   3.123   0.708  16.647  0.0352  0.0111  0.2634
19749TIP3    H180662   3.064   0.784  16.642  0.1465  0.2002  1.3880
19749TIP3    H280663   3.201   0.742  16.691  0.5918 -0.4680 -0.3469
19750TIP3   OH280664   4.325   4.161   4.610 -0.1695 -0.4676  0.0540
19750TIP3    H180665   4.301   4.252   4.591 -1.4227 -1.0118 -1.1422
19750TIP3    H280666   4.271   4.136   4.684  1.3385  0.2159  1.4465
19751TIP3   OH280667   5.361   1.609  10.504 -0.5486  0.2680  0.5402
19751TIP3    H180668   5.344   1.699  10.474 -0.5332 -0.0957 -0.6211
19751TIP3    H280669   5.309   1.555  10.446  0.4868 -0.5553  0.3595
19752TIP3   OH280670   2.012   6.417  10.787  0.2756  0.1535 -0.3529
19752TIP3    H180671   2.053   6.449  10.707 -1.5719 -1.2029 -1.9407
19752TIP3    H280672   2.001   6.323  10.772 -1.8670  0.1893  0.6413
19753TIP3   OH280673   3.961   5.324  12.934 -0.0384 -0.1538 -0.3904
19753TIP3    H180674   3.918   5.249  12.895  3.4046 -0.6989 -3.7246
19753TIP3    H280675   3.935   5.398  12.880  1.1024 -0.0598 -0.8459
19754TIP3   OH280676   5.085   2.120  16.516 -0.0424  0.2526  0.4810
19754TIP3    H180677   5.092   2.034  16.556 -2.2632  0.3111  1.1290
19754TIP3    H280678   5.149   2.119  16.445  1.1759 -1.2799  1.5182
19755TIP3   OH280679   0.448   3.552  13.562  0.0490  0.2829 -0.2468
19755TIP3    H180680   0.356   3.531  13.575  0.1476 -0.9733 -1.3487
19755TIP3    H280681   0.489   3.467  13.543  1.0984  1.0524 -1.5578
19756TIP3   OH280682   0.962   1.115  15.582 -0.6700 -0.5616  0.2495
19756TIP3    H180683   0.981   1.121  15.676  0.2804 -1.0302  0.1057
19756TIP3    H280684   0.892   1.050  15.575 -0.1587 -1.1623  0.5796
19757TIP3   OH280685   2.561   5.049  14.074  0.0449  0.0782  0.2038
19757TIP3    H180686   2.598   5.131  14.105  1.7103 -0.5369 -0.0859
19757TIP3    H280687   2.508   5.018  14.147 -0.2093  1.1562  0.4963
19758TIP3   OH280688   2.081   1.183  11.025 -0.1344 -0.3250 -0.4490
19758TIP3    H180689   2.091   1.270  11.063 -1.7344  0.0973 -0.9201
19758TIP3    H280690   2.020   1.196  10.952 -0.6777 -1.8972 -0.3059
19759TIP3   OH280691   3.357   3.474  13.587 -0.0604 -0.0787  0.4646
19759TIP3    H180692   3.414   3.550  13.572 -1.6191  0.9329 -0.5590
19759TIP3    H280693   3.288   3.507  13.645 -0.8662 -0.6514 -0.1504
19760TIP3   OH280694   1.480   2.340  16.480 -0.6711 -0.3440 -0.0801
19760TIP3    H180695   1.559   2.330  16.426  0.1963  0.3076  1.0180
19760TIP3    H280696   1.414   2.375  16.420  0.1308 -0.0617 -0.8221
19761TIP3   OH280697   6.000   1.592  13.695 -0.4284 -0.0063  0.0195
19761TIP3    H180698   5.939   1.587  13.769  1.0193  0.1255  1.2612
19761TIP3    H280699   5.984   1.679  13.657 -0.9035  0.0827  0.4176
19762TIP3   OH280700   1.293   2.613   2.607 -0.3897 -0.1748 -0.1836
19762TIP3    H180701   1.342   2.570   2.537  0.2128  1.1448 -0.5990
19762TIP3    H280702   1.216   2.557   2.620  0.5958 -1.6332 -0.3526
19763TIP3   OH280703   5.157   4.640  12.685  0.0145 -0.0720  0.0573
19763TIP3    H180704   5.146   4.735  12.686 -0.5026 -0.1314  0.0702
19763TIP3    H280705   5.152   4.616  12.592 -0.2020 -0.1286  0.0842
19764TIP3   OH280706   6.570   4.257  13.847  0.0054  0.1831  0.2528
19764TIP3    H180707   6.509   4.263  13.773 -0.8134 -1.3271  0.7582
19764TIP3    H280708   6.513   4.253  13.924  0.8117  0.4530  0.8748
19765TIP3   OH280709   1.702   6.440  12.843  0.6150 -0.2146 -0.8932
19765TIP3    H180710   1.681   6.399  12.927  2.6117 -0.8530 -0.6506
19765TIP3    H280711   1.660   6.526  12.847 -1.4694 -1.1894 -0.3376
19766TIP3   OH280712   6.318   3.045  13.877  0.1668  0.1099  0.3069
19766TIP3    H180713   6.389   3.047  13.941  0.1811 -0.1877  0.3014
19766TIP3    H280714   6.301   2.952  13.862  0.1594  0.1782 -0.1177
19767TIP3   OH280715   0.886   5.810  12.935  0.3619 -0.1613 -0.2683
19767TIP3    H180716   0.911   5.884  12.880  3.5084 -1.4949 -0.8656
19767TIP3    H280717   0.923   5.830  13.020 -1.3795  0.2372  0.4434
19768TIP3   OH280718   3.168   5.593  11.236 -0.7992  0.0306 -0.1273
19768TIP3    H180719   3.182   5.638  11.153 -0.1395  0.4459  0.2001
19768TIP3    H280720   3.166   5.663  11.301  1.1590 -0.4266  0.5062
19769TIP3   OH280721   0.883   3.651   4.577 -0.3017 -0.0283 -0.7067
19769TIP3    H180722   0.934   3.584   4.531  1.1357  1.1279 -0.9037
19769TIP3    H280723   0.945   3.688   4.640 -1.6309 -0.1684  0.7334
19770TIP3   OH280724   5.801   5.325  15.798  0.4853  0.0448  0.2455
19770TIP3    H180725   5.815   5.267  15.873  2.5384  1.5694  1.1450
19770TIP3    H280726   5.839   5.279  15.724  0.2811 -0.5965  0.5341
19771TIP3   OH280727   5.613   4.501   3.811  0.9377  0.0930 -0.3196
19771TIP3    H180728   5.582   4.583   3.851 -0.0345  0.2796 -1.4047
19771TIP3    H280729   5.708   4.508   3.814  0.8729  1.4369 -0.7001
19772TIP3   OH280730   3.073   4.077   0.916  0.0891 -0.2331 -0.1013
19772TIP3    H180731   3.068   4.125   0.998 -0.2595  0.3338 -0.4453
19772TIP3    H280732   3.108   4.141   0.853  0.5272 -0.7143 -0.3541
19773TIP3   OH280733   5.794   5.713  12.853  0.3674 -0.8110 -0.2586
19773TIP3    H180734   5.855   5.668  12.795 -0.2065 -1.0089 -0.7215
19773TIP3    H280735   5.712   5.718  12.803  0.5839  1.3792 -0.5048
19774TIP3   OH280736   2.951   2.477   2.958  0.3623  0.6700  0.1494
19774TIP3    H180737   2.978   2.464   3.049  1.2588 -1.7128 -0.3706
19774TIP3    H280738   2.856   2.483   2.962  0.4880  2.7196  1.4089
19775TIP3   OH280739   3.455   4.991  15.785  1.0173 -1.1447 -0.2278
19775TIP3    H180740   3.391   4.961  15.720  0.4474 -0.0172 -0.1954
19775TIP3    H280741   3.540   4.971  15.745  0.6675 -1.9477 -0.6051
19776TIP3   OH280742   0.091   2.877   3.836  1.0000 -0.2868 -0.1936
19776TIP3    H180743   0.056   2.852   3.922  3.7035  0.9167  1.3949
19776TIP3    H280744   0.107   2.971   3.843 -0.8973  0.3513 -2.9269
19777TIP3   OH280745   2.065   3.635   5.968 -0.3950  0.1764  0.0465
19777TIP3    H180746   2.116   3.566   5.928 -1.1256  0.1624 -0.8867
19777TIP3    H280747   2.016   3.592   6.038  1.2714  0.2980  1.3313
19778TIP3   OH280748   1.322   6.077  11.726 -0.2376 -0.7610  0.2440
19778TIP3    H180749   1.309   6.049  11.636 -0.5337 -2.5581  0.7950
19778TIP3    H280750   1.416   6.075  11.739 -0.0780  0.9808 -0.4314
19779TIP3   OH280751   0.310   2.611  14.849  0.0432 -0.3594 -0.0512
19779TIP3    H180752   0.330   2.623  14.942 -0.0692 -1.1576  0.0840
19779TIP3    H280753   0.258   2.687  14.826  0.7068  0.2295  0.3477
19780TIP3   OH280754   5.706   0.163   0.737 -0.3565  0.3420  0.8720
19780TIP3    H180755   5.774   0.098   0.751  1.7687  2.1946 -0.2702
19780TIP3    H280756   5.701   0.172   0.642 -0.6229  1.7962  1.0013
19781TIP3   OH280757   6.388   4.676  10.755  0.4394  0.2905 -0.1400
19781TIP3    H180758   6.445   4.620  10.702  0.2289 -0.9010  0.8285
19781TIP3    H280759   6.432   4.761  10.757  1.1234 -0.0309 -1.0976
19782TIP3   OH280760   6.318   0.659  15.499 -0.3890 -0.0615  0.2900
19782TIP3    H180761   6.383   0.698  15.558 -0.5161 -0.6926  0.8652
19782TIP3    H280762   6.340   0.566  15.498  0.4511  0.1076 -1.7403
19783TIP3   OH280763   0.796   0.123  10.807 -0.1914  0.1005 -0.1545
19783TIP3    H180764   0.759   0.090  10.726  0.2521  1.9636 -1.1663
19783TIP3    H280765   0.773   0.216  10.809  1.7648  0.6317  0.6771
19784TIP3   OH280766   5.566   1.623   2.020 -0.5297  0.1668  0.3307
19784TIP3    H180767   5.476   1.590   2.032 -0.6783  0.9375  1.5482
19784TIP3    H280768   5.555   1.713   1.990 -0.1724  0.3390  0.7037
19785TIP3   OH280769   2.589   4.041  16.768 -0.2967 -0.0756 -0.2448
19785TIP3    H180770   2.652   3.988  16.718 -1.2201 -2.4484  0.9987
19785TIP3    H280771   2.639   4.071  16.844  0.6598  2.2575 -1.6556
19786TIP3   OH280772   3.999   0.451  15.468 -0.0937  0.0451 -0.3539
19786TIP3    H180773   3.931   0.505  15.428 -0.0897  0.1057 -0.2796
19786TIP3    H280774   3.952   0.400  15.535  0.6442  3.8817  3.5529
19787TIP3   OH280775   6.430   2.923   0.566 -0.4169  0.4590 -0.1389
19787TIP3    H180776   6.432   2.951   0.474  1.9246 -0.1543 -0.3528
19787TIP3    H280777   6.485   2.987   0.612  1.7708 -1.3833  0.0343
19788TIP3   OH280778   4.440   2.152  12.383 -0.0521 -0.4240  0.1225
19788TIP3    H180779   4.388   2.225  12.416  0.1897 -0.3683  0.3920
19788TIP3    H280780   4.482   2.186  12.304  0.6579 -0.0102  0.6532
19789TIP3   OH280781   5.819   4.793   1.561 -0.3205  0.5932  0.6461
19789TIP3    H180782   5.774   4.863   1.607  1.1805  0.8575  1.7871
19789TIP3    H280783   5.779   4.712   1.594 -0.5615  0.8466  0.9728
19790TIP3   OH280784   1.195   3.286   1.701  0.0632 -0.1104  0.4781
19790TIP3    H180785   1.119   3.344   1.691 -0.7329 -1.2186 -0.2149
19790TIP3    H280786   1.243   3.320   1.776 -1.6553  0.0609  1.5444
19791TIP3   OH280787   6.547   5.741  16.594  0.2084  0.4964 -0.0118
19791TIP3    H180788   6.542   5.649  16.571 -0.2069  0.4693  0.1885
19791TIP3    H280789   6.529   5.744  16.688  2.5435  0.5277  0.5080
19792TIP3   OH280790   3.913   5.270  12.387  0.4000  0.6155  0.5217
19792TIP3    H180791   3.876   5.283  12.300 -0.2646 -0.2547  0.6562
19792TIP3    H280792   3.944   5.180  12.386  3.5435  1.5725  0.0780
19793TIP3   OH280793   1.734   4.884  13.331  0.2748 -0.4734  0.6226
19793TIP3    H180794   1.796   4.830  13.283 -0.8602  0.6034 -2.2531
19793TIP3    H280795   1.758   4.974  13.310 -1.3668 -0.0068  0.5775
19794TIP3   OH280796   1.128   2.940   2.244  0.3810  0.5637  0.0719
19794TIP3    H180797   1.170   3.017   2.205 -0.6786  0.4643 -1.3318
19794TIP3    H280798   1.172   2.866   2.203  0.6083  0.4316  0.5532
19795TIP3   OH280799   0.650   6.755  13.952  0.4839  0.4992  0.3693
19795TIP3    H180800   0.574   6.705  13.924  0.6256  0.7008 -0.3956
19795TIP3    H280801   0.692   6.783  13.871  1.7377 -0.1605  0.7629
19796TIP3   OH280802   6.753   6.022  12.847 -0.3986  0.1532  1.2148
19796TIP3    H180803   6.764   5.953  12.783  0.0870 -1.1701  2.6567
19796TIP3    H280804   6.661   6.017  12.873 -1.1191  1.9908 -0.7330
19797TIP3   OH280805   6.779   2.994   3.017 -0.1011  0.4970  0.0013
19797TIP3    H180806   6.791   2.999   3.112 -0.9168 -0.2089  0.1587
19797TIP3    H280807   6.779   2.900   2.998  1.0072  0.6562 -0.8379
19798TIP3   OH280808   4.993   2.752  12.176 -0.1349  0.3017  0.5192
19798TIP3    H180809   5.033   2.809  12.110  0.9436 -0.8451  0.1327
19798TIP3    H280810   5.059   2.684  12.191 -1.4674 -0.9662  0.7948
19799TIP3   OH280811   1.682   1.119  16.587 -0.1593  0.8112  0.1021
19799TIP3    H180812   1.717   1.208  16.596  0.2899  0.7341 -0.7896
19799TIP3    H280813   1.738   1.078  16.521  0.8264 -0.7506  1.8279
19800TIP3   OH280814   1.229   2.872  12.896  0.4713 -0.1657 -0.1079
19800TIP3    H180815   1.139   2.898  12.877  0.3470  0.1401  0.8389
19800TIP3    H280816   1.280   2.909  12.824 -0.1283 -0.1634 -0.5405
19801TIP3   OH280817   4.488   0.510   3.104 -0.2235 -0.4708  0.1339
19801TIP3    H180818   4.401   0.486   3.072 -0.2520  0.7783 -0.8008
19801TIP3    H280819   4.495   0.466   3.189 -1.4490 -1.2144 -0.1222
19802TIP3   OH280820   1.130   2.360  14.716  0.0582  0.1439 -0.1015
19802TIP3    H180821   1.138   2.275  14.759 -2.3726  0.5567  1.3275
19802TIP3    H280822   1.074   2.344  14.640  0.7725  0.2345 -0.6612
19803TIP3   OH280823   0.209   2.559  10.908  0.3939  0.1841  0.3212
19803TIP3    H180824   0.299   2.563  10.942  0.8110 -0.6567 -0.6541
19803TIP3    H280825   0.155   2.593  10.980  1.4609  0.4500  1.0181
19804TIP3   OH280826   4.575   4.558  17.135  0.7100  0.4553 -0.1511
19804TIP3    H180827   4.578   4.563  17.231 -0.5308  1.6657 -0.1419
19804TIP3    H280828   4.654   4.603  17.106  0.3626  1.3672  0.2983
19805TIP3   OH280829   6.261   1.418   1.707 -0.0481 -0.1499  0.4779
19805TIP3    H180830   6.254   1.444   1.616 -1.0760  0.7596  0.7920
19805TIP3    H280831   6.273   1.324   1.705 -0.9304 -0.2532 -0.5812
19806TIP3   OH280832   6.746   2.943  11.636  0.2043 -0.1358 -0.1436
19806TIP3    H180833   6.662   2.926  11.677  0.8813  0.3644  1.5248
19806TIP3    H280834   6.791   2.859  11.636  1.0603  0.2258  2.2862
19807TIP3   OH280835   1.345   2.963  11.742  0.2808 -0.2055 -0.4983
19807TIP3    H180836   1.286   2.888  11.751 -1.1321  1.0182  0.9803
19807TIP3    H280837   1.392   2.967  11.825 -1.3688  1.8667  0.4313
19808TIP3   OH280838   2.219   5.554   2.619 -0.2033  0.3315 -0.6208
19808TIP3    H180839   2.248   5.629   2.671  0.0352 -1.0615  1.3698
19808TIP3    H280840   2.294   5.495   2.619 -0.5419 -0.1254 -1.7717
19809TIP3   OH280841   1.523   6.161   5.657 -0.1131 -0.4356 -0.4652
19809TIP3    H180842   1.450   6.220   5.640 -0.2932 -0.8452 -1.2054
19809TIP3    H280843   1.494   6.107   5.731 -0.3108 -0.1884 -0.3623
19810TIP3   OH280844   0.969   2.884   1.160 -0.2312 -0.1665 -0.6393
19810TIP3    H180845   0.878   2.910   1.143  0.0212  0.5080 -1.0135
19810TIP3    H280846   0.994   2.833   1.084 -1.0009 -2.3616  0.4731
19811TIP3   OH280847   4.326   0.349   6.689 -0.1932  0.4451 -0.1094
19811TIP3    H180848   4.275   0.272   6.666 -2.0874  0.9234  2.0508
19811TIP3    H280849   4.408   0.340   6.642 -0.2822 -2.9767  0.1976
19812TIP3   OH280850   4.861   1.576   5.365  0.7012  0.0234  0.4461
19812TIP3    H180851   4.902   1.636   5.427  0.5268  0.0207  0.5665
19812TIP3    H280852   4.805   1.632   5.311  1.4629  0.1437 -0.2404
19813TIP3   OH280853   0.110   2.287   2.173 -0.3289 -0.2382  0.2283
19813TIP3    H180854   0.063   2.338   2.107  0.2346  0.6112  0.4676
19813TIP3    H280855   0.043   2.231   2.212 -0.7615 -0.4030 -0.7259
19814TIP3   OH280856   5.868   2.457   0.331 -0.1219  0.1331 -0.4887
19814TIP3    H180857   5.834   2.497   0.411 -0.0824  0.4618 -0.6366
19814TIP3    H280858   5.947   2.411   0.358 -0.8644 -0.9537 -0.0622
19815TIP3   OH280859   5.252   2.632   0.437 -0.0727 -0.4138  0.5143
19815TIP3    H180860   5.186   2.632   0.368  1.5647 -0.5590 -1.1191
19815TIP3    H280861   5.256   2.541   0.467  1.9292 -1.2431 -1.9929
19816TIP3   OH280862   1.044   0.636   1.024  0.3884 -0.2631  0.0984
19816TIP3    H180863   1.007   0.645   1.112 -0.6603  1.8874 -0.4889
19816TIP3    H280864   1.003   0.557   0.989 -0.1199 -0.4620  1.0926
19817TIP3   OH280865   2.175   4.423  11.603 -0.3224  0.7123 -0.1627
19817TIP3    H180866   2.254   4.371  11.621 -1.9069 -1.4725  0.8375
19817TIP3    H280867   2.187   4.503  11.655  1.1434  0.3788  0.0743
19818TIP3   OH280868   2.490   4.591  16.223 -0.3643 -0.5590 -0.4001
19818TIP3    H180869   2.580   4.561  16.212  0.1082  1.0673 -1.2147
19818TIP3    H280870   2.474   4.580  16.317 -0.0423 -2.7195 -0.5451
19819TIP3   OH280871   3.379   4.287   5.158 -0.1704 -0.0265 -0.5139
19819TIP3    H180872   3.468   4.270   5.126 -0.3574  0.9253 -1.6056
19819TIP3    H280873   3.322   4.241   5.096 -0.4561 -0.4909  0.0834
19820TIP3   OH280874   4.626   2.514  12.704  0.5608  0.6120  0.4273
19820TIP3    H180875   4.721   2.511  12.715  0.7993 -0.7054 -1.4670
19820TIP3    H280876   4.606   2.438  12.648 -1.4784  1.4286 -0.0370
19821TIP3   OH280877   6.702   1.764  13.886  0.2608 -0.4938 -0.1466
19821TIP3    H180878   6.614   1.768  13.923 -0.4137 -0.1577 -1.7047
19821TIP3    H280879   6.706   1.680  13.840  0.2124  0.1303 -1.3257
19822TIP3   OH280880   4.760   1.346   5.262  0.5694  0.2863 -0.4331
19822TIP3    H180881   4.808   1.428   5.272  1.8280 -0.1690 -2.1947
19822TIP3    H280882   4.811   1.296   5.197  0.5355 -2.4075  1.4241
19823TIP3   OH280883   3.659   5.712  12.238  0.7193 -0.3837  0.0438
19823TIP3    H180884   3.714   5.769  12.292  0.9090  0.7429 -1.2951
19823TIP3    H280885   3.571   5.722  12.275  0.7763  0.6860 -0.0844
19824TIP3   OH280886   1.219   6.701   5.042  0.3338 -0.3108  0.1351
19824TIP3    H180887   1.130   6.712   5.009 -0.2563 -0.1244  1.6796
19824TIP3    H280888   1.224   6.760   5.118  3.0597  2.7210 -2.1228
19825TIP3   OH280889   5.456   3.459   4.620 -0.1602  0.1621 -0.2505
19825TIP3    H180890   5.477   3.366   4.611  1.3715  0.6162 -1.9537
19825TIP3    H280891   5.397   3.462   4.696  1.4788 -1.9385  1.2684
19826TIP3   OH280892   5.274   4.837  13.095  0.8030 -0.1320  0.6188
19826TIP3    H180893   5.326   4.798  13.025  0.7029 -0.0691  0.5113
19826TIP3    H280894   5.279   4.931  13.080  0.5320 -0.1333  0.5206
19827TIP3   OH280895   3.459   5.464  16.946  0.7043 -0.2188 -0.1464
19827TIP3    H180896   3.531   5.450  16.885  0.6541  0.2026 -0.3053
19827TIP3    H280897   3.412   5.539  16.911  0.9314  0.3080  0.6421
19828TIP3   OH280898   1.242   1.527  15.400  0.0832 -0.4733 -0.4593
19828TIP3    H180899   1.335   1.539  15.378 -0.1358 -0.5432 -1.4469
19828TIP3    H280900   1.231   1.432  15.406  0.2407 -0.4431  0.4239
19829TIP3   OH280901   5.342   3.725   3.768  0.1919  0.2510  0.3828
19829TIP3    H180902   5.321   3.786   3.839 -0.5394  0.7114 -0.2149
19829TIP3    H280903   5.310   3.640   3.799 -0.2291  0.4713  0.5644
19830TIP3   OH280904   5.399   1.415  15.806  0.2675  0.2472 -0.4722
19830TIP3    H180905   5.364   1.365  15.880  1.2432 -0.7176 -0.6387
19830TIP3    H280906   5.373   1.505  15.824 -0.4740 -0.1328  0.4724
19831TIP3   OH280907   4.759   6.394  16.230  0.0087 -0.0957  0.0491
19831TIP3    H180908   4.835   6.420  16.178  0.4320 -0.3728  0.5139
19831TIP3    H280909   4.723   6.318  16.183  0.1874 -0.1372 -0.0242
19832TIP3   OH280910   2.238   6.479   2.819  0.1495 -0.0502  0.8154
19832TIP3    H180911   2.286   6.471   2.737 -1.0812 -0.5518  0.1246
19832TIP3    H280912   2.148   6.458   2.797 -0.3982  0.7859  2.0977
19833TIP3   OH280913   4.231   2.430  12.781  0.0568  0.4402 -0.1510
19833TIP3    H180914   4.192   2.343  12.788  3.5584 -1.3691 -0.6065
19833TIP3    H280915   4.259   2.451  12.870  0.4496  0.4437 -0.2733
19834TIP3   OH280916   3.370   5.039  15.433 -0.0545  0.0014 -0.0723
19834TIP3    H180917   3.353   4.963  15.377 -0.7261 -1.6720  2.2647
19834TIP3    H280918   3.321   5.021  15.513  2.4447  1.2922  1.8690
19835TIP3   OH280919   1.371   0.359  16.265  0.3857  0.6459  0.1653
19835TIP3    H180920   1.279   0.338  16.279  0.3476  1.2317  0.8696
19835TIP3    H280921   1.418   0.313  16.335  0.5841  0.6943  0.0664
19836TIP3   OH280922   4.332   6.654  14.987 -0.7844 -0.3479  0.1174
19836TIP3    H180923   4.293   6.604  15.059 -0.5366 -1.0648 -0.2283
19836TIP3    H280924   4.387   6.720  15.030 -1.8718  0.2649  0.5961
19837TIP3   OH280925   3.414   4.527   2.811 -0.2204  0.0606 -0.1651
19837TIP3    H180926   3.486   4.565   2.761 -0.2551  0.8180  0.3540
19837TIP3    H280927   3.450   4.445   2.844  1.1251  1.3557  1.7803
19838TIP3   OH280928   2.029   5.098  10.640 -0.2406 -0.3470 -0.8672
19838TIP3    H180929   1.977   5.049  10.577  0.3042 -0.9742 -0.8401
19838TIP3    H280930   2.085   5.032  10.682 -0.2566  0.1310 -0.0692
19839TIP3   OH280931   4.977   0.575   4.989  0.5003 -0.6049  0.6260
19839TIP3    H180932   5.023   0.509   4.937 -0.6527 -0.7832 -0.1889
19839TIP3    H280933   4.900   0.530   5.023 -0.1324  0.2282  0.3286
19840TIP3   OH280934   0.979   0.233   6.175  0.4583 -0.3108  0.0159
19840TIP3    H180935   0.899   0.232   6.228  1.7151 -1.0295  2.0120
19840TIP3    H280936   0.991   0.325   6.152 -0.8251 -0.1700 -0.1519
19841TIP3   OH280937   6.779   1.434  10.928 -0.1802  0.5106  0.1311
19841TIP3    H180938   6.713   1.368  10.950 -1.2661  1.0958 -1.2068
19841TIP3    H280939   6.740   1.517  10.955 -0.1284  0.8915 -0.9031
19842TIP3   OH280940   0.662   4.026   2.620 -0.2313  0.1428 -0.1570
19842TIP3    H180941   0.645   3.943   2.664 -2.7565  0.4974 -0.3049
19842TIP3    H280942   0.740   4.060   2.663 -1.3752 -0.5110  2.6489
19843TIP3   OH280943   3.380   5.844   4.993  0.7038 -0.1222  0.4095
19843TIP3    H180944   3.346   5.903   4.926 -0.2244 -1.8339 -0.7037
19843TIP3    H280945   3.343   5.759   4.970  1.1386 -0.9450  2.5675
19844TIP3   OH280946   2.667   0.262  14.811 -0.4945 -0.0333  0.0542
19844TIP3    H180947   2.623   0.312  14.742  0.3801 -0.2154 -0.6644
19844TIP3    H280948   2.682   0.176  14.771  0.9914  0.1977  0.0668
19845TIP3   OH280949   2.466   2.438  16.947 -0.4268  0.3968 -0.7369
19845TIP3    H180950   2.561   2.449  16.945 -0.4359  0.4293 -1.6330
19845TIP3    H280951   2.448   2.394  17.030  0.3403  0.6442 -0.4341
19846TIP3   OH280952   2.393   5.937  13.881  0.3939  0.6943 -0.0691
19846TIP3    H180953   2.412   5.969  13.793  0.0380  0.0473 -0.3839
19846TIP3    H280954   2.328   5.999  13.915 -0.2586  0.3496 -0.6621
19847TIP3   OH280955   1.683   1.612  12.453 -0.2195  0.0655 -0.1318
19847TIP3    H180956   1.776   1.590  12.452  0.2228  1.7907 -0.2078
19847TIP3    H280957   1.642   1.540  12.500  1.2692 -0.3029  0.6633
19848TIP3   OH280958   1.437   2.426   1.532 -0.2627  0.1464  0.1318
19848TIP3    H180959   1.518   2.452   1.575  0.4744 -0.2538 -0.9915
19848TIP3    H280960   1.435   2.476   1.451  0.1957 -1.7758 -1.1272
19849TIP3   OH280961   3.938   3.722  16.678 -0.2036  0.1725  0.6228
19849TIP3    H180962   3.858   3.671  16.685  1.1182 -1.8807  1.7937
19849TIP3    H280963   3.951   3.735  16.584 -0.7107 -1.5032  0.2926
19850TIP3   OH280964   3.499   5.688  11.989  0.5517  0.0037 -0.6444
19850TIP3    H180965   3.547   5.751  12.043 -1.1906  1.6653 -0.9093
19850TIP3    H280966   3.565   5.625  11.961  1.6756 -0.5851  2.8620
19851TIP3   OH280967   2.072   2.827   5.935 -0.0752 -0.1027 -0.1130
19851TIP3    H180968   2.013   2.883   5.985 -0.4194 -0.4380 -0.1416
19851TIP3    H280969   2.073   2.865   5.848 -0.0529  0.0486 -0.0473
19852TIP3   OH280970   2.504   2.956  11.433  0.1608 -0.4524  0.0466
19852TIP3    H180971   2.450   2.971  11.355  0.2344  0.8364  0.2189
19852TIP3    H280972   2.508   2.861  11.441 -2.8691 -0.6247  0.6043
19853TIP3   OH280973   3.956   1.815   3.059  0.3907  0.1563  0.1368
19853TIP3    H180974   4.037   1.773   3.086 -0.6461 -2.0106  0.1428
19853TIP3    H280975   3.978   1.863   2.980  1.8386  0.3190  0.6112
19854TIP3   OH280976   0.228   3.805   5.744 -0.4916 -0.1716 -0.6012
19854TIP3    H180977   0.191   3.720   5.721 -2.3675  1.1374 -2.7942
19854TIP3    H280978   0.208   3.815   5.837 -1.1954 -1.6523 -0.5654
19855TIP3   OH280979   1.690   1.057   1.657 -0.0490  0.4190 -0.1731
19855TIP3    H180980   1.697   0.972   1.613 -0.7540  0.3743 -0.2178
19855TIP3    H280981   1.775   1.099   1.642  0.7269 -0.7194  0.8191
19856TIP3   OH280982   1.615   1.706  16.724 -0.7681  0.3509 -0.1330
19856TIP3    H180983   1.542   1.666  16.677 -0.1944 -0.7792 -0.0948
19856TIP3    H280984   1.625   1.793  16.684 -0.4840 -0.4735 -1.9058
19857TIP3   OH280985   0.238   4.166   4.000 -0.1062  0.7267  0.1871
19857TIP3    H180986   0.231   4.099   4.068 -1.5694  0.3693 -0.2859
19857TIP3    H280987   0.214   4.248   4.044  1.1821  0.8819  0.6387
19858TIP3   OH280988   5.771   1.529   3.427 -0.0609 -0.2976 -0.2893
19858TIP3    H180989   5.806   1.455   3.477  0.5365 -1.6051 -2.5282
19858TIP3    H280990   5.700   1.491   3.375  0.4464  0.6395 -1.7016
19859TIP3   OH280991   3.774   4.318   2.667  0.7050 -0.8795  0.1043
19859TIP3    H180992   3.772   4.248   2.731  2.1098  0.1310  1.3192
19859TIP3    H280993   3.866   4.324   2.640  0.9972  1.5876  1.3627
19860TIP3   OH280994   6.115   4.431  12.434  0.0302 -0.3319 -0.2161
19860TIP3    H180995   6.200   4.474  12.440 -0.7189  1.3301 -0.7868
19860TIP3    H280996   6.091   4.439  12.341 -1.4647  0.7570  0.2193
19861TIP3   OH280997   3.224   3.101   1.698  0.5606  0.5565  0.6404
19861TIP3    H180998   3.257   3.079   1.611  1.0003 -0.7879  1.1290
19861TIP3    H280999   3.219   3.018   1.744  0.7545  1.2907  2.0522
19862TIP3   OH281000   0.461   3.860   2.013 -0.7303  0.1231 -0.2733
19862TIP3    H181001   0.416   3.930   1.965 -1.5609 -0.4150 -0.3059
19862TIP3    H281002   0.515   3.817   1.947 -0.4871  0.5175 -0.3321
19863TIP3   OH281003   4.129   2.933   3.917  0.0900 -0.1744 -0.1564
19863TIP3    H181004   4.096   2.939   3.828  1.5709  1.2527 -0.6550
19863TIP3    H281005   4.222   2.956   3.910  0.5073 -1.0991  1.6010
19864TIP3   OH281006   6.254   3.158   5.094  0.0851  0.0800  0.1318
19864TIP3    H181007   6.208   3.083   5.131  1.4292 -0.2994  1.1124
19864TIP3    H281008   6.339   3.124   5.068  0.2443  1.0032 -0.6076
19865TIP3   OH281009   3.774   1.757  15.929  0.1526  0.2014  0.5643
19865TIP3    H181010   3.705   1.730  15.990 -0.0380  0.8882  0.6560
19865TIP3    H281011   3.835   1.808  15.982  0.9660 -0.7434  0.5757
19866TIP3   OH281012   4.245   1.950  11.429  0.4058  0.6513  0.0308
19866TIP3    H181013   4.200   2.033  11.445  0.9796  0.7701  1.0953
19866TIP3    H281014   4.182   1.883  11.455  0.1168  0.7620 -0.3788
19867TIP3   OH281015   4.942   4.444   5.400 -0.2405 -0.3651 -0.2151
19867TIP3    H181016   4.972   4.517   5.346 -1.2470  1.3244  1.4103
19867TIP3    H281017   5.020   4.414   5.446 -0.2522  1.5904  1.2175
19868TIP3   OH281018   5.998   3.546  15.308 -0.0577  0.3814  0.3787
19868TIP3    H181019   6.073   3.599  15.282  2.0223 -2.0110  1.0819
19868TIP3    H281020   5.922   3.589  15.268  1.9076  1.7229 -2.1568
19869TIP3   OH281021   1.141   0.005  11.521 -0.4546  0.1714 -0.5903
19869TIP3    H181022   1.119  -0.014  11.430  0.4145 -1.0397 -0.5692
19869TIP3    H281023   1.090  -0.058  11.572 -0.6036  0.5577 -0.2528
19870TIP3   OH281024   2.890   4.996   4.178  0.1613 -0.7687  0.3893
19870TIP3    H181025   2.907   4.910   4.140 -1.4435 -0.6541 -0.6566
19870TIP3    H281026   2.795   5.004   4.181  0.2686  0.9257  0.5621
19871TIP3   OH281027   0.021   4.770   5.632 -0.0135 -0.2145  0.1408
19871TIP3    H181028   0.004   4.695   5.574  1.4552 -0.6483  0.2278
19871TIP3    H281029   0.112   4.793   5.615  0.5985 -0.5867  2.5143
19872TIP3   OH281030   5.912   3.697  13.115  0.6659 -0.1467 -0.2013
19872TIP3    H181031   5.982   3.736  13.168 -0.6482  0.9905  0.7682
19872TIP3    H281032   5.948   3.613  13.087  3.0467  1.0700 -1.1264
19873TIP3   OH281033   6.466   5.674  16.853 -0.3305  0.5670  0.3348
19873TIP3    H181034   6.508   5.681  16.938  0.3667 -1.1535  0.1631
19873TIP3    H281035   6.414   5.594  16.858  1.7870 -1.0832 -1.6478
19874TIP3   OH281036   4.213   5.828  12.074 -0.1106 -0.2949  0.1038
19874TIP3    H181037   4.142   5.832  12.137 -1.4582  0.4395 -1.3729
19874TIP3    H281038   4.184   5.765  12.008 -0.5875  1.7370 -1.7815
19875TIP3   OH281039   0.010   3.316   2.699  0.0535  0.5657 -0.1689
19875TIP3    H181040   0.084   3.258   2.715 -0.1496  0.4419  0.3532
19875TIP3    H281041   0.018   3.342   2.607 -0.1790 -0.7434 -0.5711
19876TIP3   OH281042   2.361   4.565   3.248  0.1100  0.0044  0.4742
19876TIP3    H181043   2.423   4.584   3.318 -0.0325  1.1132  0.3087
19876TIP3    H281044   2.356   4.646   3.197 -0.7943 -0.3606 -0.0406
19877TIP3   OH281045   2.101   1.198  16.149  0.3522  0.5474  0.2838
19877TIP3    H181046   2.044   1.127  16.120 -0.0850  0.3190  1.6324
19877TIP3    H281047   2.162   1.156  16.210  1.4440  0.9525 -0.4971
19878TIP3   OH281048   5.298   2.935   2.873  0.0921 -0.1588  0.5494
19878TIP3    H181049   5.297   2.893   2.959 -0.9980 -0.3079  0.4849
19878TIP3    H281050   5.325   2.866   2.813  0.5858 -0.1299  0.7380
19879TIP3   OH281051   4.027   2.092   1.641 -0.5044 -0.1968 -0.0394
19879TIP3    H181052   3.948   2.123   1.598 -0.3846 -0.3164 -0.3448
19879TIP3    H281053   4.099   2.120   1.584 -0.4791 -2.8279 -1.4566
19880TIP3   OH281054   5.539   1.262   1.995 -0.3490  0.1558  0.9508
19880TIP3    H181055   5.456   1.236   2.034 -2.1021  2.1660 -1.1677
19880TIP3    H281056   5.516   1.325   1.927  2.6309 -1.4560 -1.8778
19881TIP3   OH281057   5.677   5.161   1.251  0.0916  0.1931 -0.3930
19881TIP3    H181058   5.713   5.248   1.232 -0.3977  1.0623  2.1632
19881TIP3    H281059   5.750   5.114   1.291 -0.0232 -0.0806 -0.5062
19882TIP3   OH281060   0.701   6.515  16.022 -0.5262  0.5310 -0.0947
19882TIP3    H181061   0.765   6.584  16.004 -0.7915  1.1175  1.0872
19882TIP3    H281062   0.753   6.435  16.023  0.3907  1.0711  1.6269
19883TIP3   OH281063   1.021   0.534  11.704 -0.0578  0.7006  0.0327
19883TIP3    H181064   1.010   0.616  11.655 -1.2788  1.2303  1.1353
19883TIP3    H281065   0.946   0.481  11.678  0.3035  0.2362 -0.0759
19884TIP3   OH281066   4.850   4.489  12.118 -0.4825  0.1198 -0.6906
19884TIP3    H181067   4.882   4.579  12.127  1.2778 -0.5256  0.0031
19884TIP3    H281068   4.825   4.482  12.026  0.9621  0.8629 -1.1870
19885TIP3   OH281069   6.084   4.929  10.592  0.0047 -0.0836 -0.4490
19885TIP3    H181070   6.000   4.897  10.558 -0.2522 -1.3140  1.1905
19885TIP3    H281071   6.134   4.849  10.609  0.7299  0.5467  0.4666
19886TIP3   OH281072   6.337   0.630  14.793  0.0022  0.5216  0.5517
19886TIP3    H181073   6.359   0.567  14.862 -0.7870 -0.2756  0.0960
19886TIP3    H281074   6.409   0.623  14.730  0.0812  0.3076  0.6652
19887TIP3   OH281075   1.567   2.108  15.035 -0.0372 -0.1797  0.0554
19887TIP3    H181076   1.594   2.121  15.126  0.3424 -0.7417  0.0282
19887TIP3    H281077   1.648   2.086  14.989 -0.5576 -2.1638  0.0219
19888TIP3   OH281078   6.233   2.003   4.232  0.3050  0.7961  0.0985
19888TIP3    H181079   6.174   2.070   4.268  1.2785  2.0653 -0.5687
19888TIP3    H281080   6.299   1.991   4.300 -1.2611 -1.4922  1.3587
19889TIP3   OH281081   1.664   0.237  15.804  0.1249 -0.1831 -0.1932
19889TIP3    H181082   1.758   0.242  15.822 -0.1819  1.4583  1.1310
19889TIP3    H281083   1.650   0.294  15.729 -0.1850  1.9352  1.3979
19890TIP3   OH281084   1.533   6.415   0.724 -0.1397  0.1631 -0.0824
19890TIP3    H181085   1.606   6.421   0.662  2.3969  0.3844  2.7046
19890TIP3    H281086   1.496   6.503   0.725 -0.2632  0.1437 -1.2942
19891TIP3   OH281087   6.498   5.905   5.626  0.3188 -0.5683 -0.2603
19891TIP3    H181088   6.461   5.993   5.626  1.5021 -0.0443  0.3787
19891TIP3    H281089   6.427   5.849   5.594 -0.5088  0.5838 -0.5082
19892TIP3   OH281090   4.066   4.473  15.422 -0.2750  0.2249 -0.5137
19892TIP3    H181091   4.024   4.390  15.446 -1.0300  1.0881  1.3926
19892TIP3    H281092   4.013   4.507  15.350 -2.6945  1.0491  1.5084
19893TIP3   OH281093   6.243   5.298   2.820 -0.2824  0.7504  0.2142
19893TIP3    H181094   6.177   5.260   2.878  0.2193 -0.2206  0.1639
19893TIP3    H281095   6.195   5.364   2.770 -1.9863 -1.8543 -1.8852
19894TIP3   OH281096   4.138   5.588  14.176 -0.0104  0.1170 -0.0367
19894TIP3    H181097   4.131   5.659  14.239 -0.0868  0.8974 -0.8933
19894TIP3    H281098   4.061   5.598  14.120  0.6564  0.1829 -0.9701
19895TIP3   OH281099   6.506   3.613   5.611  0.0038  0.4957  0.6127
19895TIP3    H181100   6.462   3.695   5.587 -0.9171  0.0800  0.8368
19895TIP3    H281101   6.479   3.551   5.543  0.8894  0.4313  0.3136
19896TIP3   OH281102   0.875   1.682   3.138  0.7064 -0.5377 -0.3515
19896TIP3    H181103   0.965   1.650   3.131  0.5251 -1.8984  2.0904
19896TIP3    H281104   0.884   1.774   3.162  1.6172 -1.2084  2.2623
19897TIP3   OH281105   3.123   4.649  13.559  0.3183 -0.1254 -0.2513
19897TIP3    H181106   3.140   4.724  13.616 -0.5769 -0.6270  0.7071
19897TIP3    H281107   3.208   4.606  13.548  1.4242  2.3929 -2.9058
19898TIP3   OH281108   0.768   6.761  11.387 -0.1380 -0.5746 -0.1781
19898TIP3    H181109   0.826   6.834  11.408 -1.8500  0.6501  0.6385
19898TIP3    H281110   0.737   6.780  11.299  0.0393 -0.7568 -0.2801
19899TIP3   OH281111   3.480   5.169  11.490  0.2132  0.2560 -0.3179
19899TIP3    H181112   3.413   5.106  11.519 -1.1969  1.6055 -0.5157
19899TIP3    H281113   3.549   5.114  11.454 -0.7541 -1.2116 -0.0601
19900TIP3   OH281114   3.661   2.502   2.532 -0.1597  0.0189  0.0063
19900TIP3    H181115   3.705   2.525   2.450  0.0177 -0.5703 -0.0728
19900TIP3    H281116   3.631   2.412   2.518  0.4950 -0.3472  0.8404
19901TIP3   OH281117   2.704   0.969   5.286 -0.4573  0.0038  0.1428
19901TIP3    H181118   2.731   0.922   5.208 -0.8672  0.7444 -0.4582
19901TIP3    H281119   2.746   1.055   5.278 -0.1615 -0.0522  0.9504
19902TIP3   OH281120   3.468   2.785   5.520  0.0997 -0.1116  0.4821
19902TIP3    H181121   3.446   2.796   5.428  2.6298 -0.4711 -0.2380
19902TIP3    H281122   3.532   2.715   5.521  0.3058  0.0508  2.5112
19903TIP3   OH281123   3.242   1.701   4.265  0.4004  0.2729 -0.0449
19903TIP3    H181124   3.220   1.748   4.185 -1.2788 -0.5844 -0.1298
19903TIP3    H281125   3.308   1.756   4.308 -0.0721  1.7041 -1.0855
19904TIP3   OH281126   0.524   5.426   2.632  0.6646  0.0320  0.0600
19904TIP3    H181127   0.464   5.481   2.683 -0.9036 -0.8641 -0.7664
19904TIP3    H281128   0.572   5.487   2.577  0.4605  0.7610  0.6746
19905TIP3   OH281129   6.080   0.276   5.453  0.5655 -0.1190 -0.0247
19905TIP3    H181130   6.014   0.334   5.491 -0.9173 -0.5582 -1.7855
19905TIP3    H281131   6.148   0.334   5.421 -0.5207  0.6182 -1.0525
19906TIP3   OH281132   1.359   3.202  11.589  0.5393 -0.0111 -0.4331
19906TIP3    H181133   1.290   3.180  11.526 -0.9772 -0.5140  1.2953
19906TIP3    H281134   1.364   3.125  11.646  2.1694  0.2449 -0.1921
19907TIP3   OH281135   5.546   0.313   3.560 -0.2999  0.7702  0.1714
19907TIP3    H181136   5.452   0.327   3.560 -0.1437  1.9083  0.2905
19907TIP3    H281137   5.571   0.319   3.467 -0.0604  2.7533  0.3135
19908TIP3   OH281138   6.063   0.917   1.713  0.0474 -0.2690 -0.6763
19908TIP3    H181139   6.107   0.835   1.689 -0.3095 -0.7275  0.2169
19908TIP3    H281140   5.978   0.912   1.669 -0.2753 -0.7273 -0.0032
19909TIP3   OH281141   0.505   2.507  12.219  0.1735  0.5148 -0.4979
19909TIP3    H181142   0.559   2.519  12.141 -2.3069  0.5882 -2.3090
19909TIP3    H281143   0.502   2.593  12.260  0.7697  0.6942 -0.8271
19910TIP3   OH281144   1.547   5.771   2.528 -0.2216  0.4590 -0.0494
19910TIP3    H181145   1.595   5.694   2.498  0.0781  0.8703 -0.6462
19910TIP3    H281146   1.576   5.785   2.618  0.1790  0.2313 -0.1433
19911TIP3   OH281147   4.655   6.516   4.223 -0.6198  0.0694 -0.0316
19911TIP3    H181148   4.609   6.558   4.296  0.0584  1.6677 -0.4674
19911TIP3    H281149   4.744   6.550   4.229 -0.4561 -0.0979 -1.3625
19912TIP3   OH281150   5.394   3.538   3.166  0.3449  0.1050 -0.1643
19912TIP3    H181151   5.461   3.604   3.183 -0.2423  0.0649  2.8281
19912TIP3    H281152   5.435   3.455   3.189 -0.0939 -0.1476 -0.2808
19913TIP3   OH281153   6.515   1.050   0.101  0.1581  0.4927  0.1091
19913TIP3    H181154   6.574   0.974   0.098  0.1005  0.3714  1.3105
19913TIP3    H281155   6.435   1.021   0.059 -0.1869 -0.4285  1.3713
19914TIP3   OH281156   0.649   4.069  16.168 -0.2796  0.7017  0.6598
19914TIP3    H181157   0.707   4.014  16.221 -1.0204  0.1581  0.9219
19914TIP3    H281158   0.596   4.116  16.232 -0.7813  0.4727  0.4204
19915TIP3   OH281159   0.009   4.660   0.365 -0.3784 -0.0615 -0.7293
19915TIP3    H181160  -0.052   4.701   0.427  0.3590  2.2364 -1.4154
19915TIP3    H281161   0.094   4.700   0.384  0.3099 -0.9733 -1.7561
19916TIP3   OH281162   4.731   5.187  12.417 -0.3216  0.2451 -0.6142
19916TIP3    H181163   4.762   5.191  12.508 -0.3213 -0.6750 -0.5697
19916TIP3    H281164   4.639   5.214  12.423 -0.7813 -1.3426 -0.0915
19917TIP3   OH281165   6.474   0.011   6.074 -0.2265 -0.5688 -0.6466
19917TIP3    H181166   6.553   0.030   6.024  1.1693 -0.3684  1.4878
19917TIP3    H281167   6.405   0.003   6.009  1.4403 -0.1690 -2.5447
19918TIP3   OH281168   4.060   5.238  11.354  0.9263  0.0971 -0.4321
19918TIP3    H181169   4.111   5.219  11.433  0.5982 -1.3791 -0.5380
19918TIP3    H281170   4.025   5.326  11.368  1.5014  0.1618  0.7153
19919TIP3   OH281171   2.356   6.208   5.303  0.0252 -0.0516 -0.4453
19919TIP3    H181172   2.445   6.244   5.300  0.2162 -0.4748  0.0529
19919TIP3    H281173   2.301   6.280   5.273  0.5998 -0.0329 -1.5457
19920TIP3   OH281174   5.222   5.443  12.113 -0.0738  0.1357 -0.2122
19920TIP3    H181175   5.290   5.406  12.057 -0.1061  0.6811 -0.6243
19920TIP3    H281176   5.164   5.489  12.052 -1.0029 -0.5954  0.0866
19921TIP3   OH281177   0.632   1.618  15.578  0.3294 -0.7937 -0.5317
19921TIP3    H181178   0.684   1.540  15.558  0.4501 -0.8394 -0.0473
19921TIP3    H281179   0.685   1.691  15.546  1.5608 -0.6916  1.5824
19922TIP3   OH281180   4.684   5.310  15.281  0.6128 -0.5834  0.2873
19922TIP3    H181181   4.691   5.390  15.334  2.0115 -0.1606 -0.4562
19922TIP3    H281182   4.590   5.297  15.269  0.3474  0.8267  0.6270
19923TIP3   OH281183   1.382   1.866  14.373  0.2998 -0.8158 -0.4511
19923TIP3    H181184   1.338   1.948  14.397  1.7507 -0.2821  0.5422
19923TIP3    H281185   1.317   1.798  14.388 -0.6418  0.0708 -0.4051
19924TIP3   OH281186   2.409   6.713   1.245  0.2183 -0.2580 -0.1140
19924TIP3    H181187   2.332   6.665   1.214 -0.8876  0.1870  1.8357
19924TIP3    H281188   2.379   6.803   1.258  0.7388 -0.3046  1.7171
19925TIP3   OH281189   4.300   5.882   3.757 -0.6748 -0.4214 -0.2598
19925TIP3    H181190   4.320   5.887   3.663  0.9603 -0.0281  0.0716
19925TIP3    H281191   4.275   5.971   3.781 -0.5922 -0.4070 -0.2268
19926TIP3   OH281192   3.046   0.141   5.750  0.5582  0.1183 -0.5585
19926TIP3    H181193   3.009   0.138   5.839  0.5712 -0.5560 -0.5694
19926TIP3    H281194   3.128   0.190   5.759  0.2548  0.5901 -0.3159
19927TIP3   OH281195   1.249   6.343  16.518  0.9556  0.1428 -0.3888
19927TIP3    H181196   1.198   6.323  16.440  0.9544 -0.3632 -0.2642
19927TIP3    H281197   1.267   6.437  16.513  1.4816 -0.0025 -1.3058
19928TIP3   OH281198   0.064   0.034   3.898 -0.1413 -0.0001  0.2987
19928TIP3    H181199  -0.014  -0.004   3.858 -0.4893 -1.0234  1.8813
19928TIP3    H281200   0.119   0.059   3.823 -1.3149 -0.6584 -0.8201
19929TIP3   OH281201   6.276   0.979   4.808 -0.2008  0.2439  0.4177
19929TIP3    H181202   6.296   1.068   4.837  1.4616 -0.0199  0.1965
19929TIP3    H281203   6.360   0.933   4.812 -1.2230 -1.6569  1.6130
19930TIP3   OH281204   5.591   2.123  14.508  0.8680 -0.1106  0.3979
19930TIP3    H181205   5.550   2.078  14.434 -0.0144 -3.4981  2.6824
19930TIP3    H281206   5.649   2.058  14.547  1.2560  1.4864  2.7195
19931TIP3   OH281207   4.472   4.619   5.297 -0.6865  0.1126  0.2568
19931TIP3    H181208   4.477   4.642   5.390 -0.6782  0.1776  0.2409
19931TIP3    H281209   4.462   4.524   5.295  0.6209 -0.0473  0.3047
19932TIP3   OH281210   3.662   0.203  12.965  0.0619 -0.1214 -0.0265
19932TIP3    H181211   3.609   0.282  12.961  0.6001  0.2220 -0.4645
19932TIP3    H281212   3.752   0.234  12.973  0.1872 -0.7010  0.8906
19933TIP3   OH281213   4.907   1.293  10.562  0.0741  0.4585  0.4613
19933TIP3    H181214   4.855   1.238  10.620  0.9612 -1.6850 -0.6263
19933TIP3    H281215   4.855   1.299  10.482  1.0105 -0.9418 -0.3037
19934TIP3   OH281216   2.894   3.018   6.026  0.4638  0.3817  0.0155
19934TIP3    H181217   2.960   3.060   6.082  1.5442  0.5018 -1.2913
19934TIP3    H281218   2.892   3.073   5.948 -2.3827  1.2993  0.6240
19935TIP3   OH281219   1.777   3.686   1.170  0.0352  0.3444  0.1528
19935TIP3    H181220   1.763   3.740   1.248 -1.8268  0.3755 -0.1454
19935TIP3    H281221   1.700   3.629   1.167  2.1835 -2.8605  0.8067
19936TIP3   OH281222   2.985   4.192  13.100 -0.1150  0.1396 -0.0259
19936TIP3    H181223   3.072   4.227  13.079 -0.0817 -0.5673 -1.1864
19936TIP3    H281224   2.968   4.222  13.189  0.5341  1.8488 -0.4250
19937TIP3   OH281225   0.702   0.365  12.526  0.0352 -0.0941 -0.1198
19937TIP3    H181226   0.685   0.370  12.432  0.3653 -1.1336 -0.2476
19937TIP3    H281227   0.754   0.444  12.545  0.1403  0.0169 -0.8416
19938TIP3   OH281228   2.673   4.275  16.180 -0.5783  0.0098  0.1479
19938TIP3    H181229   2.682   4.180  16.178 -1.5203 -0.0900 -0.1150
19938TIP3    H281230   2.699   4.303  16.093 -1.1648 -0.1070 -0.0715
19939TIP3   OH281231   3.045   0.276  11.814  0.6126 -0.4174  0.6904
19939TIP3    H181232   3.033   0.352  11.871 -0.6403  0.0869 -0.2153
19939TIP3    H281233   2.963   0.227  11.820  1.5533 -2.0026  1.6227
19940TIP3   OH281234   1.201   0.012  15.345 -0.5722  0.0130 -0.1617
19940TIP3    H181235   1.156   0.026  15.262 -0.8963 -1.9422 -0.3778
19940TIP3    H281236   1.133   0.029  15.411 -0.8877 -0.3477 -0.3862
19941TIP3   OH281237   1.151   1.875  15.268  0.3820  0.2113  0.2401
19941TIP3    H181238   1.140   1.823  15.347 -1.6125 -1.0022 -0.7416
19941TIP3    H281239   1.240   1.857  15.239  0.3007 -1.3339  0.8661
19942TIP3   OH281240   2.052   3.590   1.814  0.1632 -0.6219 -0.0265
19942TIP3    H181241   2.120   3.635   1.864  1.3407 -2.5035  0.2066
19942TIP3    H281242   1.978   3.584   1.874 -1.3210  3.6512 -1.0848
19943TIP3   OH281243   5.600   5.551   2.169  0.8607 -0.3215  0.2390
19943TIP3    H181244   5.628   5.573   2.258 -0.4796 -0.7851  0.7955
19943TIP3    H281245   5.673   5.503   2.132  1.9906  1.0398  0.5998
19944TIP3   OH281246   3.805   3.359  15.990  0.2802 -0.4214  0.6107
19944TIP3    H181247   3.797   3.270  16.026 -4.1094 -0.5206 -0.1064
19944TIP3    H281248   3.798   3.416  16.066 -2.4749 -0.7302  0.6899
19945TIP3   OH281249   0.226   3.165  14.026 -0.1660  0.1653 -0.2397
19945TIP3    H181250   0.312   3.167  14.069 -0.0349  1.0046 -0.5171
19945TIP3    H281251   0.183   3.088  14.063 -0.5764  1.5602  2.4156
19946TIP3   OH281252   0.904   0.681   1.267  0.0383  0.0734 -0.2398
19946TIP3    H181253   0.827   0.635   1.234 -0.2703 -0.5234  1.2328
19946TIP3    H281254   0.869   0.759   1.310  0.3566  0.4007 -0.5661
19947TIP3   OH281255   6.085   1.894  12.704 -0.5286  0.2975  0.6178
19947TIP3    H181256   6.122   1.981  12.691 -2.9650  1.5041  1.1398
19947TIP3    H281257   6.085   1.854  12.617  1.4872  0.3821  0.5273
19948TIP3   OH281258   5.056   1.316   2.613 -0.0733 -0.3939  0.2629
19948TIP3    H181259   5.001   1.339   2.538 -0.9262  1.8859  1.5038
19948TIP3    H281260   4.994   1.301   2.684  0.8119  0.0897  1.1594
19949TIP3   OH281261   5.260   2.851  12.379  0.1574 -0.0180 -0.0138
19949TIP3    H181262   5.313   2.895  12.313  1.5015  0.7138  1.4785
19949TIP3    H281263   5.231   2.770  12.337  1.8907 -0.1114 -1.1224
19950TIP3   OH281264   5.821   4.504   1.064  0.3566  0.5430  0.1424
19950TIP3    H181265   5.789   4.561   1.134  0.2448 -1.3406  1.7055
19950TIP3    H281266   5.884   4.446   1.107 -1.4058 -2.1962 -0.7169
19951TIP3   OH281267   1.939   0.955  12.660 -0.2681 -0.2686 -0.0569
19951TIP3    H181268   1.929   1.050  12.670 -0.4378 -0.1408 -1.2180
19951TIP3    H281269   1.961   0.923  12.747 -0.5687  0.7949  0.4237
19952TIP3   OH281270   4.680   1.781   5.702  0.0059 -0.2621 -0.0200
19952TIP3    H181271   4.639   1.778   5.788  0.8160 -0.8968  0.3574
19952TIP3    H281272   4.772   1.757   5.718  1.3982  4.0944 -0.3377
19953TIP3   OH281273   6.027   1.894   1.283  0.5977  0.4367  0.2954
19953TIP3    H181274   5.996   1.909   1.372 -0.9982  0.0580 -0.1718
19953TIP3    H281275   5.959   1.929   1.227  1.5052  0.5189 -0.7932
19954TIP3   OH281276   4.827   4.213   2.154 -0.2827  0.4397 -0.1647
19954TIP3    H181277   4.852   4.151   2.222  2.6162  0.3902 -1.1228
19954TIP3    H281278   4.792   4.288   2.202  0.7536  0.0109  1.3479
19955LIG      O81279   5.314   2.129   6.434  0.5229 -0.5994 -0.4163
19955LIG      N81280   5.330   2.060   6.689 -0.6010 -0.1739 -0.3898
19955LIG     C181281   5.486   2.274   6.331 -0.1394  0.3418  0.0975
19955LIG     C281282   5.456   2.151   6.420  0.0749  0.1081  0.2346
19955LIG     C381283   5.633   2.332   6.321  0.6791  0.6191 -0.7287
19955LIG     C481284   5.430   2.271   6.184 -0.0458 -0.7166  0.3693
19955LIG     C581285   5.508   2.167   6.564  0.5182 -0.4054 -0.0143
19955LIG     C681286   5.655   2.462   6.249  0.0532  0.2584  0.0361
19955LIG     C781287   5.451   2.406   6.115  0.7356  0.0071  0.8727
19955LIG     C881288   5.598   2.453   6.110 -0.2330 -0.3799  0.3713
19955LIG     C981289   5.477   2.052   6.665  0.2448 -0.0294  0.0380
19955LIG    C1081290   5.516   2.029   6.340 -1.3301  0.7256 -0.7441
19955LIG    C1181291   5.264   1.934   6.702 -0.8901 -0.5671 -0.1265
19955LIG    C1281292   5.287   2.161   6.783 -0.2672 -0.3344 -0.2144
19955LIG    C1381293   5.297   1.875   6.842 -0.1597 -0.8108  0.6826
19955LIG    C1481294   5.314   2.113   6.932 -0.4212 -0.3748  0.1503
19955LIG    C1581295   5.265   1.972   6.958  0.3884  0.2286 -0.5946
19955LIG    C1681296   5.645   1.980   6.362  0.1564  0.3102  0.8611
19955LIG    C1781297   5.434   1.947   6.251 -0.6660 -0.2112  0.2408
19955LIG    C1881298   5.704   1.869   6.303  0.1628  0.2540  0.5629
19955LIG    C1981299   5.482   1.827   6.200 -0.0806  0.0875 -0.0280
19955LIG    C2081300   5.622   1.794   6.213 -0.2181 -0.1635 -0.7829
19955LIG     H181301   5.423   2.359   6.366 -0.4404  0.7621 -1.3897
19955LIG     H281302   5.708   2.255   6.291  1.5568  1.3430 -0.4660
19955LIG     H381303   5.670   2.355   6.424  0.2567 -0.1342 -0.3988
19955LIG     H481304   5.323   2.242   6.190 -1.0892  2.8820  2.7666
19955LIG     H581305   5.494   2.196   6.133  1.0049 -0.1999  0.8886
19955LIG     H681306   5.473   2.262   6.608  1.7692 -0.8104  1.9855
19955LIG     H781307   5.618   2.179   6.556  0.5148  0.4831  1.1593
19955LIG     H881308   5.761   2.495   6.239  0.2242 -0.8131 -2.4363
19955LIG     H981309   5.608   2.544   6.307 -0.2813  0.6814 -0.8199
19955LIG    H1081310   5.392   2.485   6.164 -0.9007 -1.1341  0.8122
19955LIG    H1181311   5.420   2.401   6.008  1.1559  0.8472  0.7055
19955LIG    H1281312   5.667   2.387   6.053 -1.5464 -1.5059  0.0336
19955LIG    H1381313   5.610   2.547   6.052 -0.0779  0.4011  1.6384
19955LIG    H1481314   5.497   1.952   6.621  1.5354  0.4278 -0.4736
19955LIG    H1581315   5.534   2.073   6.758  1.8273  1.9291 -1.2859
19955LIG    H1681316   5.298   1.854   6.632 -0.2355 -2.9177  2.6862
19955LIG    H1781317   5.156   1.959   6.694 -0.9472 -0.5967  0.5601
19955LIG    H1881318   5.179   2.172   6.758 -0.8199 -4.5331 -0.4536
19955LIG    H1981319   5.324   2.265   6.767 -0.4740 -0.0642  0.9858
19955LIG    H2081320   5.303   2.108   6.528  1.7354  1.3510  0.2108
19955LIG    H2181321   5.403   1.844   6.845  0.3944  1.0305  2.0529
19955LIG    H2281322   5.232   1.785   6.849 -3.4310  1.0536 -2.2192
19955LIG    H2381323   5.276   2.191   7.003  0.6983  1.5142 -1.2358
19955LIG    H2481324   5.424   2.106   6.940 -0.4093 -1.1471 -0.5877
19955LIG    H2581325   5.309   1.939   7.054  0.5788  1.6366 -0.1817
19955LIG    H2681326   5.156   1.977   6.978  0.7463 -0.0596  1.6728
19955LIG    H2781327   5.708   2.030   6.434  2.8898 -0.6289 -0.7384
19955LIG    H2881328   5.331   1.965   6.224  0.1377 -1.3138 -4.6526
19955LIG    H2981329   5.808   1.843   6.316 -0.5468 -2.4992  1.4097
19955LIG    H3081330   5.422   1.771   6.129  0.8574  0.1917 -0.9385
19955LIG    H3181331   5.660   1.708   6.159  1.1543  1.2821 -2.1978
   6.80661   6.80661  17.14586
