;;
;; Generated by CHARMM-GUI (http://www.charmm-gui.org) v1.7
;;
;; psf2itp_mol.py
;;
;; Correspondance:
;; jul316@lehigh.edu or wonpil@lehigh.edu
;;
;; GROMACS topology file for LIG
;;


[ moleculetype ]
; name	nrexcl
LIG	     3

[ atoms ]
; nr	type	resnr	residu	atom	cgnr	charge	mass
     1      SG311      1      LIG      S      1     -0.423    32.0600   ; qtot -0.423
     2      OG2D1      1      LIG     O1      2     -0.469    15.9994   ; qtot -0.892
     3      OG2D3      1      LIG     O2      3     -0.443    15.9994   ; qtot -1.335
     4      OG2D1      1      LIG     O3      4     -0.538    15.9994   ; qtot -1.873
     5      OG2D1      1      LIG     O4      5     -0.526    15.9994   ; qtot -2.399
     6      OG302      1      LIG     O5      6     -0.439    15.9994   ; qtot -2.838
     7      OG2D1      1      LIG     O6      7     -0.550    15.9994   ; qtot -3.388
     8      OG2D1      1      LIG     O7      8     -0.636    15.9994   ; qtot -4.024
     9     NG2R43      1      LIG     N1      9     -0.136    14.0070   ; qtot -4.160
    10      NG2S1      1      LIG     N2     10     -0.564    14.0070   ; qtot -4.724
    11      NG2S1      1      LIG     N3     11     -0.527    14.0070   ; qtot -5.251
    12      NG2S2      1      LIG     N4     12     -0.620    14.0070   ; qtot -5.871
    13     CG3RC1      1      LIG     C1     13      0.054    12.0110   ; qtot -5.817
    14     CG3C51      1      LIG     C2     14      0.068    12.0110   ; qtot -5.749
    15     CG3C50      1      LIG     C3     15     -0.006    12.0110   ; qtot -5.755
    16     CG3C41      1      LIG     C4     16      0.314    12.0110   ; qtot -5.441
    17     CG2R53      1      LIG     C5     17      0.254    12.0110   ; qtot -5.187
    18      CG331      1      LIG     C6     18     -0.142    12.0110   ; qtot -5.329
    19      CG331      1      LIG     C7     19     -0.142    12.0110   ; qtot -5.471
    20      CG2O5      1      LIG     C8     20      0.351    12.0110   ; qtot -5.120
    21      CG331      1      LIG     C9     21     -0.172    12.0110   ; qtot -5.292
    22      CG2O1      1      LIG    C10     22      0.577    12.0110   ; qtot -4.715
    23      CG311      1      LIG    C11     23      0.198    12.0110   ; qtot -4.517
    24     CG2R61      1      LIG    C12     24     -0.156    12.0110   ; qtot -4.673
    25     CG2R61      1      LIG    C13     25     -0.069    12.0110   ; qtot -4.742
    26     CG2R61      1      LIG    C14     26     -0.069    12.0110   ; qtot -4.811
    27      CG2O1      1      LIG    C15     27      0.548    12.0110   ; qtot -4.263
    28     CG2R61      1      LIG    C16     28     -0.117    12.0110   ; qtot -4.380
    29     CG2R61      1      LIG    C17     29     -0.117    12.0110   ; qtot -4.497
    30      CG321      1      LIG    C18     30     -0.267    12.0110   ; qtot -4.764
    31     CG2R61      1      LIG    C19     31      0.217    12.0110   ; qtot -4.547
    32      CG2O1      1      LIG    C20     32      0.613    12.0110   ; qtot -3.934
    33      CG2O2      1      LIG    C21     33      0.901    12.0110   ; qtot -3.033
    34      CG331      1      LIG    C22     34     -0.311    12.0110   ; qtot -3.344
    35       HGA1      1      LIG     H1     35      0.090     1.0080   ; qtot -3.254
    36       HGA1      1      LIG     H2     36      0.090     1.0080   ; qtot -3.164
    37       HGA1      1      LIG     H3     37      0.090     1.0080   ; qtot -3.074
    38       HGA3      1      LIG     H4     38      0.090     1.0080   ; qtot -2.984
    39       HGA3      1      LIG     H5     39      0.090     1.0080   ; qtot -2.894
    40       HGA3      1      LIG     H6     40      0.090     1.0080   ; qtot -2.804
    41       HGA3      1      LIG     H7     41      0.090     1.0080   ; qtot -2.714
    42       HGA3      1      LIG     H8     42      0.090     1.0080   ; qtot -2.624
    43       HGA3      1      LIG     H9     43      0.090     1.0080   ; qtot -2.534
    44       HGP1      1      LIG    H10     44      0.302     1.0080   ; qtot -2.232
    45       HGA3      1      LIG    H11     45      0.090     1.0080   ; qtot -2.142
    46       HGA3      1      LIG    H12     46      0.090     1.0080   ; qtot -2.052
    47       HGA3      1      LIG    H13     47      0.090     1.0080   ; qtot -1.962
    48       HGA1      1      LIG    H14     48      0.090     1.0080   ; qtot -1.872
    49       HGP1      1      LIG    H15     49      0.344     1.0080   ; qtot -1.528
    50      HGR61      1      LIG    H16     50      0.115     1.0080   ; qtot -1.413
    51      HGR61      1      LIG    H17     51      0.115     1.0080   ; qtot -1.298
    52      HGR61      1      LIG    H18     52      0.115     1.0080   ; qtot -1.183
    53      HGR61      1      LIG    H19     53      0.115     1.0080   ; qtot -1.068
    54       HGA2      1      LIG    H20     54      0.090     1.0080   ; qtot -0.978
    55       HGA2      1      LIG    H21     55      0.090     1.0080   ; qtot -0.888
    56       HGP1      1      LIG    H22     56      0.309     1.0080   ; qtot -0.579
    57       HGP1      1      LIG    H23     57      0.309     1.0080   ; qtot -0.270
    58       HGA3      1      LIG    H24     58      0.090     1.0080   ; qtot -0.180
    59       HGA3      1      LIG    H25     59      0.090     1.0080   ; qtot -0.090
    60       HGA3      1      LIG    H26     60      0.090     1.0080   ; qtot -0.000

[ bonds ]
; ai	aj	funct	b0	Kb
    1    13     1
    1    15     1
    2    17     1
    3    20     1
    4    22     1
    5    27     1
    6    31     1
    6    33     1
    7    32     1
    8    33     1
    9    13     1
    9    14     1
    9    17     1
   10    16     1
   10    22     1
   10    44     1
   11    23     1
   11    27     1
   11    49     1
   12    32     1
   12    56     1
   12    57     1
   13    16     1
   13    35     1
   14    15     1
   14    20     1
   14    36     1
   15    18     1
   15    19     1
   16    17     1
   16    37     1
   18    38     1
   18    39     1
   18    40     1
   19    41     1
   19    42     1
   19    43     1
   20    21     1
   21    45     1
   21    46     1
   21    47     1
   22    23     1
   23    24     1
   23    48     1
   24    25     1
   24    26     1
   25    28     1
   25    50     1
   26    29     1
   26    51     1
   27    30     1
   28    31     1
   28    52     1
   29    31     1
   29    53     1
   30    32     1
   30    54     1
   30    55     1
   33    34     1
   34    58     1
   34    59     1
   34    60     1

[ pairs ]
; ai	aj	funct	c6	c12
    1    10     1 
    1    17     1 
    1    20     1 
    1    36     1 
    1    37     1 
    1    38     1 
    1    39     1 
    1    40     1 
    1    41     1 
    1    42     1 
    1    43     1 
    2    10     1 
    2    13     1 
    2    14     1 
    2    37     1 
    3     9     1 
    3    15     1 
    3    36     1 
    3    45     1 
    3    46     1 
    3    47     1 
    4    11     1 
    4    16     1 
    4    24     1 
    4    44     1 
    4    48     1 
    5    23     1 
    5    32     1 
    5    49     1 
    5    54     1 
    5    55     1 
    6    25     1 
    6    26     1 
    6    52     1 
    6    53     1 
    6    58     1 
    6    59     1 
    6    60     1 
    7    27     1 
    7    54     1 
    7    55     1 
    7    56     1 
    7    57     1 
    8    31     1 
    8    58     1 
    8    59     1 
    8    60     1 
    9    10     1 
    9    13     1 
    9    17     1 
    9    18     1 
    9    19     1 
    9    21     1 
    9    37     1 
   10    11     1 
   10    24     1 
   10    35     1 
   10    48     1 
   11    25     1 
   11    26     1 
   11    32     1 
   11    54     1 
   11    55     1 
   12    27     1 
   12    54     1 
   12    55     1 
   13    16     1 
   13    18     1 
   13    19     1 
   13    20     1 
   13    22     1 
   13    36     1 
   13    44     1 
   14    16     1 
   14    35     1 
   14    38     1 
   14    39     1 
   14    40     1 
   14    41     1 
   14    42     1 
   14    43     1 
   14    45     1 
   14    46     1 
   14    47     1 
   15    16     1 
   15    17     1 
   15    21     1 
   15    35     1 
   16    17     1 
   16    23     1 
   17    20     1 
   17    22     1 
   17    35     1 
   17    36     1 
   17    44     1 
   18    20     1 
   18    36     1 
   18    41     1 
   18    42     1 
   18    43     1 
   19    20     1 
   19    36     1 
   19    38     1 
   19    39     1 
   19    40     1 
   21    36     1 
   22    25     1 
   22    26     1 
   22    27     1 
   22    37     1 
   22    49     1 
   23    28     1 
   23    29     1 
   23    30     1 
   23    44     1 
   23    50     1 
   23    51     1 
   24    27     1 
   24    31     1 
   24    49     1 
   24    52     1 
   24    53     1 
   25    29     1 
   25    48     1 
   25    51     1 
   26    28     1 
   26    48     1 
   26    50     1 
   27    48     1 
   28    33     1 
   28    53     1 
   29    33     1 
   29    52     1 
   30    49     1 
   30    56     1 
   30    57     1 
   31    34     1 
   31    50     1 
   31    51     1 
   35    37     1 
   37    44     1 
   48    49     1 
   50    52     1 
   51    53     1 

[ angles ] 
; ai	aj	ak	funct	th0	cth	S0	Kub
   13     1    15     5
   31     6    33     5
   13     9    14     5
   13     9    17     5
   14     9    17     5
   16    10    22     5
   16    10    44     5
   22    10    44     5
   23    11    27     5
   23    11    49     5
   27    11    49     5
   32    12    56     5
   32    12    57     5
   56    12    57     5
    1    13     9     5
    1    13    16     5
    1    13    35     5
    9    13    16     5
    9    13    35     5
   16    13    35     5
    9    14    15     5
    9    14    20     5
    9    14    36     5
   15    14    20     5
   15    14    36     5
   20    14    36     5
    1    15    14     5
    1    15    18     5
    1    15    19     5
   14    15    18     5
   14    15    19     5
   18    15    19     5
   10    16    13     5
   10    16    17     5
   10    16    37     5
   13    16    17     5
   13    16    37     5
   17    16    37     5
    2    17     9     5
    2    17    16     5
    9    17    16     5
   15    18    38     5
   15    18    39     5
   15    18    40     5
   38    18    39     5
   38    18    40     5
   39    18    40     5
   15    19    41     5
   15    19    42     5
   15    19    43     5
   41    19    42     5
   41    19    43     5
   42    19    43     5
    3    20    14     5
    3    20    21     5
   14    20    21     5
   20    21    45     5
   20    21    46     5
   20    21    47     5
   45    21    46     5
   45    21    47     5
   46    21    47     5
    4    22    10     5
    4    22    23     5
   10    22    23     5
   11    23    22     5
   11    23    24     5
   11    23    48     5
   22    23    24     5
   22    23    48     5
   24    23    48     5
   23    24    25     5
   23    24    26     5
   25    24    26     5
   24    25    28     5
   24    25    50     5
   28    25    50     5
   24    26    29     5
   24    26    51     5
   29    26    51     5
    5    27    11     5
    5    27    30     5
   11    27    30     5
   25    28    31     5
   25    28    52     5
   31    28    52     5
   26    29    31     5
   26    29    53     5
   31    29    53     5
   27    30    32     5
   27    30    54     5
   27    30    55     5
   32    30    54     5
   32    30    55     5
   54    30    55     5
    6    31    28     5
    6    31    29     5
   28    31    29     5
    7    32    12     5
    7    32    30     5
   12    32    30     5
    6    33     8     5
    6    33    34     5
    8    33    34     5
   33    34    58     5
   33    34    59     5
   33    34    60     5
   58    34    59     5
   58    34    60     5
   59    34    60     5

[ dihedrals ]
; ai	aj	ak	al	funct	phi0	cp	mult
   15     1    13    16     9
   15     1    13    35     9
   13     1    15    14     9
   13     1    15    18     9
   13     1    15    19     9
   31     6    33    34     9
   14     9    13    16     9
   14     9    13    35     9
   17     9    13    35     9
   13     9    14    15     9
   13     9    14    20     9
   13     9    14    36     9
   17     9    14    20     9
   17     9    14    36     9
   13     9    17    16     9
   14     9    17    16     9
   22    10    16    37     9
   16    10    22    23     9
   27    11    23    48     9
   23    11    27    30     9
    9    13     1    15     9
    1    13     9    14     9
    1    13     9    17     9
   16    13     9    17     9
    1    13    16    10     9
    1    13    16    17     9
    1    13    16    37     9
    9    13    16    10     9
    9    13    16    17     9
    9    13    16    37     9
   35    13    16    37     9
   15    14     9    17     9
    9    14    15    18     9
    9    14    15    19     9
    9    14    20    21     9
   15    14    20    21     9
    1    15    14     9     9
    1    15    14    20     9
    1    15    14    36     9
   18    15    14    20     9
   18    15    14    36     9
   19    15    14    20     9
   19    15    14    36     9
    1    15    18    38     9
    1    15    18    39     9
    1    15    18    40     9
   14    15    18    38     9
   14    15    18    39     9
   14    15    18    40     9
   19    15    18    38     9
   19    15    18    39     9
   19    15    18    40     9
    1    15    19    41     9
    1    15    19    42     9
    1    15    19    43     9
   14    15    19    41     9
   14    15    19    42     9
   14    15    19    43     9
   18    15    19    41     9
   18    15    19    42     9
   18    15    19    43     9
   13    16    10    22     9
   13    16    10    44     9
   17    16    10    22     9
   17    16    10    44     9
   37    16    10    44     9
   10    16    13    35     9
   17    16    13    35     9
    2    17     9    13     9
    2    17     9    14     9
    2    17    16    10     9
    2    17    16    13     9
    2    17    16    37     9
    9    17    16    10     9
    9    17    16    13     9
    9    17    16    37     9
    3    20    14     9     9
    3    20    14    15     9
    3    20    14    36     9
   21    20    14    36     9
    3    20    21    45     9
    3    20    21    46     9
    3    20    21    47     9
   14    20    21    45     9
   14    20    21    46     9
   14    20    21    47     9
    4    22    10    16     9
    4    22    10    44     9
   23    22    10    44     9
    4    22    23    11     9
    4    22    23    24     9
    4    22    23    48     9
   10    22    23    11     9
   10    22    23    24     9
   10    22    23    48     9
   22    23    11    27     9
   22    23    11    49     9
   24    23    11    27     9
   24    23    11    49     9
   48    23    11    49     9
   11    23    24    25     9
   11    23    24    26     9
   22    23    24    25     9
   22    23    24    26     9
   25    24    23    48     9
   26    24    23    48     9
   23    24    25    28     9
   23    24    25    50     9
   26    24    25    28     9
   26    24    25    50     9
   23    24    26    29     9
   23    24    26    51     9
   25    24    26    29     9
   25    24    26    51     9
   24    25    28    31     9
   24    25    28    52     9
   50    25    28    52     9
   24    26    29    31     9
   24    26    29    53     9
   51    26    29    53     9
    5    27    11    23     9
    5    27    11    49     9
   30    27    11    49     9
    5    27    30    32     9
    5    27    30    54     9
    5    27    30    55     9
   11    27    30    32     9
   11    27    30    54     9
   11    27    30    55     9
   31    28    25    50     9
   25    28    31    29     9
   31    29    26    51     9
   26    29    31    28     9
   28    31     6    33     9
   29    31     6    33     9
    6    31    28    25     9
    6    31    28    52     9
   29    31    28    52     9
    6    31    29    26     9
    6    31    29    53     9
   28    31    29    53     9
    7    32    12    56     9
    7    32    12    57     9
   30    32    12    56     9
   30    32    12    57     9
    7    32    30    27     9
    7    32    30    54     9
    7    32    30    55     9
   12    32    30    27     9
   12    32    30    54     9
   12    32    30    55     9
    8    33     6    31     9
    6    33    34    58     9
    6    33    34    59     9
    6    33    34    60     9
    8    33    34    58     9
    8    33    34    59     9
    8    33    34    60     9

[ dihedrals ]
; ai	aj	ak	al	funct	q0	cq
   17    16     9     2     2
   20    21    14     3     2
   22    23    10     4     2
   27    30    11     5     2
   32    30    12     7     2
   33    34     8     6     2
