;;
;; Generated by CHARMM-GUI (http://www.charmm-gui.org) v1.7
;;
;; psf2itp_mol.py
;;
;; Correspondance:
;; jul316@lehigh.edu or wonpil@lehigh.edu
;;
;; GROMACS topology file for LIG
;;


[ moleculetype ]
; name	nrexcl
LIG	     3

[ atoms ]
; nr	type	resnr	residu	atom	cgnr	charge	mass
     1      SG311      1      LIG      S      1      0.187    32.0600   ; qtot  0.187
     2     OG2R50      1      LIG     O1      2     -0.259    15.9994   ; qtot -0.072
     3      OG2N1      1      LIG     O2      3     -0.311    15.9994   ; qtot -0.383
     4      OG2N1      1      LIG     O3      4     -0.311    15.9994   ; qtot -0.694
     5      NG301      1      LIG     N1      5     -0.588    14.0070   ; qtot -1.282
     6      NG311      1      LIG     N2      6     -0.421    14.0070   ; qtot -1.703
     7     NG2R62      1      LIG     N3      7     -0.476    14.0070   ; qtot -2.179
     8      NG2O1      1      LIG     N4      8      0.375    14.0070   ; qtot -1.804
     9     NG2R62      1      LIG     N5      9     -0.389    14.0070   ; qtot -2.193
    10     CG2R51      1      LIG     C1     10     -0.368    12.0110   ; qtot -2.561
    11      CG321      1      LIG     C2     11      0.198    12.0110   ; qtot -2.363
    12     CG2R51      1      LIG     C3     12      0.505    12.0110   ; qtot -1.858
    13      CG321      1      LIG     C4     13     -0.465    12.0110   ; qtot -2.323
    14      CG311      1      LIG     C5     14      0.096    12.0110   ; qtot -2.227
    15     CG2R51      1      LIG     C6     15     -0.297    12.0110   ; qtot -2.524
    16     CG2R51      1      LIG     C7     16      0.032    12.0110   ; qtot -2.492
    17      CG331      1      LIG     C8     17     -0.265    12.0110   ; qtot -2.757
    18      CG331      1      LIG     C9     18     -0.102    12.0110   ; qtot -2.859
    19      CG331      1      LIG    C10     19     -0.102    12.0110   ; qtot -2.961
    20     CG2R64      1      LIG    C11     20      0.327    12.0110   ; qtot -2.634
    21     CG2R61      1      LIG    C12     21      0.398    12.0110   ; qtot -2.236
    22     CG2R61      1      LIG    C13     22     -0.220    12.0110   ; qtot -2.456
    23     CG2R61      1      LIG    C14     23      0.303    12.0110   ; qtot -2.153
    24       HGA2      1      LIG     H1     24      0.090     1.0080   ; qtot -2.063
    25       HGA2      1      LIG     H2     25      0.090     1.0080   ; qtot -1.973
    26       HGA2      1      LIG     H3     26      0.090     1.0080   ; qtot -1.883
    27       HGA2      1      LIG     H4     27      0.090     1.0080   ; qtot -1.793
    28       HGA1      1      LIG     H5     28      0.090     1.0080   ; qtot -1.703
    29      HGR51      1      LIG     H6     29      0.171     1.0080   ; qtot -1.532
    30     HGPAM1      1      LIG     H7     30      0.332     1.0080   ; qtot -1.200
    31      HGR52      1      LIG     H8     31      0.138     1.0080   ; qtot -1.062
    32       HGA3      1      LIG     H9     32      0.090     1.0080   ; qtot -0.972
    33       HGA3      1      LIG    H10     33      0.090     1.0080   ; qtot -0.882
    34       HGA3      1      LIG    H11     34      0.090     1.0080   ; qtot -0.792
    35       HGA3      1      LIG    H12     35      0.090     1.0080   ; qtot -0.702
    36       HGA3      1      LIG    H13     36      0.090     1.0080   ; qtot -0.612
    37       HGA3      1      LIG    H14     37      0.090     1.0080   ; qtot -0.522
    38       HGA3      1      LIG    H15     38      0.090     1.0080   ; qtot -0.432
    39       HGA3      1      LIG    H16     39      0.090     1.0080   ; qtot -0.342
    40       HGA3      1      LIG    H17     40      0.090     1.0080   ; qtot -0.252
    41      HGR61      1      LIG    H18     41      0.166     1.0080   ; qtot -0.086
    42      HGR62      1      LIG    H19     42      0.086     1.0080   ; qtot -0.000

[ bonds ]
; ai	aj	funct	b0	Kb
    1    13     1
    1    14     1
    2    12     1
    2    16     1
    3     8     1
    4     8     1
    5    11     1
    5    18     1
    5    19     1
    6    14     1
    6    20     1
    6    30     1
    7     9     1
    7    20     1
    8    21     1
    9    23     1
   10    11     1
   10    12     1
   10    15     1
   11    24     1
   11    25     1
   12    13     1
   13    26     1
   13    27     1
   14    17     1
   14    28     1
   15    16     1
   15    29     1
   16    31     1
   17    32     1
   17    33     1
   17    34     1
   18    35     1
   18    36     1
   18    37     1
   19    38     1
   19    39     1
   19    40     1
   20    21     1
   21    22     1
   22    23     1
   22    41     1
   23    42     1

[ pairs ]
; ai	aj	funct	c6	c12
    1     2     1 
    1    10     1 
    1    20     1 
    1    30     1 
    1    32     1 
    1    33     1 
    1    34     1 
    2    11     1 
    2    26     1 
    2    27     1 
    2    29     1 
    3    20     1 
    3    22     1 
    4    20     1 
    4    22     1 
    5    12     1 
    5    15     1 
    6     8     1 
    6     9     1 
    6    13     1 
    6    22     1 
    6    32     1 
    6    33     1 
    6    34     1 
    7     8     1 
    7    14     1 
    7    22     1 
    7    30     1 
    7    42     1 
    8    23     1 
    8    41     1 
    9    21     1 
    9    41     1 
   10    18     1 
   10    19     1 
   10    26     1 
   10    27     1 
   10    31     1 
   11    13     1 
   11    16     1 
   11    29     1 
   11    35     1 
   11    36     1 
   11    37     1 
   11    38     1 
   11    39     1 
   11    40     1 
   12    14     1 
   12    24     1 
   12    25     1 
   12    29     1 
   12    31     1 
   13    15     1 
   13    16     1 
   13    17     1 
   13    28     1 
   14    21     1 
   14    26     1 
   14    27     1 
   15    24     1 
   15    25     1 
   17    20     1 
   17    30     1 
   18    24     1 
   18    25     1 
   18    38     1 
   18    39     1 
   18    40     1 
   19    24     1 
   19    25     1 
   19    35     1 
   19    36     1 
   19    37     1 
   20    23     1 
   20    28     1 
   20    41     1 
   21    30     1 
   21    42     1 
   28    30     1 
   28    32     1 
   28    33     1 
   28    34     1 
   29    31     1 
   41    42     1 

[ angles ] 
; ai	aj	ak	funct	th0	cth	S0	Kub
   13     1    14     5
   12     2    16     5
   11     5    18     5
   11     5    19     5
   18     5    19     5
   14     6    20     5
   14     6    30     5
   20     6    30     5
    9     7    20     5
    3     8     4     5
    3     8    21     5
    4     8    21     5
    7     9    23     5
   11    10    12     5
   11    10    15     5
   12    10    15     5
    5    11    10     5
    5    11    24     5
    5    11    25     5
   10    11    24     5
   10    11    25     5
   24    11    25     5
    2    12    10     5
    2    12    13     5
   10    12    13     5
    1    13    12     5
    1    13    26     5
    1    13    27     5
   12    13    26     5
   12    13    27     5
   26    13    27     5
    1    14     6     5
    1    14    17     5
    1    14    28     5
    6    14    17     5
    6    14    28     5
   17    14    28     5
   10    15    16     5
   10    15    29     5
   16    15    29     5
    2    16    15     5
    2    16    31     5
   15    16    31     5
   14    17    32     5
   14    17    33     5
   14    17    34     5
   32    17    33     5
   32    17    34     5
   33    17    34     5
    5    18    35     5
    5    18    36     5
    5    18    37     5
   35    18    36     5
   35    18    37     5
   36    18    37     5
    5    19    38     5
    5    19    39     5
    5    19    40     5
   38    19    39     5
   38    19    40     5
   39    19    40     5
    6    20     7     5
    6    20    21     5
    7    20    21     5
    8    21    20     5
    8    21    22     5
   20    21    22     5
   21    22    23     5
   21    22    41     5
   23    22    41     5
    9    23    22     5
    9    23    42     5
   22    23    42     5

[ dihedrals ]
; ai	aj	ak	al	funct	phi0	cp	mult
   14     1    13    26     9
   14     1    13    27     9
   13     1    14    17     9
   13     1    14    28     9
   12     2    16    15     9
   12     2    16    31     9
   18     5    11    24     9
   18     5    11    25     9
   19     5    11    24     9
   19     5    11    25     9
   11     5    18    35     9
   11     5    18    36     9
   11     5    18    37     9
   19     5    18    35     9
   19     5    18    36     9
   19     5    18    37     9
   11     5    19    38     9
   11     5    19    39     9
   11     5    19    40     9
   18     5    19    38     9
   18     5    19    39     9
   18     5    19    40     9
   20     6    14    28     9
   14     6    20    21     9
   20     7     9    23     9
    9     7    20    21     9
    3     8    21    20     9
    3     8    21    22     9
    4     8    21    20     9
    4     8    21    22     9
    7     9    23    22     9
    7     9    23    42     9
   12    10    11    24     9
   12    10    11    25     9
   15    10    11    24     9
   15    10    11    25     9
   11    10    12    13     9
   11    10    15    16     9
   11    10    15    29     9
   12    10    15    16     9
   12    10    15    29     9
   10    11     5    18     9
   10    11     5    19     9
    5    11    10    12     9
    5    11    10    15     9
   10    12     2    16     9
   13    12     2    16     9
    2    12    10    11     9
    2    12    10    15     9
   13    12    10    15     9
    2    12    13    26     9
    2    12    13    27     9
   10    12    13    26     9
   10    12    13    27     9
   12    13     1    14     9
    1    13    12     2     9
    1    13    12    10     9
    6    14     1    13     9
    1    14     6    20     9
    1    14     6    30     9
   17    14     6    20     9
   17    14     6    30     9
   28    14     6    30     9
    1    14    17    32     9
    1    14    17    33     9
    1    14    17    34     9
    6    14    17    32     9
    6    14    17    33     9
    6    14    17    34     9
   28    14    17    32     9
   28    14    17    33     9
   28    14    17    34     9
   10    15    16    31     9
   29    15    16    31     9
    2    16    15    10     9
    2    16    15    29     9
    7    20     6    14     9
    7    20     6    30     9
   21    20     6    30     9
    6    20     7     9     9
    6    20    21     8     9
    6    20    21    22     9
    7    20    21     8     9
    7    20    21    22     9
    8    21    22    23     9
    8    21    22    41     9
   20    21    22    23     9
   20    21    22    41     9
   21    22    23    42     9
   41    22    23    42     9
    9    23    22    21     9
    9    23    22    41     9

[ dihedrals ]
; ai	aj	ak	al	funct	q0	cq
   20    21     7     6     2
